Title
82282
    1SAPS     N    1   3.251   2.188  10.895  0.5370 -0.0699 -0.0320
    1SAPS   HN1    2   3.285   2.119  10.824 -4.2058  0.1760 -2.7242
    1SAPS   HN2    3   3.159   2.220  10.861  1.1432  0.3150 -1.3519
    1SAPS   HN3    4   3.322   2.263  10.881  1.1341 -0.4634  0.8515
    1SAPS   C12    5   3.239   2.153  11.040  0.0042  0.1018  0.2778
    1SAPS  H12A    6   3.338   2.151  11.083 -0.5203  0.0457  1.5056
    1SAPS   C13    7   3.157   2.237  11.131  0.4886  0.4583  0.3187
    1SAPS  O13A    8   3.089   2.327  11.073 -0.2667  0.6975  0.3385
    1SAPS  O13B    9   3.162   2.223  11.255  0.1376 -0.3532  0.1614
    1SAPS   C11   10   3.185   2.003  11.048  0.9052 -0.4383 -0.5516
    1SAPS  H11A   11   3.182   1.971  11.155  1.0133  2.3666  0.3302
    1SAPS  H11B   12   3.259   1.934  11.003  3.9721  2.1838  0.3031
    1SAPS     P   13   2.953   1.885  11.019 -0.2045  0.4092 -0.0756
    1SAPS   O13   14   2.925   1.872  11.160  0.1872 -0.9920  0.3361
    1SAPS   O14   15   2.831   1.908  10.938  0.1918  0.5100  0.6959
    1SAPS   O12   16   3.055   1.995  10.984  0.3048 -0.1785 -0.2731
    1SAPS   O11   17   3.028   1.746  10.977  0.1912 -0.0200 -0.3148
    1SAPS    C1   18   3.108   1.744  10.853 -0.1121  0.2009 -0.0487
    1SAPS    HA   19   3.201   1.804  10.849  1.5888 -2.3814 -0.7366
    1SAPS    HB   20   3.146   1.640  10.839  2.3300  0.9873  0.4015
    1SAPS    C2   21   3.024   1.769  10.731  0.5691 -0.5141 -0.6212
    1SAPS    HS   22   2.982   1.871  10.738 -0.9673 -1.2937  2.2119
    1SAPS   O21   23   2.915   1.667  10.733  0.6113  0.2618  0.4402
    1SAPS   C21   24   2.802   1.709  10.671 -0.3374 -0.5532  0.7956
    1SAPS   O22   25   2.773   1.822  10.641 -0.6353  0.4538  0.8362
    1SAPS   C22   26   2.699   1.593  10.674 -0.6597 -0.0996  0.4676
    1SAPS   H2R   27   2.755   1.498  10.674  0.4752  0.5064 -2.5145
    1SAPS   H2S   28   2.653   1.606  10.774  2.5136 -2.3088  2.3067
    1SAPS    C3   29   3.111   1.754  10.603  0.1727  0.3242 -0.6621
    1SAPS    HX   30   3.145   1.648  10.609  1.5163  0.8062  0.6347
    1SAPS    HY   31   3.205   1.809  10.626 -0.2133  0.7607 -0.1135
    1SAPS   O31   32   3.051   1.771  10.470 -0.6553  0.3517 -0.8487
    1SAPS   C31   33   3.025   1.889  10.426  0.1379  0.5412 -0.4346
    1SAPS   O32   34   3.048   1.993  10.489  0.4759 -0.0687  0.4323
    1SAPS   C32   35   2.971   1.890  10.282  0.1130  0.1522 -0.0807
    1SAPS   H2X   36   2.911   1.983  10.270 -0.2520 -0.1132 -0.3104
    1SAPS   H2Y   37   2.903   1.803  10.271  1.9107 -1.1668 -0.8604
    1SAPS   C23   38   2.607   1.599  10.555  0.3413  0.8083 -0.8108
    1SAPS   H3R   39   2.558   1.699  10.550  1.3564  1.3558  0.0303
    1SAPS   H3S   40   2.527   1.524  10.573  1.0024  0.5771  1.2774
    1SAPS   C24   41   2.664   1.574  10.423 -0.6645 -0.1420 -0.5648
    1SAPS   H4R   42   2.720   1.479  10.415 -0.8654 -0.4114  1.1641
    1SAPS   H4S   43   2.734   1.656  10.394 -0.0568 -1.6816 -3.7295
    1SAPS   C25   44   2.552   1.557  10.317 -0.2500 -0.0046 -0.2426
    1SAPS   H5R   45   2.482   1.472  10.327 -0.6058  0.4009  0.7908
    1SAPS   C26   46   2.549   1.624  10.206 -0.5490  0.2101  0.3908
    1SAPS   H6R   47   2.473   1.600  10.131 -0.8494  0.7730  0.5119
    1SAPS   C27   48   2.641   1.734  10.157 -0.7824  0.6556  0.4570
    1SAPS   H7R   49   2.703   1.687  10.079 -1.8139 -0.0381  0.0547
    1SAPS   H7S   50   2.711   1.765  10.238  2.2606 -0.7203 -1.5692
    1SAPS   C28   51   2.564   1.859  10.111  0.9254 -0.7925  0.8481
    1SAPS   H8R   52   2.545   1.931  10.192  0.2774  0.0783 -0.0602
    1SAPS   C29   53   2.497   1.887   9.998  0.1563  0.6112  0.5619
    1SAPS   H9R   54   2.451   1.986   9.983 -2.6968 -0.1690  3.5623
    1SAPS  C210   55   2.490   1.799   9.873  0.2317 -0.1443 -0.8443
    1SAPS  H10R   56   2.389   1.775   9.834  0.0487 -0.2873 -0.2917
    1SAPS  H10S   57   2.536   1.703   9.903  1.0301  0.4233 -0.2247
    1SAPS  C211   58   2.573   1.877   9.770  0.6348 -0.0925  0.3649
    1SAPS  H11R   59   2.638   1.957   9.808  3.0380 -2.3901  1.2564
    1SAPS  C212   60   2.558   1.866   9.633  0.4780 -0.1128 -0.1391
    1SAPS  H12R   61   2.626   1.931   9.576 -0.5011  0.6158 -0.5048
    1SAPS  C213   62   2.462   1.778   9.568 -0.6112 -0.4188 -0.3554
    1SAPS  H13R   63   2.376   1.845   9.546 -0.3225  1.0373  2.7440
    1SAPS  H13S   64   2.438   1.695   9.638 -0.4901 -1.9352 -2.0716
    1SAPS  C214   65   2.517   1.721   9.445  0.6429  0.6304 -0.2598
    1SAPS  H14R   66   2.606   1.659   9.463 -1.0584 -1.3993  1.3246
    1SAPS  C215   67   2.478   1.745   9.319  0.2366 -0.2278 -0.0113
    1SAPS  H15R   68   2.520   1.688   9.235 -0.1688 -0.5193 -0.0193
    1SAPS  C216   69   2.367   1.834   9.274  0.3512 -0.0599  0.4188
    1SAPS  H16R   70   2.296   1.836   9.360 -0.0256 -1.2246  0.1453
    1SAPS  H16S   71   2.315   1.778   9.193 -2.8567  1.8519  1.0775
    1SAPS  C217   72   2.416   1.973   9.227  0.2912  0.1485  0.1572
    1SAPS  H17R   73   2.492   1.957   9.148 -1.2591 -2.3290 -0.8925
    1SAPS  H17S   74   2.471   2.017   9.312  2.9925 -0.4157 -1.2499
    1SAPS  C218   75   2.319   2.082   9.180  0.8592 -0.2411 -0.1170
    1SAPS  H18R   76   2.376   2.159   9.124  1.1355  0.2442  0.8123
    1SAPS  H18S   77   2.274   2.137   9.266  1.0467  0.1138 -0.2442
    1SAPS  C219   78   2.217   2.026   9.088  0.1769  0.2701 -0.4772
    1SAPS  H19R   79   2.161   1.944   9.138  0.7526  0.4015  0.3907
    1SAPS  H19S   80   2.284   1.975   9.015  0.0718 -3.5564  1.9439
    1SAPS  C220   81   2.136   2.133   9.019 -0.1996 -0.4790  0.0014
    1SAPS  H20R   82   2.092   2.195   9.099  0.4081 -1.1741  0.8779
    1SAPS  H20S   83   2.041   2.107   8.967 -1.5060 -0.2619  2.2117
    1SAPS  H20T   84   2.196   2.195   8.949 -2.5119  0.2140 -1.4195
    1SAPS   C33   85   3.077   1.881  10.175  0.0750 -1.1945  0.4716
    1SAPS   H3X   86   3.171   1.825  10.193  0.4249 -0.6319  0.3919
    1SAPS   H3Y   87   3.111   1.982  10.145 -2.4888 -0.2675  0.5911
    1SAPS   C34   88   3.022   1.823  10.040 -0.4078 -0.2399 -0.4450
    1SAPS   H4X   89   2.948   1.881   9.981 -0.1312  0.5385 -0.0257
    1SAPS   H4Y   90   2.982   1.723  10.065  2.5258 -1.3569 -0.0004
    1SAPS   C35   91   3.132   1.786   9.934 -0.4652  0.2638 -0.2023
    1SAPS   H5X   92   3.205   1.722   9.988 -2.1011 -0.7865  0.8322
    1SAPS   H5Y   93   3.183   1.876   9.895  0.9616 -0.6441 -0.4812
    1SAPS   C36   94   3.065   1.701   9.824 -0.2035 -0.1480  0.7796
    1SAPS   H6X   95   2.993   1.624   9.858 -0.1876  1.3971  4.5345
    1SAPS   H6Y   96   3.137   1.630   9.778 -1.4355 -2.2111  1.9471
    1SAPS   C37   97   2.999   1.786   9.708 -0.6646  0.5851 -0.2232
    1SAPS   H7X   98   3.073   1.861   9.675  0.1841  0.1205  0.6100
    1SAPS   H7Y   99   2.907   1.828   9.755 -1.4790 -1.7310  0.3158
    1SAPS   C38  100   2.950   1.696   9.596  0.1266 -0.4748 -0.7840
    1SAPS   H8X  101   2.885   1.609   9.619 -0.0876 -0.1667 -0.2182
    1SAPS   H8Y  102   3.046   1.652   9.561 -0.2933 -0.8650 -1.4616
    1SAPS   C39  103   2.898   1.787   9.484  1.0143  0.2995 -0.4681
    1SAPS   H9X  104   2.950   1.885   9.483  1.9697 -0.1526  2.1924
    1SAPS   H9Y  105   2.789   1.804   9.497  0.3507 -1.4765 -3.2766
    1SAPS  C310  106   2.891   1.722   9.341 -0.4333  0.2045  0.6897
    1SAPS  H10X  107   2.834   1.627   9.350  0.4682 -0.4179  0.0006
    1SAPS  H10Y  108   3.001   1.714   9.327 -0.3764 -0.4447  1.4609
    1SAPS  C311  109   2.828   1.811   9.229  0.4945  0.4167  0.2649
    1SAPS  H11X  110   2.895   1.899   9.218  0.2598  1.0472  3.5186
    1SAPS  H11Y  111   2.733   1.854   9.266  0.4882 -0.2691  1.0495
    1SAPS  C312  112   2.809   1.738   9.093 -0.0006  0.3888 -0.1225
    1SAPS  H12X  113   2.753   1.646   9.118  0.3921 -0.1132 -1.0523
    1SAPS  H12Y  114   2.909   1.710   9.054  0.7434  2.0426  0.5388
    1SAPS  C313  115   2.740   1.829   8.986 -0.2256  0.1691  0.1096
    1SAPS  H13X  116   2.827   1.881   8.940 -1.0302  0.7657 -0.7734
    1SAPS  H13Y  117   2.676   1.904   9.037  0.4476 -0.8678  2.5465
    1SAPS  C314  118   2.662   1.748   8.882  0.3290 -0.0467  0.2871
    1SAPS  H14X  119   2.581   1.694   8.935 -0.6564  0.6547 -0.4836
    1SAPS  H14Y  120   2.725   1.672   8.830  0.7969 -0.4260  1.3957
    1SAPS  C315  121   2.607   1.845   8.781 -0.7053  0.5562  0.6410
    1SAPS  H15X  122   2.680   1.925   8.758  0.6168 -0.9180 -0.4247
    1SAPS  H15Y  123   2.520   1.901   8.823 -1.7764 -0.6056  0.0194
    1SAPS  C316  124   2.573   1.784   8.641 -0.2200  0.1677 -0.3442
    1SAPS  H16X  125   2.527   1.684   8.656 -0.0509  0.1165 -0.1567
    1SAPS  H16Y  126   2.661   1.771   8.575  0.6161  1.0579  0.5783
    1SAPS  C317  127   2.466   1.864   8.566 -0.3460  0.2716 -0.4453
    1SAPS  H17X  128   2.502   1.969   8.567 -1.1901  0.5687 -0.8874
    1SAPS  H17Y  129   2.377   1.851   8.631  0.7504  2.0393  1.4620
    1SAPS  C318  130   2.437   1.809   8.421 -0.0323  0.1910 -0.1043
    1SAPS  H18X  131   2.357   1.871   8.374 -1.0815 -0.8149  0.3095
    1SAPS  H18Y  132   2.397   1.705   8.427 -2.1943  1.0797  1.7482
    1SAPS  H18Z  133   2.529   1.804   8.360  0.6049  1.4469  0.7403
    2SAPS     N  134   1.092   2.786  10.905 -0.2040  0.5150 -0.0304
    2SAPS   HN1  135   1.040   2.792  10.815  0.1429  0.7759 -0.2161
    2SAPS   HN2  136   1.035   2.772  10.991 -0.6983  1.4527 -0.1905
    2SAPS   HN3  137   1.143   2.876  10.915  0.7090  0.1964 -1.7322
    2SAPS   C12  138   1.206   2.684  10.897  0.9074  0.2460 -0.3052
    2SAPS  H12A  139   1.285   2.718  10.832 -0.3052 -1.6621 -2.8575
    2SAPS   C13  140   1.279   2.655  11.026 -0.5231 -0.4552  0.1498
    2SAPS  O13A  141   1.250   2.738  11.123 -0.8331 -0.2436  0.1952
    2SAPS  O13B  142   1.388   2.586  11.028 -0.0741  0.5048 -0.4030
    2SAPS   C11  143   1.145   2.563  10.826 -0.2786 -0.6435  0.1693
    2SAPS  H11A  144   1.069   2.505  10.883 -0.5501 -1.1246 -0.6721
    2SAPS  H11B  145   1.235   2.497  10.825  0.1639 -0.0482  0.4076
    2SAPS     P  146   1.054   2.496  10.595 -0.2815  0.3328  0.1891
    2SAPS   O13  147   0.958   2.402  10.661  0.0899 -0.3336 -0.1251
    2SAPS   O14  148   1.003   2.560  10.468 -0.0938  0.2078 -0.0115
    2SAPS   O12  149   1.094   2.600  10.698 -0.2153  0.7393  0.5154
    2SAPS   O11  150   1.189   2.418  10.563  0.0196  0.3287 -0.0967
    2SAPS    C1  151   1.199   2.273  10.584 -0.1317  0.0252  0.4413
    2SAPS    HA  152   1.269   2.254  10.668  0.9774  0.8939 -0.2761
    2SAPS    HB  153   1.102   2.219  10.595 -0.8508  1.1623 -0.1922
    2SAPS    C2  154   1.271   2.202  10.464  0.2379  0.9821  0.9589
    2SAPS    HS  155   1.378   2.233  10.468 -0.2236  2.5571  1.5640
    2SAPS   O21  156   1.200   2.236  10.344  0.0002 -0.4579  0.0797
    2SAPS   C21  157   1.279   2.223  10.237 -0.4004  0.0330 -0.4278
    2SAPS   O22  158   1.400   2.202  10.236  0.4178  0.3509  0.0141
    2SAPS   C22  159   1.201   2.242  10.106  0.0545 -0.7675  0.5355
    2SAPS   H2R  160   1.096   2.213  10.129 -0.9046  2.3079  0.2486
    2SAPS   H2S  161   1.194   2.350  10.082  2.9188 -0.9078 -1.1605
    2SAPS    C3  162   1.274   2.044  10.487  0.1157 -0.1312  0.1211
    2SAPS    HX  163   1.172   2.004  10.472 -0.0307  0.1247  0.4340
    2SAPS    HY  164   1.300   2.014  10.591 -0.8647  0.1859  0.4582
    2SAPS   O31  165   1.371   1.982  10.399 -0.0842  0.3298  0.9964
    2SAPS   C31  166   1.333   1.901  10.300 -0.1323 -0.5786  0.1140
    2SAPS   O32  167   1.219   1.860  10.277  0.3108 -0.0332 -0.1241
    2SAPS   C32  168   1.450   1.848  10.226 -0.9009 -0.3434  0.0308
    2SAPS   H2X  169   1.503   1.779  10.295  1.8337 -0.6301 -2.2812
    2SAPS   H2Y  170   1.509   1.938  10.198 -0.0949 -0.9969 -0.4012
    2SAPS   C23  171   1.258   2.171   9.980 -0.4627  0.7725 -0.2164
    2SAPS   H3R  172   1.261   2.061   9.993 -1.3858  0.7648 -0.0567
    2SAPS   H3S  173   1.364   2.201   9.963  0.1561 -1.8313 -1.2666
    2SAPS   C24  174   1.184   2.211   9.846  0.4405 -0.1511  0.3891
    2SAPS   H4R  175   1.192   2.320   9.829 -2.1948 -0.0921 -0.7155
    2SAPS   H4S  176   1.078   2.179   9.859  0.4118 -0.0427  0.4204
    2SAPS   C25  177   1.250   2.140   9.735 -0.6024 -0.7270 -0.1176
    2SAPS   H5R  178   1.355   2.108   9.744 -0.2224  0.2991 -0.8388
    2SAPS   C26  179   1.193   2.123   9.614 -0.5892 -0.5769 -1.0038
    2SAPS   H6R  180   1.250   2.080   9.530 -1.4099  0.7617 -2.2740
    2SAPS   C27  181   1.060   2.161   9.564 -0.2364 -0.4276 -0.6029
    2SAPS   H7R  182   0.994   2.202   9.643  0.4431 -1.2136  0.3689
    2SAPS   H7S  183   1.005   2.076   9.519 -2.0193  1.2423 -1.6846
    2SAPS   C28  184   1.076   2.253   9.452  0.2400 -0.5741 -0.3120
    2SAPS   H8R  185   1.060   2.361   9.466  1.2533  0.1341 -4.0277
    2SAPS   C29  186   1.103   2.211   9.321 -0.0518  0.2131 -0.6249
    2SAPS   H9R  187   1.123   2.281   9.239 -0.2004  0.7549 -0.1940
    2SAPS  C210  188   1.127   2.071   9.273 -0.5565 -0.1373 -0.4966
    2SAPS  H10R  189   1.119   1.996   9.355  0.9425  2.2991  1.9708
    2SAPS  H10S  190   1.228   2.064   9.227 -0.9473 -3.1794 -1.0105
    2SAPS  C211  191   1.021   2.042   9.174  0.0907  0.4844  0.2590
    2SAPS  H11R  192   0.921   2.016   9.213 -0.3699  0.3609 -0.9685
    2SAPS  C212  193   1.036   2.027   9.042 -0.7699 -0.0312 -0.7170
    2SAPS  H12R  194   0.952   2.008   8.973  0.2965  2.8618 -2.8847
    2SAPS  C213  195   1.167   2.041   8.970 -0.2194 -0.1245  0.5868
    2SAPS  H13R  196   1.246   1.975   9.012  0.1907 -1.8601 -2.7105
    2SAPS  H13S  197   1.210   2.143   8.976  1.6577 -1.0292  2.9239
    2SAPS  C214  198   1.163   1.984   8.827  0.9066 -0.1064  0.7108
    2SAPS  H14R  199   1.173   1.876   8.807  1.3563 -0.2455  1.6870
    2SAPS  C215  200   1.111   2.052   8.719 -0.9382 -0.0217  0.8533
    2SAPS  H15R  201   1.108   2.003   8.620  1.4184  1.8894 -0.2037
    2SAPS  C216  202   1.067   2.199   8.720 -0.0407 -0.8085  1.3302
    2SAPS  H16R  203   1.063   2.244   8.821 -0.6264 -1.1264  1.4480
    2SAPS  H16S  204   0.964   2.207   8.680  0.2273  1.9153  1.0882
    2SAPS  C217  205   1.173   2.291   8.652  0.6437  0.1782 -0.2165
    2SAPS  H17R  206   1.266   2.268   8.709 -0.3683  0.6734  1.6582
    2SAPS  H17S  207   1.150   2.399   8.667 -0.9909 -0.2247  0.1464
    2SAPS  C218  208   1.187   2.279   8.504 -0.0091 -0.1651 -0.2598
    2SAPS  H18R  209   1.120   2.345   8.445 -0.1871  0.5344  0.7278
    2SAPS  H18S  210   1.148   2.180   8.471  0.5577 -0.8188  1.0111
    2SAPS  C219  211   1.326   2.313   8.439 -0.4989 -0.2542  0.4845
    2SAPS  H19R  212   1.364   2.405   8.489  1.0063  0.0905 -1.2093
    2SAPS  H19S  213   1.309   2.332   8.331 -0.5347 -1.1942  0.3234
    2SAPS  C220  214   1.422   2.190   8.448  0.2024 -0.3416 -0.6528
    2SAPS  H20R  215   1.406   2.139   8.545 -2.2280 -0.1587 -0.9370
    2SAPS  H20S  216   1.518   2.244   8.436 -0.4322  0.8008 -0.6504
    2SAPS  H20T  217   1.406   2.117   8.366  2.1590 -3.1278  1.3469
    2SAPS   C33  218   1.400   1.784  10.091  0.0036 -0.0027  0.3779
    2SAPS   H3X  219   1.336   1.851  10.030  1.1707  1.0058  0.2352
    2SAPS   H3Y  220   1.333   1.699  10.117  0.0105  0.7748  3.0654
    2SAPS   C34  221   1.512   1.724  10.005 -0.7591 -0.3955  0.1307
    2SAPS   H4X  222   1.585   1.691  10.082 -0.4904  1.1515  0.5637
    2SAPS   H4Y  223   1.573   1.788   9.938  0.4825 -1.5623  0.1386
    2SAPS   C35  224   1.459   1.597   9.935  0.3683  0.1229  0.2147
    2SAPS   H5X  225   1.431   1.518  10.008  0.5815 -0.1878 -0.0398
    2SAPS   H5Y  226   1.543   1.551   9.878  1.9156 -0.4868  2.9320
    2SAPS   C36  227   1.349   1.622   9.824 -0.1551 -0.0750  0.7174
    2SAPS   H6X  228   1.258   1.671   9.865 -1.7132 -1.3286 -1.1478
    2SAPS   H6Y  229   1.315   1.526   9.781 -0.3763  0.7490 -1.0094
    2SAPS   C37  230   1.401   1.714   9.709  0.6756 -0.3537 -0.0058
    2SAPS   H7X  231   1.470   1.663   9.639  1.5004 -0.2151  0.7032
    2SAPS   H7Y  232   1.445   1.802   9.760  0.0678 -0.5970  0.9736
    2SAPS   C38  233   1.290   1.767   9.620 -0.0265 -0.1072  0.3587
    2SAPS   H8X  234   1.327   1.859   9.570 -0.9661  0.6669  1.0603
    2SAPS   H8Y  235   1.209   1.798   9.690 -0.0609 -0.2743  0.3930
    2SAPS   C39  236   1.243   1.654   9.524 -0.8276 -0.1907 -0.5739
    2SAPS   H9X  237   1.176   1.581   9.574  1.6317  0.0676  3.3572
    2SAPS   H9Y  238   1.339   1.612   9.490 -0.4388  1.1263 -1.1445
    2SAPS  C310  239   1.182   1.714   9.399 -0.5015 -0.3756  0.6761
    2SAPS  H10X  240   1.263   1.765   9.342 -0.2478 -1.4360  0.0639
    2SAPS  H10Y  241   1.108   1.788   9.437  1.3252  1.5901  0.4549
    2SAPS  C311  242   1.115   1.604   9.309  1.0324  0.7423  0.6255
    2SAPS  H11X  243   1.054   1.537   9.372 -2.2515  1.3387 -1.8140
    2SAPS  H11Y  244   1.186   1.528   9.270  0.3871 -1.0571  2.8588
    2SAPS  C312  245   1.027   1.649   9.191  0.9611 -0.1394  0.0177
    2SAPS  H12X  246   1.009   1.759   9.198  1.9261  0.1175 -1.3750
    2SAPS  H12Y  247   0.926   1.603   9.177  0.5039  0.7787  0.2575
    2SAPS  C313  248   1.093   1.632   9.050  0.6527 -0.8483 -0.4766
    2SAPS  H13X  249   1.204   1.629   9.057  0.6570  0.6085  0.4275
    2SAPS  H13Y  250   1.074   1.717   8.981  0.8518  0.2184  0.7596
    2SAPS  C314  251   1.021   1.516   8.976 -0.5187  0.3371  0.0656
    2SAPS  H14X  252   1.039   1.423   9.034  0.2698  1.4984  1.7218
    2SAPS  H14Y  253   1.068   1.507   8.876 -0.3740  3.2424 -0.1723
    2SAPS  C315  254   0.872   1.530   8.935 -0.0672  0.0228 -0.1897
    2SAPS  H15X  255   0.859   1.623   8.875 -1.2248 -0.1103 -0.1578
    2SAPS  H15Y  256   0.814   1.536   9.030  0.2741 -2.0311  0.1635
    2SAPS  C316  257   0.827   1.413   8.845 -0.6649 -0.5855  0.6739
    2SAPS  H16X  258   0.850   1.322   8.905 -0.1007  0.1223  1.5507
    2SAPS  H16Y  259   0.890   1.403   8.754  0.8297  2.6219  1.2858
    2SAPS  C317  260   0.681   1.406   8.807  0.5515  0.4186  0.1345
    2SAPS  H17X  261   0.630   1.405   8.905  1.2905  0.6743  0.5271
    2SAPS  H17Y  262   0.664   1.301   8.773 -0.6874  0.1276  1.5909
    2SAPS  C318  263   0.623   1.511   8.720  0.0979  0.2927  0.1345
    2SAPS  H18X  264   0.515   1.520   8.742  0.2462 -1.6446  1.8163
    2SAPS  H18Y  265   0.629   1.484   8.612 -0.8603 -0.7515  0.3313
    2SAPS  H18Z  266   0.685   1.603   8.724 -1.4763  1.4947 -2.0561
    3SAPS     N  267   1.111   3.451  10.866  0.1150 -0.2656 -0.2457
    3SAPS   HN1  268   1.048   3.453  10.783  1.5225  1.9082 -1.3219
    3SAPS   HN2  269   1.212   3.437  10.846  0.4975 -2.2652  2.6980
    3SAPS   HN3  270   1.073   3.368  10.915 -0.0304  0.4308  0.8465
    3SAPS   C12  271   1.081   3.580  10.937  0.2763 -0.7624  0.1383
    3SAPS  H12A  272   1.099   3.660  10.866  1.1560 -0.6268  0.5007
    3SAPS   C13  273   0.938   3.597  10.991 -0.3444 -0.2475 -0.0372
    3SAPS  O13A  274   0.855   3.501  10.991  0.5957 -0.7810  0.3416
    3SAPS  O13B  275   0.906   3.708  11.046 -0.3252  0.0752 -0.5515
    3SAPS   C11  276   1.172   3.588  11.056 -0.8378  0.3826  0.5424
    3SAPS  H11A  277   1.122   3.528  11.135 -0.0693  0.6418  1.2388
    3SAPS  H11B  278   1.174   3.691  11.097  1.3262  0.9258 -0.8044
    3SAPS     P  279   1.422   3.652  11.015  0.2792 -0.2723 -0.0124
    3SAPS   O13  280   1.434   3.751  11.121 -0.2312 -0.5539  0.0754
    3SAPS   O14  281   1.546   3.572  10.997 -0.2388 -0.1633 -0.2047
    3SAPS   O12  282   1.302   3.546  11.044  0.0516 -0.2337  0.1004
    3SAPS   O11  283   1.396   3.722  10.874  0.3951 -0.6086  0.4612
    3SAPS    C1  284   1.408   3.652  10.745  0.1983  0.1979 -0.5400
    3SAPS    HA  285   1.427   3.543  10.753 -0.2525  0.1055 -0.7089
    3SAPS    HB  286   1.307   3.652  10.699 -0.1751  0.8390  0.2755
    3SAPS    C2  287   1.515   3.711  10.653 -0.6895  0.3849  0.7145
    3SAPS    HS  288   1.612   3.683  10.699 -0.1496  0.4563 -0.3746
    3SAPS   O21  289   1.501   3.853  10.648  0.4655  0.2024  0.3136
    3SAPS   C21  290   1.606   3.924  10.615 -0.4776 -0.0761 -0.2990
    3SAPS   O22  291   1.719   3.882  10.631 -0.6484 -0.1663  0.1744
    3SAPS   C22  292   1.572   4.070  10.571 -0.1844 -0.0688  0.1822
    3SAPS   H2R  293   1.492   4.055  10.495 -0.6980 -1.1028  0.9185
    3SAPS   H2S  294   1.539   4.134  10.656 -0.0010  1.5749 -0.9743
    3SAPS    C3  295   1.517   3.649  10.510  0.0593 -0.3673 -0.2355
    3SAPS    HX  296   1.418   3.658  10.461  0.9840  0.3788 -2.0119
    3SAPS    HY  297   1.535   3.540  10.525  1.6381 -0.3689 -1.9271
    3SAPS   O31  298   1.618   3.714  10.422 -0.2467  0.5129 -0.0488
    3SAPS   C31  299   1.656   3.632  10.316 -0.0683  0.1444 -0.5452
    3SAPS   O32  300   1.594   3.530  10.294 -0.3349  0.5077  0.1502
    3SAPS   C32  301   1.768   3.698  10.229  0.1734  0.3310 -0.1508
    3SAPS   H2X  302   1.864   3.681  10.281 -0.1240  1.8889  0.9510
    3SAPS   H2Y  303   1.747   3.807  10.226 -0.8018  0.2837  2.8680
    3SAPS   C23  304   1.688   4.138  10.497  0.6054  0.2875 -0.0074
    3SAPS   H3R  305   1.738   4.059  10.437 -1.4827 -1.1279  0.0868
    3SAPS   H3S  306   1.759   4.187  10.567  1.3680  0.7658 -1.0929
    3SAPS   C24  307   1.649   4.242  10.396  0.1992 -0.5912 -0.3066
    3SAPS   H4R  308   1.734   4.311  10.380 -1.2188  1.1555 -0.4920
    3SAPS   H4S  309   1.573   4.292  10.460  0.5678  0.3067 -0.5685
    3SAPS   C25  310   1.583   4.192  10.266 -0.0597 -0.3364 -0.4933
    3SAPS   H5R  311   1.482   4.148  10.271  0.0397 -0.3739  1.4846
    3SAPS   C26  312   1.644   4.203  10.146  0.3330  0.4930 -0.2028
    3SAPS   H6R  313   1.587   4.156  10.064 -0.8653  0.5393  0.6047
    3SAPS   C27  314   1.778   4.270  10.107  0.5556  0.0193 -0.2796
    3SAPS   H7R  315   1.804   4.363  10.161  0.5702  1.1292 -2.1469
    3SAPS   H7S  316   1.769   4.313  10.005  0.7833  0.1112 -0.2617
    3SAPS   C28  317   1.890   4.167  10.123 -0.0935 -0.3894  0.8218
    3SAPS   H8R  318   1.918   4.166  10.229 -1.0759  1.2183  1.1150
    3SAPS   C29  319   1.944   4.098  10.025 -0.1992  0.5785 -0.1889
    3SAPS   H9R  320   2.018   4.019  10.049 -3.2423 -2.3120  0.0286
    3SAPS  C210  321   1.908   4.102   9.874 -0.5231  0.6878 -0.3701
    3SAPS  H10R  322   1.821   4.171   9.872 -0.0093  1.3006 -2.3761
    3SAPS  H10S  323   1.858   4.011   9.833 -0.7088  0.4510  0.3613
    3SAPS  C211  324   2.019   4.160   9.787  0.3129  0.7178 -0.5328
    3SAPS  H11R  325   2.115   4.167   9.840  0.7426  1.1881 -1.3655
    3SAPS  C212  326   2.002   4.214   9.669  0.4018 -0.0409  0.0294
    3SAPS  H12R  327   2.088   4.250   9.610 -0.5282 -1.5850 -2.3713
    3SAPS  C213  328   1.874   4.244   9.597  0.7536  0.4874 -0.0172
    3SAPS  H13R  329   1.863   4.345   9.553  0.0860 -0.6346 -2.5523
    3SAPS  H13S  330   1.792   4.234   9.671  0.2658 -0.7669 -0.6928
    3SAPS  C214  331   1.858   4.153   9.475 -0.1809 -0.0567 -0.0085
    3SAPS  H14R  332   1.784   4.074   9.494 -0.2325  0.3730  1.7696
    3SAPS  C215  333   1.913   4.167   9.352  0.2061 -0.1097 -0.3779
    3SAPS  H15R  334   1.895   4.100   9.268  1.2589  0.4617 -1.0586
    3SAPS  C216  335   2.002   4.279   9.319 -0.4537  0.4268 -0.1282
    3SAPS  H16R  336   1.981   4.372   9.375 -4.8499  0.5397 -1.7910
    3SAPS  H16S  337   1.979   4.306   9.214 -1.0220  0.8395  0.1036
    3SAPS  C217  338   2.148   4.233   9.306 -0.3706 -0.4712 -0.1479
    3SAPS  H17R  339   2.162   4.150   9.234  0.4410 -0.5744  0.1223
    3SAPS  H17S  340   2.201   4.210   9.401 -0.2525  1.0990  0.1927
    3SAPS  C218  341   2.234   4.346   9.235  0.3222 -0.2787  0.0595
    3SAPS  H18R  342   2.339   4.349   9.270  0.5123 -3.0676 -0.1671
    3SAPS  H18S  343   2.179   4.440   9.257 -0.4673 -1.0127  1.3288
    3SAPS  C219  344   2.236   4.333   9.086 -0.4790  1.0972  0.7119
    3SAPS  H19R  345   2.128   4.329   9.060  0.1879  0.0356 -2.0982
    3SAPS  H19S  346   2.270   4.228   9.072 -1.6744  0.8462 -0.3782
    3SAPS  C220  347   2.332   4.435   9.009 -0.1986 -0.7998  0.3848
    3SAPS  H20R  348   2.318   4.423   8.899 -0.0707 -2.0609  0.4972
    3SAPS  H20S  349   2.437   4.414   9.040  0.0306 -0.3721 -0.0973
    3SAPS  H20T  350   2.318   4.544   9.026  0.7930 -0.5393 -0.4019
    3SAPS   C33  351   1.772   3.634  10.091 -0.2245  0.1954  0.0834
    3SAPS   H3X  352   1.672   3.604  10.054  0.1701 -1.3450  0.2447
    3SAPS   H3Y  353   1.833   3.541  10.085  0.3453  0.6108 -0.6639
    3SAPS   C34  354   1.827   3.729   9.983  0.2988 -0.5303 -0.2879
    3SAPS   H4X  355   1.926   3.769  10.016  0.1937  0.3537 -1.0252
    3SAPS   H4Y  356   1.759   3.816   9.971  1.6238  0.4710 -0.8224
    3SAPS   C35  357   1.830   3.650   9.853 -0.1766 -0.3574 -1.0578
    3SAPS   H5X  358   1.733   3.604   9.822 -1.7372  1.3534  1.1118
    3SAPS   H5Y  359   1.901   3.565   9.855  1.5889  1.0769 -1.3760
    3SAPS   C36  360   1.868   3.730   9.732  0.3503  0.1417  0.8240
    3SAPS   H6X  361   1.974   3.760   9.749  1.2631 -1.6859 -1.3072
    3SAPS   H6Y  362   1.794   3.812   9.731 -2.3240 -2.2066  0.1597
    3SAPS   C37  363   1.868   3.659   9.596 -0.2219  0.2653 -0.0164
    3SAPS   H7X  364   1.778   3.600   9.572  0.1749  0.0795 -1.0589
    3SAPS   H7Y  365   1.946   3.581   9.608 -2.4172 -1.9472  0.2145
    3SAPS   C38  366   1.915   3.753   9.484  0.3605 -0.5179  0.0672
    3SAPS   H8X  367   2.026   3.761   9.495  0.5871 -1.1643 -1.6228
    3SAPS   H8Y  368   1.862   3.843   9.522 -0.7423 -0.6442 -1.1488
    3SAPS   C39  369   1.863   3.706   9.349 -0.5100 -0.0921  0.4741
    3SAPS   H9X  370   1.752   3.717   9.351 -0.6658 -1.4932  0.1014
    3SAPS   H9Y  371   1.881   3.597   9.339  0.0555  0.2064 -1.8971
    3SAPS  C310  372   1.925   3.787   9.239  0.1490  0.0340  0.2126
    3SAPS  H10X  373   2.023   3.836   9.257  0.2116 -0.4177  1.1011
    3SAPS  H10Y  374   1.852   3.871   9.237 -0.6575 -0.6641 -0.1043
    3SAPS  C311  375   1.928   3.725   9.097 -0.2863  0.0938  0.8064
    3SAPS  H11X  376   1.932   3.803   9.018 -1.2769  0.1117  0.7687
    3SAPS  H11Y  377   1.849   3.649   9.077  1.8684 -2.0034 -0.0625
    3SAPS  C312  378   2.056   3.646   9.076  0.2037 -0.3419  0.7273
    3SAPS  H12X  379   2.088   3.594   9.169 -0.3821  0.0656  1.1610
    3SAPS  H12Y  380   2.139   3.714   9.050  0.4201 -1.1522 -0.7182
    3SAPS  C313  381   2.063   3.552   8.955 -0.1499  0.1128 -0.2133
    3SAPS  H13X  382   1.982   3.478   8.973  1.0930 -1.0711  0.5982
    3SAPS  H13Y  383   2.158   3.496   8.953 -0.3393 -0.1868 -1.0458
    3SAPS  C314  384   2.039   3.633   8.828 -0.6351  0.3377  0.2515
    3SAPS  H14X  385   2.111   3.718   8.827  2.1751 -1.9643 -0.9808
    3SAPS  H14Y  386   1.932   3.660   8.814 -0.6185  0.8305  1.0498
    3SAPS  C315  387   2.069   3.550   8.697 -0.0832  0.4431 -0.5283
    3SAPS  H15X  388   2.048   3.441   8.704 -0.4446  0.3439 -2.8489
    3SAPS  H15Y  389   2.180   3.553   8.686 -0.3026 -2.2614 -4.0009
    3SAPS  C316  390   2.000   3.605   8.571 -0.1792  0.9533 -0.0032
    3SAPS  H16X  391   2.039   3.707   8.552  2.9804 -0.2470 -0.2846
    3SAPS  H16Y  392   1.890   3.612   8.577 -0.0912  0.6024  2.4112
    3SAPS  C317  393   2.042   3.520   8.444  0.3299  0.0170 -0.1935
    3SAPS  H17X  394   1.995   3.419   8.436 -0.4317  0.5011 -2.2856
    3SAPS  H17Y  395   2.151   3.500   8.439  0.3361 -0.7270  2.3006
    3SAPS  C318  396   1.988   3.579   8.313  1.2193 -0.2503 -0.1304
    3SAPS  H18X  397   1.877   3.580   8.320  1.1387  1.0442 -1.4517
    3SAPS  H18Y  398   2.007   3.523   8.219  2.3698 -0.8266  0.4349
    3SAPS  H18Z  399   2.031   3.680   8.299 -1.9952  1.0087 -1.3032
    4SAPS     N  400   4.061   5.380  10.973 -0.0922  0.0628  0.3434
    4SAPS   HN1  401   4.032   5.450  11.045 -0.7874 -1.1299  1.2430
    4SAPS   HN2  402   4.154   5.388  10.928 -0.0034 -0.4192  0.4454
    4SAPS   HN3  403   3.992   5.394  10.896  1.2605  1.7214 -0.5872
    4SAPS   C12  404   4.057   5.240  11.029  0.6752  0.0552  0.9192
    4SAPS  H12A  405   4.106   5.179  10.955 -0.1060  0.3280  0.1776
    4SAPS   C13  406   4.125   5.219  11.170 -0.1383 -0.1732 -0.3500
    4SAPS  O13A  407   4.197   5.309  11.222  0.1340 -0.0878  0.3110
    4SAPS  O13B  408   4.142   5.099  11.200 -0.3272  1.0457  0.3540
    4SAPS   C11  409   3.906   5.196  11.047  0.0193 -0.2320  0.0092
    4SAPS  H11A  410   3.862   5.262  11.125  2.4257 -2.1027  3.0439
    4SAPS  H11B  411   3.902   5.101  11.105  0.4568 -0.7670 -0.8328
    4SAPS     P  412   3.831   5.072  10.837  0.1817  0.0740 -0.1766
    4SAPS   O13  413   3.956   5.072  10.753  0.2398 -0.0753 -0.2701
    4SAPS   O14  414   3.814   4.952  10.924 -0.9038  0.1269 -0.1086
    4SAPS   O12  415   3.824   5.193  10.930  0.1775  0.8629 -0.2174
    4SAPS   O11  416   3.698   5.103  10.750 -0.2476 -0.1767  0.3765
    4SAPS    C1  417   3.633   5.004  10.674  1.0004  0.1412  0.0367
    4SAPS    HA  418   3.639   4.904  10.724  1.7617 -0.0720 -0.4692
    4SAPS    HB  419   3.527   5.036  10.666  1.1938  0.5557 -0.8874
    4SAPS    C2  420   3.684   4.993  10.528 -0.3530  0.3009 -0.0097
    4SAPS    HS  421   3.603   4.935  10.478 -0.5272 -0.3289  0.9853
    4SAPS   O21  422   3.814   4.930  10.517 -0.1478  0.2473  0.0320
    4SAPS   C21  423   3.815   4.797  10.534 -0.8218  0.1356 -0.5110
    4SAPS   O22  424   3.717   4.722  10.553  0.1977  0.0600  0.2711
    4SAPS   C22  425   3.962   4.748  10.542  0.4118 -0.3754 -0.2227
    4SAPS   H2R  426   4.023   4.841  10.550  1.6329 -0.9613 -2.3586
    4SAPS   H2S  427   3.973   4.692  10.637  0.7317  1.6548  0.9693
    4SAPS    C3  428   3.684   5.132  10.455  0.1626 -0.5163 -0.4961
    4SAPS    HX  429   3.748   5.210  10.502 -1.7263  0.0573  1.1705
    4SAPS    HY  430   3.581   5.171  10.463  0.6980  0.7827  0.1302
    4SAPS   O31  431   3.725   5.120  10.319 -0.2354 -0.2494  0.4627
    4SAPS   C31  432   3.630   5.087  10.228  0.2648 -0.6960  0.0138
    4SAPS   O32  433   3.519   5.049  10.246  0.7422 -0.2947  0.0992
    4SAPS   C32  434   3.702   5.072  10.097 -0.0140  0.7280 -0.4931
    4SAPS   H2X  435   3.702   4.964  10.072 -0.5848  0.1742  1.8592
    4SAPS   H2Y  436   3.812   5.091  10.106  0.3394 -0.6642 -1.7072
    4SAPS   C23  437   4.000   4.677  10.416  0.2614  0.2719 -0.1374
    4SAPS   H3R  438   3.935   4.593  10.386 -0.1395  0.7436 -0.6113
    4SAPS   H3S  439   4.094   4.627  10.446 -0.4955 -0.5466  0.8965
    4SAPS   C24  440   4.019   4.772  10.294 -0.0443 -0.5839 -0.4830
    4SAPS   H4R  441   4.093   4.846  10.330 -0.3191  1.1524 -3.2583
    4SAPS   H4S  442   3.920   4.820  10.277 -0.5984 -1.3579  0.5429
    4SAPS   C25  443   4.074   4.710  10.161  0.9042  0.2283  0.1029
    4SAPS   H5R  444   4.183   4.720  10.153  0.9680  0.2721  1.0189
    4SAPS   C26  445   4.000   4.656  10.063  0.2941 -0.1073 -0.4052
    4SAPS   H6R  446   4.048   4.621   9.970  1.0922  4.0218 -1.6521
    4SAPS   C27  447   3.846   4.650  10.069 -0.8367 -0.3550  0.3141
    4SAPS   H7R  448   3.803   4.657   9.967 -0.0367 -2.4275 -0.1833
    4SAPS   H7S  449   3.806   4.746  10.109  1.1863  0.2374  1.0104
    4SAPS   C28  450   3.786   4.537  10.145  0.1127  0.2654 -0.3674
    4SAPS   H8R  451   3.847   4.445  10.149 -0.2329  0.1327  2.4713
    4SAPS   C29  452   3.671   4.539  10.209 -0.2285 -0.4876  0.1566
    4SAPS   H9R  453   3.641   4.444  10.255  0.2288 -0.1431  1.1833
    4SAPS  C210  454   3.577   4.657  10.218  0.6231 -0.1153  0.2851
    4SAPS  H10R  455   3.619   4.751  10.177  2.3112  1.2859  4.8664
    4SAPS  H10S  456   3.552   4.674  10.325  1.2162 -2.7358  0.8909
    4SAPS  C211  457   3.443   4.628  10.146  0.0533  0.2294  0.0930
    4SAPS  H11R  458   3.378   4.555  10.196  0.0601 -0.4803 -0.9063
    4SAPS  C212  459   3.402   4.684  10.034 -0.8882  0.6260 -0.2943
    4SAPS  H12R  460   3.297   4.666  10.007 -0.9890  0.9867 -0.1447
    4SAPS  C213  461   3.480   4.789   9.953 -0.1078 -0.7542  0.6641
    4SAPS  H13R  462   3.507   4.749   9.853 -0.7994  1.6237 -0.5150
    4SAPS  H13S  463   3.568   4.836  10.001 -0.3290  0.1136  0.2313
    4SAPS  C214  464   3.387   4.905   9.929 -0.2413 -0.7823  0.1731
    4SAPS  H14R  465   3.386   4.974  10.015 -2.4780 -0.7722  0.1802
    4SAPS  C215  466   3.310   4.936   9.822 -0.3684 -0.3141 -0.6755
    4SAPS  H15R  467   3.246   5.026   9.821  0.2306  0.1762  1.9344
    4SAPS  C216  468   3.290   4.851   9.699  0.3140 -0.2163  0.2515
    4SAPS  H16R  469   3.188   4.809   9.684  0.7901 -0.6663 -1.8795
    4SAPS  H16S  470   3.361   4.766   9.697  1.0257  0.3944 -0.5779
    4SAPS  C217  471   3.333   4.934   9.573 -0.5914 -0.7309  0.8040
    4SAPS  H17R  472   3.424   4.993   9.597 -0.5082 -0.3905 -0.3205
    4SAPS  H17S  473   3.250   5.006   9.564  2.4269  2.7081 -0.7187
    4SAPS  C218  474   3.362   4.850   9.442 -0.4594 -0.2479  0.3589
    4SAPS  H18R  475   3.265   4.807   9.409 -0.8893  1.1660 -0.2788
    4SAPS  H18S  476   3.443   4.779   9.471  2.4889  1.9152 -2.2068
    4SAPS  C219  477   3.430   4.934   9.329 -0.2556 -0.0888  0.3241
    4SAPS  H19R  478   3.363   5.015   9.292  1.5795  0.0546 -2.8787
    4SAPS  H19S  479   3.439   4.868   9.240 -1.3462  1.1221 -0.7050
    4SAPS  C220  480   3.566   4.994   9.365  0.0759  0.3222 -0.7146
    4SAPS  H20R  481   3.558   5.065   9.450 -2.5805 -0.5311 -0.1876
    4SAPS  H20S  482   3.616   5.046   9.280 -2.0911  0.6544 -1.8190
    4SAPS  H20T  483   3.635   4.919   9.409  0.4777  2.0556  1.7393
    4SAPS   C33  484   3.640   5.157   9.993 -0.4566  0.0971  0.2198
    4SAPS   H3X  485   3.668   5.264  10.001  2.4702 -0.5945 -0.3840
    4SAPS   H3Y  486   3.529   5.159   9.999 -0.4534 -0.6464  0.6300
    4SAPS   C34  487   3.683   5.109   9.851 -0.8203 -0.2367 -0.1523
    4SAPS   H4X  488   3.675   4.998   9.850  1.5898 -0.4452 -2.8712
    4SAPS   H4Y  489   3.788   5.143   9.833 -1.0562  1.1789  1.0824
    4SAPS   C35  490   3.604   5.174   9.739 -0.1904  0.0208 -0.6132
    4SAPS   H5X  491   3.498   5.155   9.767 -0.5832  1.5572 -1.0321
    4SAPS   H5Y  492   3.630   5.116   9.648 -0.5861 -2.0856  0.5662
    4SAPS   C36  493   3.626   5.328   9.725  0.5724  0.0922 -0.4263
    4SAPS   H6X  494   3.646   5.372   9.824 -0.9026 -0.1446 -0.0067
    4SAPS   H6Y  495   3.528   5.367   9.688  0.6375  1.7769  1.1250
    4SAPS   C37  496   3.743   5.347   9.631  0.0811 -1.0256  0.1480
    4SAPS   H7X  497   3.813   5.261   9.635 -0.9022 -1.7780  1.9762
    4SAPS   H7Y  498   3.805   5.437   9.652 -0.8084 -0.7239  1.5867
    4SAPS   C38  499   3.699   5.359   9.480  0.4581  0.2234 -0.4909
    4SAPS   H8X  500   3.622   5.439   9.470  0.9618  0.8057  0.2403
    4SAPS   H8Y  501   3.644   5.263   9.466  0.6421 -0.3348  2.4284
    4SAPS   C39  502   3.820   5.382   9.386 -0.9027  0.9102 -0.3864
    4SAPS   H9X  503   3.911   5.345   9.438 -1.5602  0.6262  0.5696
    4SAPS   H9Y  504   3.838   5.491   9.377  0.3637  0.8611  1.2815
    4SAPS  C310  505   3.791   5.310   9.253  0.4046 -0.7811  0.4392
    4SAPS  H10X  506   3.699   5.359   9.216 -0.0876 -2.9298 -1.2610
    4SAPS  H10Y  507   3.780   5.201   9.270 -1.8447 -0.4692  1.1300
    4SAPS  C311  508   3.904   5.332   9.156 -0.3393  1.1296  0.3303
    4SAPS  H11X  509   3.994   5.368   9.211  2.0670 -1.4598 -1.7158
    4SAPS  H11Y  510   3.866   5.415   9.091  0.3335  1.8897  0.8953
    4SAPS  C312  511   3.936   5.213   9.065  0.4861 -0.0089  0.3169
    4SAPS  H12X  512   3.839   5.168   9.036  0.5029  1.7882 -2.6727
    4SAPS  H12Y  513   3.994   5.140   9.126  0.1171 -2.3534 -2.0627
    4SAPS  C313  514   4.009   5.245   8.930 -0.1212  0.2372 -0.4969
    4SAPS  H13X  515   4.110   5.283   8.953  0.0749 -1.0623  0.9112
    4SAPS  H13Y  516   3.960   5.326   8.872 -1.6258 -0.1668  0.1766
    4SAPS  C314  517   4.009   5.118   8.851  0.1194 -0.1607 -0.9908
    4SAPS  H14X  518   3.910   5.069   8.861  0.0158 -0.3103 -2.6222
    4SAPS  H14Y  519   4.080   5.040   8.888 -1.2688 -1.8871 -1.8637
    4SAPS  C315  520   4.053   5.135   8.709  0.0320 -0.0397  0.5144
    4SAPS  H15X  521   4.000   5.226   8.672  2.2074  1.3095  0.5814
    4SAPS  H15Y  522   4.008   5.051   8.652 -0.6939  0.5182  0.2521
    4SAPS  C316  523   4.200   5.142   8.660 -0.0039 -0.1254 -0.4232
    4SAPS  H16X  524   4.248   5.239   8.686 -1.1119  0.6267 -1.1236
    4SAPS  H16Y  525   4.195   5.143   8.549 -0.3965  1.5562 -0.3976
    4SAPS  C317  526   4.293   5.026   8.705  0.2931  0.2963  0.1708
    4SAPS  H17X  527   4.238   4.931   8.692 -0.0006  0.5135 -0.1647
    4SAPS  H17Y  528   4.305   5.039   8.815  2.9660  0.5169 -0.1035
    4SAPS  C318  529   4.419   5.021   8.623  0.5609 -0.7464  0.2687
    4SAPS  H18X  530   4.463   5.123   8.614 -0.7533 -0.1922 -0.1191
    4SAPS  H18Y  531   4.382   4.976   8.529  0.2673 -1.1705  0.5896
    4SAPS  H18Z  532   4.493   4.958   8.677  0.5612 -2.3098 -1.5116
    5SAPS     N  533   0.652   3.657  11.129  0.2163 -0.0913 -0.1756
    5SAPS   HN1  534   0.678   3.585  11.200  0.1803 -0.5272 -0.6081
    5SAPS   HN2  535   0.602   3.610  11.051 -1.9335  1.5829  0.1285
    5SAPS   HN3  536   0.740   3.694  11.088  0.3535 -0.3690 -0.1295
    5SAPS   C12  537   0.572   3.763  11.191  0.6103 -0.6706  0.5702
    5SAPS  H12A  538   0.468   3.740  11.174  0.3468  1.6824 -1.3105
    5SAPS   C13  539   0.602   3.777  11.341  0.5685 -0.1976  0.2151
    5SAPS  O13A  540   0.680   3.704  11.407  0.2194  0.1548 -0.6008
    5SAPS  O13B  541   0.521   3.857  11.397 -0.1623  0.0941  0.4615
    5SAPS   C11  542   0.598   3.893  11.113 -0.8543 -0.5794 -0.1616
    5SAPS  H11A  543   0.705   3.916  11.131 -1.0358 -2.2239  3.2334
    5SAPS  H11B  544   0.536   3.974  11.157 -1.3479 -0.2699 -1.3913
    5SAPS     P  545   0.555   4.008  10.890 -0.5031  0.0490 -0.0428
    5SAPS   O13  546   0.438   4.072  10.950  0.0135 -0.2104  0.5144
    5SAPS   O14  547   0.672   4.092  10.893 -0.4740  0.5810 -0.2063
    5SAPS   O12  548   0.581   3.870  10.972  0.1192  0.1721 -0.5659
    5SAPS   O11  549   0.517   3.957  10.750 -0.1370 -0.1791 -0.4010
    5SAPS    C1  550   0.599   3.854  10.694 -0.4006 -0.0400  0.3909
    5SAPS    HA  551   0.619   3.775  10.769 -0.2227 -0.5992 -0.2388
    5SAPS    HB  552   0.533   3.817  10.613  0.1296  0.0574 -0.0842
    5SAPS    C2  553   0.736   3.894  10.626 -0.4624 -0.5355 -0.3161
    5SAPS    HS  554   0.797   3.953  10.698 -0.9262 -3.1575  2.3097
    5SAPS   O21  555   0.709   3.958  10.502 -0.5179 -0.0557  0.5143
    5SAPS   C21  556   0.778   4.077  10.488  0.2982  0.2309 -0.0140
    5SAPS   O22  557   0.860   4.118  10.566 -0.2948 -0.4028  0.1842
    5SAPS   C22  558   0.740   4.129  10.345 -0.4038  0.0364 -0.7627
    5SAPS   H2R  559   0.630   4.136  10.351 -0.2779  0.4875  2.0358
    5SAPS   H2S  560   0.791   4.226  10.325 -2.2230  0.8733 -1.3712
    5SAPS    C3  561   0.814   3.762  10.601  0.1528 -0.1666 -0.0246
    5SAPS    HX  562   0.745   3.703  10.537  2.1788 -1.3194 -1.1870
    5SAPS    HY  563   0.841   3.698  10.689  0.5402 -0.6644 -0.4987
    5SAPS   O31  564   0.937   3.784  10.530  0.4326 -0.3953  0.1487
    5SAPS   C31  565   1.037   3.835  10.598 -0.4736  0.6365  0.4651
    5SAPS   O32  566   1.041   3.845  10.718 -0.0192  0.0534  0.9289
    5SAPS   C32  567   1.146   3.884  10.505 -0.4072  0.4539  1.4713
    5SAPS   H2X  568   1.243   3.880  10.558 -0.2552 -1.8078  1.0852
    5SAPS   H2Y  569   1.133   3.988  10.469 -0.5889 -0.9378 -2.7125
    5SAPS   C23  570   0.784   4.042  10.224 -0.6368  0.1863 -0.6019
    5SAPS   H3R  571   0.737   3.941  10.224  0.3335 -0.2871  1.0086
    5SAPS   H3S  572   0.894   4.025  10.223 -0.8274 -1.0572 -2.0257
    5SAPS   C24  573   0.743   4.104  10.092  0.0607  0.2003 -0.1429
    5SAPS   H4R  574   0.807   4.048  10.020  2.3123  1.0079  1.1792
    5SAPS   H4S  575   0.770   4.211  10.096 -1.8031  0.6345  2.0163
    5SAPS   C25  576   0.597   4.109  10.055 -0.1121 -0.8448  0.5296
    5SAPS   H5R  577   0.517   4.085  10.126  1.1872 -1.7572  1.6958
    5SAPS   C26  578   0.546   4.137   9.931 -0.2010  0.0038 -0.3166
    5SAPS   H6R  579   0.440   4.128   9.905  0.0484 -0.5708 -1.1736
    5SAPS   C27  580   0.618   4.174   9.807  0.1444  0.1653 -0.4864
    5SAPS   H7R  581   0.716   4.222   9.826 -0.7154  1.8390 -0.2156
    5SAPS   H7S  582   0.562   4.254   9.755 -0.7999 -0.3868 -0.3396
    5SAPS   C28  583   0.636   4.054   9.714  0.2533  0.1099 -0.1505
    5SAPS   H8R  584   0.651   3.958   9.766 -0.5023  0.4167  0.6383
    5SAPS   C29  585   0.623   4.056   9.581  0.0758 -0.0730  0.2317
    5SAPS   H9R  586   0.637   3.959   9.532 -0.7763 -2.2734  4.1615
    5SAPS  C210  587   0.600   4.175   9.494 -0.0019  0.7209  1.0582
    5SAPS  H10R  588   0.668   4.257   9.526  3.5161 -1.9296  0.6711
    5SAPS  H10S  589   0.492   4.200   9.495 -0.1228  0.2694  0.1004
    5SAPS  C211  590   0.640   4.144   9.350  0.4917 -0.2004 -0.2398
    5SAPS  H11R  591   0.735   4.090   9.338  1.4653  1.0431  1.5797
    5SAPS  C212  592   0.571   4.177   9.235 -1.2088  0.2546 -0.3475
    5SAPS  H12R  593   0.617   4.157   9.137 -2.4185 -2.7063 -0.3689
    5SAPS  C213  594   0.442   4.250   9.234  0.2624  0.6937 -0.4464
    5SAPS  H13R  595   0.449   4.361   9.242  2.2358  0.8189 -3.2213
    5SAPS  H13S  596   0.377   4.225   9.321 -0.1134  1.0033 -0.6316
    5SAPS  C214  597   0.362   4.217   9.113  0.2481  0.2839  0.2153
    5SAPS  H14R  598   0.296   4.129   9.122  1.1336 -0.5296 -1.1228
    5SAPS  C215  599   0.374   4.285   8.997 -0.6718 -0.9818 -0.1416
    5SAPS  H15R  600   0.321   4.250   8.907  1.8582 -0.7502 -1.7670
    5SAPS  C216  601   0.467   4.398   8.973  1.0163  0.1901  0.0569
    5SAPS  H16R  602   0.561   4.356   9.014  0.0686 -1.0237  1.0289
    5SAPS  H16S  603   0.451   4.477   9.050  3.0244 -1.6473  2.4556
    5SAPS  C217  604   0.459   4.453   8.829 -0.0870 -0.1984  0.4228
    5SAPS  H17R  605   0.487   4.373   8.757  0.4888  0.6120 -0.2622
    5SAPS  H17S  606   0.533   4.531   8.802 -1.6283  1.8972  2.0874
    5SAPS  C218  607   0.324   4.513   8.793 -0.4541 -0.0692 -0.6469
    5SAPS  H18R  608   0.243   4.449   8.834 -0.9251  1.3205  0.6792
    5SAPS  H18S  609   0.314   4.613   8.842  1.9536 -0.2957  0.3679
    5SAPS  C219  610   0.313   4.522   8.637 -0.2520  0.2623  0.2340
    5SAPS  H19R  611   0.339   4.421   8.599  1.3859  0.2752  1.3037
    5SAPS  H19S  612   0.388   4.596   8.602  0.2044 -0.2793  0.0600
    5SAPS  C220  613   0.166   4.568   8.602  0.9226  0.4585 -0.3940
    5SAPS  H20R  614   0.158   4.673   8.636  1.9806  0.5739 -0.4866
    5SAPS  H20S  615   0.113   4.503   8.674  3.2058  0.9442  1.7828
    5SAPS  H20T  616   0.138   4.561   8.494  1.1587  0.7639 -0.4738
    5SAPS   C33  617   1.170   3.808  10.371 -0.2907 -0.0489 -0.5053
    5SAPS   H3X  618   1.068   3.818  10.326 -0.0166  1.5380 -0.8115
    5SAPS   H3Y  619   1.200   3.706  10.401 -3.0513 -0.0035  2.7099
    5SAPS   C34  620   1.271   3.878  10.276  0.4258 -0.5862  0.2063
    5SAPS   H4X  621   1.374   3.874  10.318  0.8171  0.3799 -0.6546
    5SAPS   H4Y  622   1.250   3.987  10.275 -0.1440 -0.6999 -0.4132
    5SAPS   C35  623   1.270   3.837  10.132  0.3477  0.2485 -0.4721
    5SAPS   H5X  624   1.168   3.849  10.089  0.8833  2.4890 -1.2100
    5SAPS   H5Y  625   1.299   3.731  10.117  0.9492  0.4624 -0.8691
    5SAPS   C36  626   1.364   3.933  10.058  0.3029 -0.4198 -0.9561
    5SAPS   H6X  627   1.464   3.923  10.105 -0.2882  0.5124  0.5200
    5SAPS   H6Y  628   1.332   4.039  10.069 -0.3539 -0.5006 -2.0180
    5SAPS   C37  629   1.376   3.898   9.909  0.8852  0.3397  0.2235
    5SAPS   H7X  630   1.276   3.918   9.865  0.4381 -0.0702  1.0439
    5SAPS   H7Y  631   1.392   3.788   9.910 -0.4659  0.0765 -2.3684
    5SAPS   C38  632   1.483   3.971   9.831  0.0625  0.2257  0.1319
    5SAPS   H8X  633   1.579   3.970   9.887  0.9654  1.8051 -1.3612
    5SAPS   H8Y  634   1.457   4.079   9.841  0.0588  0.0139  2.9537
    5SAPS   C39  635   1.491   3.934   9.687  0.0896 -0.5109  0.5788
    5SAPS   H9X  636   1.512   3.825   9.680  0.3250 -0.3385 -2.1446
    5SAPS   H9Y  637   1.577   3.989   9.643  0.2046 -1.5518 -0.5341
    5SAPS  C310  638   1.367   3.963   9.609  0.2188 -0.6247  0.2626
    5SAPS  H10X  639   1.338   4.070   9.622  1.6568 -0.2795  0.7124
    5SAPS  H10Y  640   1.280   3.907   9.650 -0.0275 -0.0192  0.5768
    5SAPS  C311  641   1.368   3.931   9.457 -0.3349 -0.3208  0.4769
    5SAPS  H11X  642   1.432   4.014   9.420  0.5293 -1.3521 -0.3865
    5SAPS  H11Y  643   1.268   3.941   9.409 -0.9574  0.8236  1.9971
    5SAPS  C312  644   1.443   3.811   9.403 -0.0200 -0.0461 -0.3436
    5SAPS  H12X  645   1.391   3.715   9.425 -0.6903  0.6256  1.0625
    5SAPS  H12Y  646   1.536   3.797   9.462 -0.0976  1.6601  0.2073
    5SAPS  C313  647   1.473   3.816   9.247 -0.3621  0.1709 -0.2420
    5SAPS  H13X  648   1.546   3.733   9.234 -2.1190 -1.7563  1.5858
    5SAPS  H13Y  649   1.532   3.907   9.224  2.1982 -1.0969  1.1212
    5SAPS  C314  650   1.349   3.811   9.158  0.3624 -0.0158  0.7453
    5SAPS  H14X  651   1.261   3.869   9.193  0.0708  0.9858 -1.5462
    5SAPS  H14Y  652   1.320   3.704   9.156  2.0934 -0.4807  0.1284
    5SAPS  C315  653   1.390   3.854   9.015  0.2181 -0.0234  0.0566
    5SAPS  H15X  654   1.378   3.964   9.012 -0.5000 -0.1316 -2.4336
    5SAPS  H15Y  655   1.313   3.803   8.953 -0.1693 -1.4540  1.6540
    5SAPS  C316  656   1.522   3.805   8.965  0.3894 -0.2526 -0.0960
    5SAPS  H16X  657   1.515   3.696   8.983  0.7969 -0.6666 -2.2752
    5SAPS  H16Y  658   1.613   3.846   9.014  1.5203  0.9016 -3.0653
    5SAPS  C317  659   1.541   3.841   8.813  0.1024  0.3546 -0.6373
    5SAPS  H17X  660   1.550   3.951   8.802  0.9544  0.4105  0.5307
    5SAPS  H17Y  661   1.447   3.799   8.771  0.8227  0.8995 -2.8971
    5SAPS  C318  662   1.661   3.769   8.762  0.7226 -0.1230 -0.2612
    5SAPS  H18X  663   1.666   3.798   8.655 -0.2732 -0.9024 -0.5316
    5SAPS  H18Y  664   1.647   3.659   8.761 -0.6278  0.0314 -4.2808
    5SAPS  H18Z  665   1.749   3.802   8.822  0.9362 -2.4014  0.7325
    6SAPS     N  666   0.693   3.314  10.848  0.5121  0.1589  0.3061
    6SAPS   HN1  667   0.687   3.368  10.759 -0.9399 -0.2538  0.1503
    6SAPS   HN2  668   0.739   3.370  10.923 -1.3599 -1.6300  2.8652
    6SAPS   HN3  669   0.752   3.231  10.829  3.1208  2.2428 -1.1200
    6SAPS   C12  670   0.556   3.273  10.882  0.7696 -0.3976 -0.4140
    6SAPS  H12A  671   0.570   3.203  10.963  1.0444 -0.6396 -0.6682
    6SAPS   C13  672   0.483   3.393  10.949 -0.1244 -0.2611 -0.1927
    6SAPS  O13A  673   0.524   3.508  10.936 -0.1276 -0.3555 -0.0529
    6SAPS  O13B  674   0.375   3.367  11.008 -0.5217 -0.3517  0.2280
    6SAPS   C11  675   0.473   3.232  10.756  0.6451 -0.3608 -0.0845
    6SAPS  H11A  676   0.389   3.165  10.783 -0.0349  0.0228 -1.2330
    6SAPS  H11B  677   0.529   3.169  10.683 -0.0612 -3.6991  2.1695
    6SAPS     P  678   0.508   3.446  10.585 -0.0312 -0.8942  0.0555
    6SAPS   O13  679   0.445   3.577  10.569 -0.5208 -0.6319  0.3523
    6SAPS   O14  680   0.654   3.453  10.624 -0.3351  0.2473 -0.1544
    6SAPS   O12  681   0.425   3.355  10.681 -0.3665 -0.1741 -0.3116
    6SAPS   O11  682   0.510   3.367  10.448 -0.6795 -0.1210 -0.1363
    6SAPS    C1  683   0.401   3.278  10.416 -0.7128  0.1472 -0.8140
    6SAPS    HA  684   0.421   3.173  10.448 -1.8468 -0.8008 -3.0903
    6SAPS    HB  685   0.304   3.315  10.454 -0.5161  2.2206 -2.2203
    6SAPS    C2  686   0.383   3.269  10.260 -0.3609  0.3195  0.7314
    6SAPS    HS  687   0.472   3.219  10.217 -0.7371 -1.1381  1.6112
    6SAPS   O21  688   0.360   3.400  10.204  0.1319  0.5306 -0.2023
    6SAPS   C21  689   0.468   3.462  10.161  0.5465 -0.3002 -0.6898
    6SAPS   O22  690   0.581   3.413  10.160  0.2483  0.3482  0.4210
    6SAPS   C22  691   0.423   3.593  10.101 -0.0567  0.0362  1.0966
    6SAPS   H2R  692   0.321   3.572  10.062 -0.2510 -0.8549  2.0569
    6SAPS   H2S  693   0.423   3.668  10.183 -2.9095  1.6474 -0.2972
    6SAPS    C3  694   0.266   3.178  10.220  0.7037  0.4795 -0.3803
    6SAPS    HX  695   0.172   3.211  10.269  0.9395 -0.7801  0.9476
    6SAPS    HY  696   0.288   3.076  10.256  0.3919  0.6886  0.4308
    6SAPS   O31  697   0.247   3.167  10.077  0.3063  0.1153 -0.8045
    6SAPS   C31  698   0.144   3.102  10.047 -0.1605 -0.3735 -0.6269
    6SAPS   O32  699   0.067   3.052  10.126  0.3114  0.3923 -0.3551
    6SAPS   C32  700   0.130   3.095   9.894  0.4234  0.2477  0.7044
    6SAPS   H2X  701   0.034   3.041   9.876  0.3457  1.0083 -1.3724
    6SAPS   H2Y  702   0.214   3.042   9.844 -0.8996  1.1045 -2.5504
    6SAPS   C23  703   0.505   3.631   9.978 -0.9229  0.1241  0.1915
    6SAPS   H3R  704   0.610   3.649  10.009 -0.7571 -1.3665  0.5287
    6SAPS   H3S  705   0.461   3.726   9.939 -1.2227 -0.2413 -0.3592
    6SAPS   C24  706   0.488   3.535   9.858  0.3889 -0.7420 -0.2238
    6SAPS   H4R  707   0.383   3.509   9.831  0.4502 -1.4263  0.1934
    6SAPS   H4S  708   0.529   3.433   9.875  0.7785 -0.2542  1.8018
    6SAPS   C25  709   0.565   3.595   9.742 -0.8449  0.4612  0.0073
    6SAPS   H5R  710   0.612   3.691   9.769  2.2561 -0.3991 -2.0449
    6SAPS   C26  711   0.572   3.554   9.615 -0.5273  0.1262 -0.6791
    6SAPS   H6R  712   0.634   3.618   9.550  1.5899  0.0323  1.1917
    6SAPS   C27  713   0.503   3.434   9.559  1.3672  0.3819 -0.2257
    6SAPS   H7R  714   0.456   3.371   9.637 -0.5174  0.5811 -1.1811
    6SAPS   H7S  715   0.574   3.366   9.506 -0.9823 -2.9454  0.7543
    6SAPS   C28  716   0.402   3.481   9.454 -0.5768 -0.5516 -0.1004
    6SAPS   H8R  717   0.320   3.540   9.499 -0.8365 -2.0372  1.4550
    6SAPS   C29  718   0.411   3.454   9.320  0.8013  0.7165  0.1094
    6SAPS   H9R  719   0.331   3.503   9.263  1.7825  1.1317 -0.9170
    6SAPS  C210  720   0.510   3.367   9.241 -0.2815  1.1539 -0.4525
    6SAPS  H10R  721   0.568   3.296   9.303 -0.2651  1.7790  0.2598
    6SAPS  H10S  722   0.579   3.434   9.185  1.7395  0.6451  1.3798
    6SAPS  C211  723   0.435   3.272   9.143  0.0731  0.5301  0.0862
    6SAPS  H11R  724   0.403   3.176   9.186 -0.3727  0.4476 -0.4253
    6SAPS  C212  725   0.426   3.283   9.007  0.3852  0.0083 -0.0144
    6SAPS  H12R  726   0.354   3.207   8.974 -2.9671  2.4288  1.5325
    6SAPS  C213  727   0.468   3.399   8.910 -0.8290 -0.0335 -0.6749
    6SAPS  H13R  728   0.570   3.433   8.937 -1.1584  0.5196 -0.1271
    6SAPS  H13S  729   0.400   3.486   8.914  0.3727  0.9634 -1.4485
    6SAPS  C214  730   0.484   3.356   8.767 -0.2755  0.0650  0.1014
    6SAPS  H14R  731   0.553   3.272   8.749  0.3171  0.5496  0.1004
    6SAPS  C215  732   0.423   3.406   8.660  0.2325 -0.5304 -0.5983
    6SAPS  H15R  733   0.458   3.377   8.560 -1.5008  0.0181 -1.3598
    6SAPS  C216  734   0.332   3.524   8.656 -0.3368 -0.8571  0.4488
    6SAPS  H16R  735   0.387   3.607   8.606  0.8031 -0.0655  2.9502
    6SAPS  H16S  736   0.316   3.567   8.757  0.0220  0.9222 -0.2220
    6SAPS  C217  737   0.194   3.502   8.586 -0.2293 -0.7359 -0.3569
    6SAPS  H17R  738   0.146   3.602   8.597  0.3845 -0.5835  1.0687
    6SAPS  H17S  739   0.134   3.431   8.647 -2.1537  0.1709 -1.1539
    6SAPS  C218  740   0.205   3.461   8.440 -0.2576 -0.6730 -0.3603
    6SAPS  H18R  741   0.102   3.431   8.409 -1.1237  0.1871  1.6141
    6SAPS  H18S  742   0.269   3.371   8.436  0.5988 -0.1148  0.5862
    6SAPS  C219  743   0.277   3.556   8.342 -0.4450  0.0908 -0.6585
    6SAPS  H19R  744   0.293   3.502   8.246 -1.8770  1.8960 -1.9478
    6SAPS  H19S  745   0.376   3.578   8.386  1.4701 -4.2576 -2.3845
    6SAPS  C220  746   0.190   3.679   8.318 -0.0301 -0.5546  0.1774
    6SAPS  H20R  747   0.088   3.658   8.280 -0.1480 -1.6290  1.0981
    6SAPS  H20S  748   0.225   3.750   8.239  0.7901 -0.8942  0.2312
    6SAPS  H20T  749   0.171   3.727   8.416  0.8035 -3.6771  1.9138
    6SAPS   C33  750   0.122   3.235   9.838  0.4723 -0.1244  0.2250
    6SAPS   H3X  751   0.225   3.271   9.857 -0.2212  0.6802  2.6355
    6SAPS   H3Y  752   0.061   3.311   9.891  1.1079 -0.3831  1.3513
    6SAPS   C34  753   0.102   3.244   9.688  0.3741  0.2690  0.2037
    6SAPS   H4X  754   0.135   3.148   9.643 -3.0162 -1.3759  1.0873
    6SAPS   H4Y  755   0.170   3.321   9.647 -0.4305 -0.1724 -2.0152
    6SAPS   C35  756  -0.042   3.290   9.646  0.2016  0.0928  0.0564
    6SAPS   H5X  757  -0.058   3.399   9.661 -0.6458 -0.2518  1.9228
    6SAPS   H5Y  758  -0.112   3.241   9.718  0.9012  1.9766  2.1029
    6SAPS   C36  759  -0.078   3.261   9.502  0.2662 -0.0187  0.0026
    6SAPS   H6X  760  -0.183   3.267   9.467 -0.2101  1.3632  1.6350
    6SAPS   H6Y  761  -0.061   3.152   9.490 -0.3531 -0.2628  1.3204
    6SAPS   C37  762   0.016   3.326   9.398 -0.1892  0.5545  0.6898
    6SAPS   H7X  763   0.117   3.282   9.411  0.6160  2.1127 -0.0812
    6SAPS   H7Y  764   0.022   3.432   9.432 -1.5349  1.1326 -0.8186
    6SAPS   C38  765  -0.034   3.326   9.258  0.0163  0.0901 -0.0144
    6SAPS   H8X  766   0.023   3.398   9.195 -0.1618 -0.3481 -0.6803
    6SAPS   H8Y  767  -0.140   3.357   9.246  0.6691  2.5186  0.0704
    6SAPS   C39  768   0.005   3.199   9.186  0.4005  0.5291  0.2616
    6SAPS   H9X  769  -0.046   3.117   9.240 -1.4929  1.2925 -0.3503
    6SAPS   H9Y  770   0.115   3.186   9.178  0.1926 -0.7696 -0.4914
    6SAPS  C310  771  -0.052   3.189   9.042 -0.9501 -0.8421  0.0479
    6SAPS  H10X  772  -0.004   3.262   8.973 -2.4984 -0.5509 -0.7375
    6SAPS  H10Y  773  -0.160   3.212   9.039 -1.0239 -1.2349 -0.4349
    6SAPS  C311  774  -0.054   3.049   8.988 -0.5185 -0.1609 -0.9457
    6SAPS  H11X  775  -0.109   2.983   9.058  1.9553 -0.3337  0.9255
    6SAPS  H11Y  776   0.052   3.015   8.988 -0.6429 -0.6363  1.3438
    6SAPS  C312  777  -0.108   3.052   8.843  0.2836  0.1067 -0.5566
    6SAPS  H12X  778  -0.183   3.134   8.849  1.3468  1.0127  0.5358
    6SAPS  H12Y  779  -0.158   2.959   8.810  1.7226 -0.5082 -1.0325
    6SAPS  C313  780  -0.006   3.085   8.737 -0.4788 -0.0976 -0.1032
    6SAPS  H13X  781   0.063   3.000   8.717  0.3394  0.3199  0.8978
    6SAPS  H13Y  782   0.066   3.163   8.769  3.1568 -2.9585 -0.9021
    6SAPS  C314  783  -0.075   3.103   8.605 -0.0909 -0.8800  0.1681
    6SAPS  H14X  784  -0.136   3.196   8.601 -0.0493 -0.7055  2.4680
    6SAPS  H14Y  785  -0.132   3.009   8.590 -1.9616  0.2803 -0.1324
    6SAPS  C315  786   0.017   3.108   8.488  0.1361  0.1023  0.6799
    6SAPS  H15X  787   0.085   3.021   8.476  2.0715  1.5259  1.1509
    6SAPS  H15Y  788   0.085   3.195   8.502  3.6044 -2.6419  1.6726
    6SAPS  C316  789  -0.062   3.144   8.363 -0.6755 -0.0589 -0.1268
    6SAPS  H16X  790  -0.125   3.236   8.372 -0.4103  0.4629 -3.0464
    6SAPS  H16Y  791  -0.138   3.065   8.344 -1.7600  0.9229  0.0539
    6SAPS  C317  792   0.018   3.153   8.240 -0.2385  1.0384 -0.9761
    6SAPS  H17X  793   0.074   3.057   8.233 -1.3932  0.3327 -0.6619
    6SAPS  H17Y  794   0.101   3.226   8.253 -0.3955  0.8718  1.1446
    6SAPS  C318  795  -0.073   3.165   8.118 -0.5529  0.4370 -0.3252
    6SAPS  H18X  796  -0.124   3.263   8.129 -0.7837  0.1110  1.6541
    6SAPS  H18Y  797  -0.150   3.085   8.120 -1.5648  1.4289  2.9198
    6SAPS  H18Z  798  -0.010   3.173   8.026  0.4398  3.3991  0.5446
    7SAPS     N  799   2.528   4.693  10.659  0.5063  0.1892  0.1191
    7SAPS   HN1  800   2.608   4.629  10.675  1.3253  1.2685  0.4158
    7SAPS   HN2  801   2.463   4.658  10.586 -0.1958 -0.7913  1.1990
    7SAPS   HN3  802   2.572   4.776  10.614 -3.2668  2.8451  0.9956
    7SAPS   C12  803   2.462   4.737  10.787  0.0303  0.6899 -0.0919
    7SAPS  H12A  804   2.379   4.672  10.806  0.5740  0.6294  2.2338
    7SAPS   C13  805   2.558   4.725  10.904 -0.4902 -0.2881  0.3414
    7SAPS  O13A  806   2.671   4.673  10.882  0.1070  0.2081  0.8444
    7SAPS  O13B  807   2.513   4.744  11.020 -1.0555  0.1422  0.6134
    7SAPS   C11  808   2.416   4.880  10.768  0.1184  0.1641 -0.8577
    7SAPS  H11A  809   2.512   4.933  10.752  0.4873  0.7056  2.6792
    7SAPS  H11B  810   2.384   4.914  10.869  0.8204 -2.0480  0.1288
    7SAPS     P  811   2.171   4.865  10.664 -0.6569  0.1926  0.3115
    7SAPS   O13  812   2.142   4.747  10.750 -0.1146  0.1329  0.2103
    7SAPS   O14  813   2.099   4.984  10.693  0.2712  0.6038  0.0602
    7SAPS   O12  814   2.327   4.906  10.662  0.1266  0.1592  0.2974
    7SAPS   O11  815   2.146   4.820  10.514 -0.1052  0.2379 -0.0852
    7SAPS    C1  816   2.215   4.839  10.392 -0.0433  0.0151 -0.3577
    7SAPS    HA  817   2.325   4.828  10.403  0.1065  0.4434 -1.3852
    7SAPS    HB  818   2.182   4.772  10.309  1.5843  2.2538 -2.8925
    7SAPS    C2  819   2.198   4.986  10.334 -0.5336 -0.3664  0.0382
    7SAPS    HS  820   2.176   5.050  10.423 -1.5088  1.2322 -1.3297
    7SAPS   O21  821   2.092   5.003  10.244  0.2122 -0.6028 -0.1991
    7SAPS   C21  822   2.077   5.128  10.207  0.1326  0.5526  0.5827
    7SAPS   O22  823   2.125   5.228  10.252  0.1494  0.0267  0.2374
    7SAPS   C22  824   1.988   5.123  10.083 -1.1562 -0.0349 -0.1389
    7SAPS   H2R  825   1.898   5.069  10.120  0.1690 -1.6012  0.8690
    7SAPS   H2S  826   1.953   5.225  10.054 -0.1405  0.4839  0.4197
    7SAPS    C3  827   2.337   5.025  10.264  0.1254  0.0929 -0.6412
    7SAPS    HX  828   2.423   5.009  10.333 -0.6965  2.2599  0.9510
    7SAPS    HY  829   2.338   5.132  10.237 -2.0150 -0.2450 -2.1718
    7SAPS   O31  830   2.358   4.947  10.149 -0.6112 -0.4082  0.5011
    7SAPS   C31  831   2.481   4.952  10.105 -0.4458  0.6151 -0.1961
    7SAPS   O32  832   2.581   5.003  10.156 -0.2051  0.1576 -0.3870
    7SAPS   C32  833   2.495   4.883   9.968  0.3790 -0.2999  0.5983
    7SAPS   H2X  834   2.392   4.861   9.932  0.5275  0.6056 -0.4126
    7SAPS   H2Y  835   2.546   4.784   9.967 -1.3921 -1.2487  1.3751
    7SAPS   C23  836   2.046   5.047   9.962 -0.1224  1.0752 -0.7140
    7SAPS   H3R  837   1.968   5.045   9.882 -1.9670 -1.8885  1.0368
    7SAPS   H3S  838   2.081   4.944   9.986  2.3515  1.4286 -2.6111
    7SAPS   C24  839   2.178   5.116   9.902 -0.0716  0.3396 -0.0249
    7SAPS   H4R  840   2.218   5.054   9.820 -4.4393 -2.0902 -0.4996
    7SAPS   H4S  841   2.260   5.111   9.977  1.3716 -3.9787 -1.7582
    7SAPS   C25  842   2.152   5.253   9.842  0.3055  0.0053 -0.6060
    7SAPS   H5R  843   2.139   5.328   9.922 -1.3368 -1.9316  0.9736
    7SAPS   C26  844   2.147   5.288   9.713 -0.2019 -0.4745  0.2419
    7SAPS   H6R  845   2.119   5.393   9.692 -0.6128 -0.8308 -1.0413
    7SAPS   C27  846   2.159   5.195   9.601 -0.3240  0.1039  0.1044
    7SAPS   H7R  847   2.092   5.228   9.519 -1.1117  0.7073  0.9740
    7SAPS   H7S  848   2.114   5.097   9.629  1.3938 -0.5644  0.6215
    7SAPS   C28  849   2.306   5.183   9.556  0.0171  0.7581  0.1880
    7SAPS   H8R  850   2.382   5.181   9.636  0.3327 -1.5911 -0.1293
    7SAPS   C29  851   2.353   5.160   9.432  0.3203  0.1604 -0.2195
    7SAPS   H9R  852   2.462   5.169   9.422  0.5652 -0.3832  1.8185
    7SAPS  C210  853   2.281   5.152   9.301  0.3118  0.3950 -0.2681
    7SAPS  H10R  854   2.176   5.135   9.332  1.1552  1.8228  3.6851
    7SAPS  H10S  855   2.300   5.058   9.244 -0.9285 -0.4753  0.7302
    7SAPS  C211  856   2.299   5.280   9.224  0.8160 -0.2304  0.1422
    7SAPS  H11R  857   2.248   5.367   9.267  0.7683  0.1982 -0.7644
    7SAPS  C212  858   2.352   5.293   9.109 -1.1132  0.1626 -0.5725
    7SAPS  H12R  859   2.373   5.392   9.066  0.2873  0.3558  0.5056
    7SAPS  C213  860   2.407   5.186   9.021 -0.6235  0.0356  0.1739
    7SAPS  H13R  861   2.482   5.120   9.071  0.7938  0.3833 -1.4393
    7SAPS  H13S  862   2.470   5.243   8.949  0.3676 -1.3548 -0.0827
    7SAPS  C214  863   2.304   5.110   8.942  0.4090 -0.3352  0.2360
    7SAPS  H14R  864   2.265   5.019   8.991  0.0097  0.6710  1.8228
    7SAPS  C215  865   2.242   5.143   8.827  0.0041 -0.0095  0.4301
    7SAPS  H15R  866   2.171   5.074   8.779  0.3724 -2.0410  2.7376
    7SAPS  C216  867   2.264   5.261   8.742 -0.6790  0.6854 -0.3423
    7SAPS  H16R  868   2.290   5.228   8.639  0.8148  1.1612 -0.1351
    7SAPS  H16S  869   2.350   5.318   8.785  0.0838  0.5354 -1.6331
    7SAPS  C217  870   2.146   5.366   8.752  0.0445 -0.1999 -0.3167
    7SAPS  H17R  871   2.192   5.464   8.729 -0.4668 -0.2125 -1.4490
    7SAPS  H17S  872   2.108   5.372   8.856 -0.1206  2.0867 -0.4910
    7SAPS  C218  873   2.028   5.332   8.662 -0.2106  0.1370 -0.1822
    7SAPS  H18R  874   1.961   5.262   8.716  0.8398  0.6540  1.8602
    7SAPS  H18S  875   2.078   5.284   8.575 -0.9726 -3.9439  1.5263
    7SAPS  C219  876   1.949   5.457   8.633 -0.1154  0.7573 -0.0845
    7SAPS  H19R  877   1.970   5.535   8.709  1.9138 -0.9671  1.1895
    7SAPS  H19S  878   1.843   5.429   8.654 -0.3867  2.2173  0.5614
    7SAPS  C220  879   1.962   5.504   8.492  0.1555  0.0150 -0.3294
    7SAPS  H20R  880   1.949   5.415   8.428  3.2781 -1.5175  1.0412
    7SAPS  H20S  881   2.068   5.538   8.489 -0.2151  1.1556 -0.5627
    7SAPS  H20T  882   1.888   5.584   8.470  1.3297  1.2221  0.0484
    7SAPS   C33  883   2.574   4.987   9.873  0.1414  0.4659 -0.0762
    7SAPS   H3X  884   2.664   5.009   9.934 -0.6594  2.9294  0.2751
    7SAPS   H3Y  885   2.505   5.074   9.863  0.2833  0.6301  0.3705
    7SAPS   C34  886   2.609   4.917   9.736  0.2277 -0.0244 -0.0082
    7SAPS   H4X  887   2.514   4.890   9.686  0.6766 -1.9315  0.1520
    7SAPS   H4Y  888   2.655   4.820   9.762 -2.0751 -0.9027  0.8750
    7SAPS   C35  889   2.702   4.998   9.648 -0.4498 -0.7233 -0.1765
    7SAPS   H5X  890   2.807   4.980   9.679  0.4762  1.7817 -1.6882
    7SAPS   H5Y  891   2.676   5.106   9.657  0.0007 -0.6727  0.5659
    7SAPS   C36  892   2.700   4.956   9.507 -0.1368 -0.2427 -0.6542
    7SAPS   H6X  893   2.602   4.962   9.454 -0.6024 -0.5358  0.1495
    7SAPS   H6Y  894   2.726   4.848   9.510  3.7250  0.6318  0.0440
    7SAPS   C37  895   2.807   5.013   9.419 -0.3336 -0.2790 -0.5090
    7SAPS   H7X  896   2.823   4.963   9.321 -2.6108  0.5981 -1.3728
    7SAPS   H7Y  897   2.901   4.998   9.475 -0.0772 -1.0258 -1.1219
    7SAPS   C38  898   2.773   5.158   9.385  0.2569 -0.6942  0.4262
    7SAPS   H8X  899   2.796   5.213   9.479 -1.6740 -0.9391  1.0645
    7SAPS   H8Y  900   2.666   5.159   9.355  0.5023  1.2582 -0.4486
    7SAPS   C39  901   2.864   5.212   9.277  0.8805  0.2355 -0.0514
    7SAPS   H9X  902   2.971   5.194   9.303 -0.0629 -1.4489  2.8962
    7SAPS   H9Y  903   2.876   5.322   9.264 -0.4818  0.5202  1.0118
    7SAPS  C310  904   2.844   5.147   9.140  0.3486 -0.5254  0.6724
    7SAPS  H10X  905   2.739   5.160   9.106  0.5007 -0.9514  0.0226
    7SAPS  H10Y  906   2.856   5.037   9.155  1.8232 -0.8036 -2.1410
    7SAPS  C311  907   2.934   5.191   9.017  0.2864 -0.1735  0.6393
    7SAPS  H11X  908   2.905   5.119   8.937 -3.3602  0.3900  1.3814
    7SAPS  H11Y  909   3.040   5.169   9.041  0.2277  2.6279  3.8788
    7SAPS  C312  910   2.923   5.343   8.984  0.2886  0.2596 -0.6460
    7SAPS  H12X  911   2.997   5.396   9.048 -0.4879  0.2536  0.2623
    7SAPS  H12Y  912   2.827   5.390   9.013 -0.1280 -0.5922 -0.6282
    7SAPS  C313  913   2.951   5.374   8.840  0.5379 -0.2008  0.1722
    7SAPS  H13X  914   2.881   5.322   8.770  0.2569 -0.1815  0.4369
    7SAPS  H13Y  915   3.052   5.345   8.805  0.6091 -1.5719  1.4492
    7SAPS  C314  916   2.934   5.526   8.802 -0.4373 -0.7193  0.5515
    7SAPS  H14X  917   2.843   5.555   8.858 -0.6417  1.3755 -0.8189
    7SAPS  H14Y  918   2.922   5.525   8.692 -3.7224 -0.6210  0.8555
    7SAPS  C315  919   3.052   5.623   8.837  0.2648  0.3060 -0.1243
    7SAPS  H15X  920   3.117   5.571   8.911 -0.1282  1.7339  1.2417
    7SAPS  H15Y  921   3.019   5.705   8.904  0.6418  0.9236 -0.6946
    7SAPS  C316  922   3.132   5.671   8.713  0.1345  0.3143  0.2024
    7SAPS  H16X  923   3.061   5.714   8.640  1.1707  0.1722 -0.9175
    7SAPS  H16Y  924   3.169   5.576   8.669  1.2734 -0.6874  3.1600
    7SAPS  C317  925   3.236   5.772   8.743 -0.1027  0.2986  0.1578
    7SAPS  H17X  926   3.295   5.742   8.832  1.4141  1.3908 -0.4554
    7SAPS  H17Y  927   3.182   5.867   8.765  0.3990  0.2143  1.8752
    7SAPS  C318  928   3.340   5.788   8.641 -0.2256 -0.0304 -0.2824
    7SAPS  H18X  929   3.379   5.687   8.615 -0.5899 -0.3045  0.2202
    7SAPS  H18Y  930   3.425   5.848   8.679  1.7932 -2.1527 -1.2828
    7SAPS  H18Z  931   3.315   5.837   8.545  1.6100  1.9652  0.2102
    8SAPS     N  932   6.488   6.159  11.016  0.4048 -0.1424 -0.0622
    8SAPS   HN1  933   6.547   6.090  10.965 -1.2817 -2.8724  1.6282
    8SAPS   HN2  934   6.387   6.148  10.992  0.2188  1.4468 -0.0588
    8SAPS   HN3  935   6.516   6.253  10.979 -1.3507  0.2243 -0.5216
    8SAPS   C12  936   6.520   6.159  11.162  0.0219 -0.6305 -0.2699
    8SAPS  H12A  937   6.626   6.173  11.177 -0.1307  1.0550 -0.5704
    8SAPS   C13  938   6.462   6.288  11.226 -0.2222 -0.0228  0.0602
    8SAPS  O13A  939   6.379   6.349  11.162  0.5552 -0.1475 -0.5435
    8SAPS  O13B  940   6.491   6.316  11.349  0.5798  0.2230  0.3511
    8SAPS   C11  941   6.463   6.027  11.232  0.2304 -0.7750 -0.3682
    8SAPS  H11A  942   6.357   6.031  11.202  0.5252  2.7255 -1.1996
    8SAPS  H11B  943   6.477   6.038  11.342 -1.3266 -0.5301 -0.1914
    8SAPS     P  944   6.560   5.788  11.272  0.0715 -0.1031 -0.2556
    8SAPS   O13  945   6.679   5.825  11.350 -0.3698 -0.0166 -0.4892
    8SAPS   O14  946   6.439   5.740  11.344  0.2343 -0.9110 -0.1398
    8SAPS   O12  947   6.524   5.911  11.180  0.7066  0.3465  0.2457
    8SAPS   O11  948   6.597   5.685  11.161 -0.4993  0.0776  0.2974
    8SAPS    C1  949   6.728   5.689  11.101 -0.0512  0.1157  0.3747
    8SAPS    HA  950   6.812   5.701  11.172 -0.7937  0.3619  1.2288
    8SAPS    HB  951   6.733   5.585  11.061 -0.5818  0.2374 -0.0306
    8SAPS    C2  952   6.743   5.791  10.987 -0.3732 -0.4198  0.1253
    8SAPS    HS  953   6.718   5.893  11.024  1.9441  0.6051 -1.0497
    8SAPS   O21  954   6.649   5.762  10.881 -0.3258 -0.2877 -0.3226
    8SAPS   C21  955   6.576   5.857  10.836 -0.8116  0.8083  0.3155
    8SAPS   O22  956   6.581   5.976  10.864  0.4848 -0.1831 -0.1413
    8SAPS   C22  957   6.485   5.795  10.731  0.2406  0.9357  0.0317
    8SAPS   H2R  958   6.557   5.763  10.654  0.2593 -0.2838  0.5365
    8SAPS   H2S  959   6.433   5.710  10.781  2.5649  0.5020  1.8169
    8SAPS    C3  960   6.883   5.789  10.930  0.0566 -0.4993 -0.2695
    8SAPS    HX  961   6.913   5.687  10.898 -0.5217 -0.5776 -0.5690
    8SAPS    HY  962   6.938   5.818  11.022 -1.6409 -0.7103  0.8394
    8SAPS   O31  963   6.891   5.883  10.823  0.3909  0.8676 -0.1577
    8SAPS   C31  964   6.909   5.839  10.699  0.3396 -0.1755 -0.6043
    8SAPS   O32  965   6.908   5.726  10.668 -0.2015  0.0650 -0.0536
    8SAPS   C32  966   6.921   5.958  10.599  0.2799 -0.0825 -0.2276
    8SAPS   H2X  967   6.997   5.930  10.523  0.8786 -0.7836  0.6191
    8SAPS   H2Y  968   6.958   6.048  10.651  0.2659  0.8658 -1.8355
    8SAPS   C23  969   6.382   5.906  10.679  0.2251  0.1578 -0.0645
    8SAPS   H3R  970   6.450   5.989  10.650  1.2689 -0.1153  1.5759
    8SAPS   H3S  971   6.321   5.928  10.769  0.1259 -0.3949  0.0044
    8SAPS   C24  972   6.289   5.847  10.569  0.1107  0.3043 -0.5559
    8SAPS   H4R  973   6.349   5.811  10.483  1.1262  1.3934 -0.3265
    8SAPS   H4S  974   6.228   5.930  10.526 -0.8079 -0.9078 -1.6217
    8SAPS   C25  975   6.203   5.739  10.628  0.6304 -1.1654 -0.5064
    8SAPS   H5R  976   6.158   5.774  10.721  1.3677 -3.0030  0.5792
    8SAPS   C26  977   6.191   5.607  10.590 -1.1295 -0.5035 -0.5504
    8SAPS   H6R  978   6.126   5.535  10.642 -0.4992 -0.5329  0.2049
    8SAPS   C27  979   6.257   5.551  10.469 -0.0169  0.3311 -0.5398
    8SAPS   H7R  980   6.365   5.576  10.460  0.6767 -1.5669  1.7147
    8SAPS   H7S  981   6.200   5.590  10.382  0.0896  1.8499  0.0651
    8SAPS   C28  982   6.249   5.400  10.461  0.3410  0.5975  0.8555
    8SAPS   H8R  983   6.201   5.346  10.544  0.5378 -1.5533 -0.3949
    8SAPS   C29  984   6.291   5.334  10.347 -0.4660 -0.3372  0.5743
    8SAPS   H9R  985   6.293   5.224  10.351  2.6620 -0.3174  0.4028
    8SAPS  C210  986   6.340   5.392  10.215 -0.5815  0.4922  0.2615
    8SAPS  H10R  987   6.451   5.379  10.214 -0.4689  1.4152 -1.0010
    8SAPS  H10S  988   6.327   5.502  10.215 -0.5716  0.5101 -1.0069
    8SAPS  C211  989   6.270   5.339  10.087 -0.9464 -0.6310 -0.7063
    8SAPS  H11R  990   6.163   5.359  10.098 -0.7428  0.0786  0.1084
    8SAPS  C212  991   6.331   5.268   9.988 -0.0548  0.7345 -0.3182
    8SAPS  H12R  992   6.273   5.238   9.900  0.7512 -4.0696  0.6115
    8SAPS  C213  993   6.480   5.237   9.972 -0.1005  0.7792  0.1815
    8SAPS  H13R  994   6.492   5.158   9.895 -0.1659  0.6010  0.3522
    8SAPS  H13S  995   6.514   5.188  10.066 -1.8230  0.3061  0.5811
    8SAPS  C214  996   6.564   5.359   9.940 -0.2792  0.1420 -0.3016
    8SAPS  H14R  997   6.514   5.454   9.967  0.5092 -0.0522  1.9476
    8SAPS  C215  998   6.699   5.349   9.905 -0.2103 -0.1297 -0.1658
    8SAPS  H15R  999   6.763   5.437   9.897 -0.3336 -0.0066  0.1740
    8SAPS  C216 1000   6.789   5.222   9.896 -0.2867  0.2342  0.1960
    8SAPS  H16R 1001   6.744   5.137   9.951 -0.7889  0.4692  0.1438
    8SAPS  H16S 1002   6.884   5.247   9.950  0.5942 -0.8176 -0.8507
    8SAPS  C217 1003   6.812   5.183   9.748  0.5869  0.5872 -0.1316
    8SAPS  H17R 1004   6.720   5.142   9.701  0.0556  0.9422  0.5934
    8SAPS  H17S 1005   6.886   5.100   9.746  0.0270  0.0682  0.1639
    8SAPS  C218 1006   6.886   5.291   9.669  0.2494  0.1310  0.0047
    8SAPS  H18R 1007   6.946   5.340   9.749 -1.7514  0.0205  1.6127
    8SAPS  H18S 1008   6.833   5.380   9.630  0.4205  0.1042 -0.2953
    8SAPS  C219 1009   6.989   5.227   9.569 -0.2789  1.2083 -0.0060
    8SAPS  H19R 1010   6.936   5.173   9.488 -0.0196  0.6889  0.1698
    8SAPS  H19S 1011   7.047   5.163   9.638 -2.3168  0.4688  1.0251
    8SAPS  C220 1012   7.086   5.329   9.512  0.1745  0.7523 -0.0335
    8SAPS  H20R 1013   7.154   5.363   9.592 -0.3858  0.4898  0.5673
    8SAPS  H20S 1014   7.028   5.414   9.472 -0.5237  0.4278  0.2679
    8SAPS  H20T 1015   7.141   5.290   9.424 -0.2610  0.6165 -0.2476
    8SAPS   C33 1016   6.779   6.005  10.539 -0.9049  0.0266 -0.4541
    8SAPS   H3X 1017   6.699   6.024  10.613 -0.4115  0.4303 -0.0256
    8SAPS   H3Y 1018   6.755   5.931  10.459  3.7635 -1.8825 -0.2392
    8SAPS   C34 1019   6.814   6.130  10.449 -0.0183 -0.3542  0.2770
    8SAPS   H4X 1020   6.876   6.195  10.516 -1.9209  1.5831  0.2188
    8SAPS   H4Y 1021   6.727   6.192  10.419  0.1813  0.5985  1.6144
    8SAPS   C35 1022   6.892   6.097  10.316  0.3807  0.3375 -0.4940
    8SAPS   H5X 1023   6.826   6.028  10.259 -2.6807  1.3237  1.6597
    8SAPS   H5Y 1024   6.990   6.052  10.341 -0.8724 -1.9381  0.4486
    8SAPS   C36 1025   6.926   6.212  10.214 -0.3848  0.5067 -0.7997
    8SAPS   H6X 1026   6.996   6.286  10.260 -3.5676  1.6559  2.4029
    8SAPS   H6Y 1027   6.833   6.260  10.179  0.5895  2.4198 -0.8451
    8SAPS   C37 1028   7.002   6.143  10.100  0.2154  0.0418  0.2000
    8SAPS   H7X 1029   6.926   6.066  10.076  0.3897 -0.6967  1.9688
    8SAPS   H7Y 1030   7.092   6.097  10.146 -0.8217 -0.2040  1.9834
    8SAPS   C38 1031   7.021   6.243   9.987  0.6853 -0.1959  0.7260
    8SAPS   H8X 1032   7.079   6.195   9.905 -1.3779 -2.0832  0.3278
    8SAPS   H8Y 1033   7.088   6.323  10.024  0.7022  1.2426 -2.2842
    8SAPS   C39 1034   6.889   6.301   9.930 -0.3255 -1.1020  1.0374
    8SAPS   H9X 1035   6.849   6.389   9.984  1.1487  1.9009 -2.5182
    8SAPS   H9Y 1036   6.815   6.218   9.926  2.3859 -3.6569  1.9106
    8SAPS  C310 1037   6.907   6.338   9.781 -0.3505  1.0576  0.1307
    8SAPS  H10X 1038   7.012   6.373   9.767  0.5603 -1.9278 -1.0443
    8SAPS  H10Y 1039   6.828   6.404   9.741 -1.5691 -0.1998  0.4271
    8SAPS  C311 1040   6.907   6.213   9.694  0.1391 -0.0587 -0.6776
    8SAPS  H11X 1041   6.805   6.170   9.704  0.8336 -1.3157  1.2940
    8SAPS  H11Y 1042   6.980   6.139   9.733  1.1539  0.4022 -1.6591
    8SAPS  C312 1043   6.936   6.230   9.544 -0.8723 -0.6659 -0.1314
    8SAPS  H12X 1044   7.041   6.260   9.520 -1.0959 -0.3618 -0.7414
    8SAPS  H12Y 1045   6.869   6.306   9.497  0.1289  0.5525  0.3638
    8SAPS  C313 1046   6.915   6.097   9.461  0.0924  0.4803 -0.1000
    8SAPS  H13X 1047   6.806   6.081   9.449 -0.0523  0.2154  1.3885
    8SAPS  H13Y 1048   6.956   6.016   9.527 -0.0949  0.3838 -0.1008
    8SAPS  C314 1049   6.991   6.099   9.324 -0.2354  0.2069  0.7755
    8SAPS  H14X 1050   7.102   6.100   9.330  0.0139 -1.1512 -2.7581
    8SAPS  H14Y 1051   6.943   6.187   9.278  0.5535 -0.3945 -1.2474
    8SAPS  C315 1052   6.962   5.973   9.240  0.5364  0.4935  0.5468
    8SAPS  H15X 1053   6.853   5.971   9.216  0.5259 -1.0485  0.6727
    8SAPS  H15Y 1054   6.987   5.893   9.312  2.3119  2.2891  2.0020
    8SAPS  C316 1055   7.037   5.993   9.105  0.4424 -0.8972  0.5700
    8SAPS  H16X 1056   7.145   5.981   9.126  0.5824 -2.5715 -1.0236
    8SAPS  H16Y 1057   7.015   6.090   9.055 -0.0919 -1.2653  0.0771
    8SAPS  C317 1058   6.994   5.898   8.998 -0.7093  0.7733  0.0372
    8SAPS  H17X 1059   6.884   5.882   9.001 -0.3490 -2.8283 -2.2593
    8SAPS  H17Y 1060   7.040   5.800   9.022  1.2962  2.0943  1.7585
    8SAPS  C318 1061   7.034   5.952   8.864 -0.5088 -0.8760  0.4361
    8SAPS  H18X 1062   7.012   5.873   8.789 -0.9394  0.3875 -0.8033
    8SAPS  H18Y 1063   7.145   5.962   8.861 -0.3932 -2.3124 -0.4827
    8SAPS  H18Z 1064   6.982   6.048   8.840 -1.7860 -0.4070  4.7597
    9SAPS     N 1065   2.978   1.836   6.282  0.2406  1.1865  0.5192
    9SAPS   HN1 1066   2.969   1.780   6.369  1.5603  1.5056  0.8645
    9SAPS   HN2 1067   2.918   1.919   6.299  1.2904  2.2966 -1.1169
    9SAPS   HN3 1068   2.939   1.785   6.200  2.7500 -1.5324  0.9325
    9SAPS   C12 1069   3.120   1.884   6.276 -0.0421 -1.0368  0.4553
    9SAPS  H12A 1070   3.175   1.808   6.330  2.4157  0.6414  0.3891
    9SAPS   C13 1071   3.184   1.911   6.140  0.0366 -0.7564 -0.4538
    9SAPS  O13A 1072   3.124   1.859   6.042 -0.2066 -0.0018 -0.3370
    9SAPS  O13B 1073   3.304   1.952   6.129 -0.1217 -0.3374  0.5658
    9SAPS   C11 1074   3.137   2.008   6.370 -0.6858 -0.3405  0.0504
    9SAPS  H11A 1075   3.245   2.031   6.362 -0.6380 -0.5285  0.1468
    9SAPS  H11B 1076   3.119   1.975   6.475 -0.7247  0.8452  0.4170
    9SAPS     P 1077   3.096   2.261   6.373 -0.0601  0.0478  0.1511
    9SAPS   O13 1078   3.218   2.291   6.303  0.5335  0.0723  0.2439
    9SAPS   O14 1079   2.980   2.353   6.356 -0.4629  0.1861 -0.2632
    9SAPS   O12 1080   3.052   2.116   6.329 -0.2993 -0.4599 -0.4908
    9SAPS   O11 1081   3.114   2.229   6.524  0.6271  0.1168 -0.0184
    9SAPS    C1 1082   2.996   2.206   6.606 -0.0769 -0.3449 -0.2275
    9SAPS    HA 1083   2.905   2.255   6.565  1.9500  2.3613 -1.6698
    9SAPS    HB 1084   2.969   2.098   6.611 -1.3680  0.0175  1.0029
    9SAPS    C2 1085   3.015   2.243   6.755  0.4001 -0.7584  0.4804
    9SAPS    HS 1086   3.032   2.353   6.761 -1.3086 -0.5177  1.2368
    9SAPS   O21 1087   3.122   2.161   6.801 -0.0725 -0.2465 -0.6335
    9SAPS   C21 1088   3.241   2.213   6.780  0.0728 -0.1884  0.2886
    9SAPS   O22 1089   3.271   2.327   6.736 -0.1470 -0.4485  0.0110
    9SAPS   C22 1090   3.344   2.111   6.831 -0.8465 -0.2031  0.1346
    9SAPS   H2R 1091   3.289   2.017   6.812  1.6919 -1.9607  1.2443
    9SAPS   H2S 1092   3.438   2.128   6.774  0.0842 -0.5519  1.5697
    9SAPS    C3 1093   2.880   2.223   6.835  0.5982  0.3543 -0.1690
    9SAPS    HX 1094   2.857   2.115   6.824  3.4007 -0.2222 -0.7632
    9SAPS    HY 1095   2.801   2.291   6.797  2.0514  0.4290 -3.1683
    9SAPS   O31 1096   2.895   2.254   6.975 -1.0043  0.3182  0.4105
    9SAPS   C31 1097   2.823   2.350   7.036  1.1356  0.2062  0.4050
    9SAPS   O32 1098   2.744   2.424   6.980 -0.1157  0.5910 -0.2480
    9SAPS   C32 1099   2.858   2.365   7.183  0.5232 -0.6867  0.1294
    9SAPS   H2X 1100   2.937   2.442   7.196 -1.1904  1.1358 -0.0756
    9SAPS   H2Y 1101   2.893   2.267   7.224  0.6890 -1.4032 -1.6568
    9SAPS   C23 1102   3.386   2.146   6.983 -0.7289  0.7847  0.7035
    9SAPS   H3R 1103   3.441   2.242   6.984  0.1710  0.3048 -1.0538
    9SAPS   H3S 1104   3.463   2.068   7.002 -0.4957  0.3054 -2.0904
    9SAPS   C24 1105   3.287   2.149   7.093 -0.7854  0.2076  0.7247
    9SAPS   H4R 1106   3.230   2.055   7.109  0.2996 -0.3507  1.4434
    9SAPS   H4S 1107   3.212   2.224   7.060  1.0335  1.5594 -0.4644
    9SAPS   C25 1108   3.353   2.184   7.224 -0.0655 -0.2716 -0.2561
    9SAPS   H5R 1109   3.463   2.187   7.227  0.0840 -3.5248 -0.6269
    9SAPS   C26 1110   3.291   2.198   7.342 -0.2896  0.7878 -0.3364
    9SAPS   H6R 1111   3.353   2.214   7.431  0.3768  0.8840 -0.8127
    9SAPS   C27 1112   3.142   2.191   7.366  0.0835  0.3021  0.0885
    9SAPS   H7R 1113   3.091   2.180   7.268  0.2984 -1.5263  0.1563
    9SAPS   H7S 1114   3.109   2.290   7.405 -0.3828  0.8514 -1.6558
    9SAPS   C28 1115   3.114   2.075   7.461  0.0553  0.2072  0.3900
    9SAPS   H8R 1116   3.148   1.979   7.420  0.0082 -1.4887  4.0731
    9SAPS   C29 1117   3.093   2.078   7.593 -0.1717 -0.2952 -0.2305
    9SAPS   H9R 1118   3.066   1.986   7.647 -1.1211  0.9458  1.4628
    9SAPS  C210 1119   3.075   2.203   7.681  0.0214 -0.4641  0.4349
    9SAPS  H10R 1120   3.040   2.287   7.618 -0.0240 -1.1631 -0.4744
    9SAPS  H10S 1121   3.164   2.226   7.744  0.6290  0.1600 -0.6414
    9SAPS  C211 1122   2.958   2.180   7.773  0.2982 -0.1287 -0.0773
    9SAPS  H11R 1123   2.874   2.120   7.736 -0.3885 -0.3695  1.7998
    9SAPS  C212 1124   2.945   2.213   7.901  0.1432  0.0696 -0.1515
    9SAPS  H12R 1125   2.857   2.178   7.958  0.1617  1.7187  0.9202
    9SAPS  C213 1126   3.050   2.286   7.986 -0.2305 -0.5939 -0.0909
    9SAPS  H13R 1127   3.130   2.329   7.922 -1.3081 -0.9792 -1.7174
    9SAPS  H13S 1128   3.111   2.219   8.051  2.2387  2.3714  0.7511
    9SAPS  C214 1129   2.992   2.400   8.065  0.2897 -0.3860  0.1609
    9SAPS  H14R 1130   2.946   2.471   7.995  0.0326 -1.0712 -0.3710
    9SAPS  C215 1131   2.985   2.418   8.200  0.0249 -0.6955 -0.0235
    9SAPS  H15R 1132   2.931   2.503   8.243 -0.0295 -0.4646 -0.5510
    9SAPS  C216 1133   3.038   2.320   8.299  0.1142 -0.0933  0.0939
    9SAPS  H16R 1134   3.072   2.223   8.257  0.8692 -0.2351  1.0194
    9SAPS  H16S 1135   2.953   2.299   8.367  0.9315  1.0423  1.4920
    9SAPS  C217 1136   3.145   2.375   8.385  0.4197  0.0611  0.0278
    9SAPS  H17R 1137   3.109   2.468   8.434  1.2872  0.9909 -1.0765
    9SAPS  H17S 1138   3.236   2.410   8.332 -0.5736 -0.1681 -1.8531
    9SAPS  C218 1139   3.181   2.273   8.493 -0.6470  0.6689 -0.0940
    9SAPS  H18R 1140   3.220   2.179   8.449 -1.1346 -0.9822  2.8459
    9SAPS  H18S 1141   3.088   2.249   8.549  0.4273  0.0411  1.4452
    9SAPS  C219 1142   3.291   2.325   8.588  0.0371 -0.2944  0.1826
    9SAPS  H19R 1143   3.268   2.415   8.650  1.1328 -0.5281  0.9494
    9SAPS  H19S 1144   3.375   2.359   8.524  0.0308  2.4160  1.5471
    9SAPS  C220 1145   3.339   2.223   8.700  1.0256  0.1436  0.7251
    9SAPS  H20R 1146   3.352   2.274   8.798  0.6906 -1.6392  1.7183
    9SAPS  H20S 1147   3.438   2.181   8.670  0.1667 -1.6524  0.3615
    9SAPS  H20T 1148   3.275   2.134   8.716  1.0420 -0.1127 -0.6007
    9SAPS   C33 1149   2.739   2.410   7.271  0.2174  0.1143  0.5887
    9SAPS   H3X 1150   2.655   2.341   7.246 -1.0887  1.3734  1.4373
    9SAPS   H3Y 1151   2.688   2.508   7.266 -2.5191 -1.0769  2.9589
    9SAPS   C34 1152   2.791   2.385   7.416  0.2931 -0.4407  0.2475
    9SAPS   H4X 1153   2.885   2.442   7.432 -0.8490  0.7274  3.0383
    9SAPS   H4Y 1154   2.801   2.274   7.422 -1.1285 -0.6375 -0.5959
    9SAPS   C35 1155   2.689   2.413   7.526 -0.1200 -0.5790  0.1379
    9SAPS   H5X 1156   2.591   2.365   7.504 -1.1743  1.4446  0.2734
    9SAPS   H5Y 1157   2.668   2.522   7.540  4.5592  0.1624  2.1931
    9SAPS   C36 1158   2.733   2.370   7.671  0.2215  0.3674  0.1363
    9SAPS   H6X 1159   2.838   2.401   7.688  0.2513  0.3397  0.0021
    9SAPS   H6Y 1160   2.728   2.259   7.674 -1.7044  0.2788 -3.5294
    9SAPS   C37 1161   2.639   2.427   7.771  1.0361 -0.7921 -0.0122
    9SAPS   H7X 1162   2.649   2.367   7.864 -0.6723 -1.1056 -0.0087
    9SAPS   H7Y 1163   2.535   2.409   7.736 -0.1065 -1.1723  3.4158
    9SAPS   C38 1164   2.665   2.570   7.792 -0.5837 -0.8487  0.6842
    9SAPS   H8X 1165   2.598   2.633   7.730  2.5387 -1.7741 -3.9831
    9SAPS   H8Y 1166   2.769   2.592   7.759 -1.4751  0.6012 -1.2587
    9SAPS   C39 1167   2.635   2.613   7.933 -0.5004 -0.3251 -0.3987
    9SAPS   H9X 1168   2.701   2.546   7.992 -0.5980  0.3803  0.5362
    9SAPS   H9Y 1169   2.535   2.584   7.971 -1.3349  0.8832 -1.6004
    9SAPS  C310 1170   2.687   2.749   7.979  0.3109 -0.2655 -0.0868
    9SAPS  H10X 1171   2.629   2.834   7.937  0.4448 -1.0191 -1.8426
    9SAPS  H10Y 1172   2.794   2.765   7.956  1.0128 -3.4248  0.7483
    9SAPS  C311 1173   2.682   2.755   8.138 -0.5187 -0.5362  0.8638
    9SAPS  H11X 1174   2.764   2.693   8.181 -0.1844 -0.1703  0.7513
    9SAPS  H11Y 1175   2.583   2.728   8.180 -0.4690 -1.1290  0.6023
    9SAPS  C312 1176   2.715   2.895   8.195  0.0775 -0.6390 -0.8820
    9SAPS  H12X 1177   2.702   2.883   8.305  0.2663  2.3643 -0.5033
    9SAPS  H12Y 1178   2.641   2.970   8.159 -1.3950 -1.6067  0.0640
    9SAPS  C313 1179   2.856   2.952   8.180 -0.4351 -0.3020  1.1161
    9SAPS  H13X 1180   2.870   2.968   8.071 -0.6079  0.0356  1.1435
    9SAPS  H13Y 1181   2.928   2.870   8.204 -1.7406 -1.2615  1.7809
    9SAPS  C314 1182   2.874   3.081   8.256 -0.0967  0.3590 -0.8602
    9SAPS  H14X 1183   2.852   3.059   8.363 -0.0845  0.4084 -0.8479
    9SAPS  H14Y 1184   2.805   3.155   8.211 -2.4132 -1.5827 -0.6249
    9SAPS  C315 1185   3.011   3.132   8.276 -0.8604 -0.5748 -0.4364
    9SAPS  H15X 1186   3.058   3.166   8.181  1.3196 -0.2785  0.7244
    9SAPS  H15Y 1187   3.077   3.060   8.328 -0.1686  0.5431  0.2552
    9SAPS  C316 1188   3.028   3.266   8.363 -0.0654 -0.2350  0.4772
    9SAPS  H16X 1189   3.137   3.278   8.385 -0.0763 -0.4079  0.6229
    9SAPS  H16Y 1190   2.976   3.262   8.461  0.6782 -0.0488  0.8812
    9SAPS  C317 1191   2.980   3.400   8.303  0.6215 -0.4627  0.2883
    9SAPS  H17X 1192   3.026   3.409   8.202 -1.2088  0.1244 -0.5061
    9SAPS  H17Y 1193   3.028   3.480   8.362 -1.7897  1.1299  0.1618
    9SAPS  C318 1194   2.831   3.435   8.319 -1.1160 -0.2532 -0.3199
    9SAPS  H18X 1195   2.761   3.360   8.276 -2.0680  0.7273 -0.5146
    9SAPS  H18Y 1196   2.805   3.525   8.261 -0.3967  1.8346  2.4733
    9SAPS  H18Z 1197   2.803   3.457   8.425  2.6273 -2.2491  1.1832
   10SAPS     N 1198   2.922   1.228   6.473 -0.0558  0.2621  0.0058
   10SAPS   HN1 1199   3.007   1.195   6.522 -0.5186 -1.9784 -0.6465
   10SAPS   HN2 1200   2.854   1.254   6.547  0.2034  1.4053 -0.1454
   10SAPS   HN3 1201   2.881   1.164   6.401 -0.9034  0.5577  0.2226
   10SAPS   C12 1202   2.987   1.344   6.391 -0.1127  0.1350  0.3731
   10SAPS  H12A 1203   3.044   1.294   6.315  2.8121 -0.4655  2.8483
   10SAPS   C13 1204   2.876   1.432   6.328  0.0958 -0.0378  0.2967
   10SAPS  O13A 1205   2.768   1.450   6.397 -0.1486 -0.3223 -0.2740
   10SAPS  O13B 1206   2.888   1.474   6.213 -0.7938  0.0065  0.1686
   10SAPS   C11 1207   3.063   1.438   6.491  0.0431 -0.2323  0.3558
   10SAPS  H11A 1208   3.118   1.378   6.567 -1.0052  0.2385  1.4923
   10SAPS  H11B 1209   2.989   1.497   6.549 -1.1718  1.0452 -2.4308
   10SAPS     P 1210   3.297   1.509   6.411  0.2765  0.4074 -0.1523
   10SAPS   O13 1211   3.314   1.378   6.345  0.1925 -0.2907  0.0553
   10SAPS   O14 1212   3.353   1.632   6.344 -0.6168 -0.3259  0.2346
   10SAPS   O12 1213   3.143   1.534   6.422 -0.0206 -0.3447  0.0828
   10SAPS   O11 1214   3.343   1.508   6.556  0.3858  0.2778 -0.2611
   10SAPS    C1 1215   3.349   1.635   6.622  0.2024 -0.2632  0.1085
   10SAPS    HA 1216   3.445   1.687   6.600  1.4513 -2.7896 -0.6601
   10SAPS    HB 1217   3.272   1.711   6.597 -2.0409 -2.0757  1.3668
   10SAPS    C2 1218   3.334   1.617   6.779 -0.2685 -0.5519  0.6166
   10SAPS    HS 1219   3.341   1.717   6.825  1.9320 -0.0957 -0.6451
   10SAPS   O21 1220   3.437   1.529   6.832  0.2530 -0.4772 -0.0047
   10SAPS   C21 1221   3.470   1.548   6.957 -0.4657  0.6965 -0.1510
   10SAPS   O22 1222   3.433   1.641   7.026  0.0208  0.1440 -0.0899
   10SAPS   C22 1223   3.556   1.431   7.007  1.1063 -0.9655 -0.2778
   10SAPS   H2R 1224   3.530   1.343   6.945  0.0586 -1.0587  0.2809
   10SAPS   H2S 1225   3.659   1.471   6.996  0.0174  2.0772  0.2178
   10SAPS    C3 1226   3.193   1.568   6.811  0.0255  0.3804 -0.5436
   10SAPS    HX 1227   3.170   1.468   6.768  1.4858  0.1596 -0.8314
   10SAPS    HY 1228   3.122   1.637   6.761 -1.0084  0.8320  1.5214
   10SAPS   O31 1229   3.170   1.560   6.951  0.3014 -0.0142  0.0758
   10SAPS   C31 1230   3.121   1.672   7.003  0.0921 -0.2846  0.4950
   10SAPS   O32 1231   3.120   1.783   6.948 -0.2605 -0.0034 -0.7783
   10SAPS   C32 1232   3.085   1.644   7.149 -0.4468  0.3781  0.3026
   10SAPS   H2X 1233   3.099   1.536   7.175 -0.9880  0.1970 -0.1477
   10SAPS   H2Y 1234   2.986   1.686   7.176 -0.2063  1.3293 -0.3024
   10SAPS   C23 1235   3.545   1.412   7.156  0.5548 -0.0152 -0.5629
   10SAPS   H3R 1236   3.471   1.329   7.157  0.8800 -0.3167  0.4017
   10SAPS   H3S 1237   3.502   1.494   7.217 -2.7631 -0.9169 -1.6322
   10SAPS   C24 1238   3.672   1.367   7.239  0.6122 -0.2827  0.2034
   10SAPS   H4R 1239   3.716   1.280   7.185 -0.0480 -0.4829 -0.0170
   10SAPS   H4S 1240   3.623   1.316   7.325 -1.0897  0.2191 -0.4643
   10SAPS   C25 1241   3.771   1.481   7.252  0.2162 -0.1761 -0.2485
   10SAPS   H5R 1242   3.812   1.525   7.160 -0.3535 -1.9706 -1.3784
   10SAPS   C26 1243   3.827   1.526   7.367 -0.0836 -1.0407 -0.4650
   10SAPS   H6R 1244   3.898   1.610   7.362 -2.6942  1.3183  0.6751
   10SAPS   C27 1245   3.794   1.484   7.514 -0.4802 -0.4755 -0.8525
   10SAPS   H7R 1246   3.850   1.393   7.545  0.0882  0.1588 -0.0164
   10SAPS   H7S 1247   3.684   1.464   7.521 -0.5742  0.2827 -0.1647
   10SAPS   C28 1248   3.825   1.608   7.604 -0.0275 -0.1203  0.4686
   10SAPS   H8R 1249   3.858   1.707   7.569  0.7626 -0.0523  1.3815
   10SAPS   C29 1250   3.818   1.605   7.740  0.2572  0.9257  0.0308
   10SAPS   H9R 1251   3.856   1.688   7.801  0.9657  1.4382 -1.0860
   10SAPS  C210 1252   3.764   1.484   7.816  0.6287 -0.1911 -0.0683
   10SAPS  H10R 1253   3.711   1.406   7.757 -0.3251  0.8076 -0.5366
   10SAPS  H10S 1254   3.687   1.523   7.886  1.8621  1.7265  0.2402
   10SAPS  C211 1255   3.867   1.414   7.902 -1.1827  0.5224 -0.1223
   10SAPS  H11R 1256   3.953   1.376   7.846 -0.1462 -1.6480  2.8027
   10SAPS  C212 1257   3.855   1.372   8.033  0.3675 -0.3666  0.3346
   10SAPS  H12R 1258   3.939   1.320   8.081  0.5796 -0.2369  0.1007
   10SAPS  C213 1259   3.744   1.388   8.134 -0.6213 -0.3888 -0.5379
   10SAPS  H13R 1260   3.664   1.311   8.120 -0.9129 -0.5372  1.6362
   10SAPS  H13S 1261   3.679   1.478   8.123 -0.1735  0.3050  2.0568
   10SAPS  C214 1262   3.791   1.369   8.280 -0.5094 -0.1529 -0.2512
   10SAPS  H14R 1263   3.870   1.292   8.287  0.4693  0.9643  1.5184
   10SAPS  C215 1264   3.745   1.428   8.390 -0.1586 -0.5510 -0.1717
   10SAPS  H15R 1265   3.786   1.407   8.490  0.3832 -1.4307 -0.5836
   10SAPS  C216 1266   3.630   1.531   8.387 -0.2675 -0.0922  1.3163
   10SAPS  H16R 1267   3.570   1.507   8.477 -0.4421 -3.0326  0.4709
   10SAPS  H16S 1268   3.565   1.523   8.297 -1.7776 -1.6783  2.5088
   10SAPS  C217 1269   3.678   1.677   8.386  0.4579 -0.2365 -0.4864
   10SAPS  H17R 1270   3.682   1.701   8.278  0.2513 -1.6331 -0.8157
   10SAPS  H17S 1271   3.778   1.688   8.434 -0.1674 -0.5115  0.9141
   10SAPS  C218 1272   3.583   1.777   8.452 -1.0957 -0.1509 -0.5070
   10SAPS  H18R 1273   3.599   1.772   8.562 -1.7609  1.0336 -0.3518
   10SAPS  H18S 1274   3.485   1.747   8.409 -2.7887  1.7643  1.8929
   10SAPS  C219 1275   3.607   1.929   8.422 -0.0287 -0.5143  0.4264
   10SAPS  H19R 1276   3.634   1.926   8.315  0.1222  1.8567  0.3776
   10SAPS  H19S 1277   3.699   1.964   8.474 -1.1648  3.8716 -0.3379
   10SAPS  C220 1278   3.483   2.015   8.443  0.1496  0.0162 -1.2211
   10SAPS  H20R 1279   3.389   1.990   8.389  0.3142 -2.2275 -0.4926
   10SAPS  H20S 1280   3.503   2.124   8.428 -1.8090  0.7162  1.0188
   10SAPS  H20T 1281   3.450   2.009   8.548  0.6296  1.0962 -0.9983
   10SAPS   C33 1282   3.173   1.730   7.238  0.6206 -0.0051  0.1485
   10SAPS   H3X 1283   3.139   1.836   7.228  3.5188  0.9103 -0.3392
   10SAPS   H3Y 1284   3.276   1.719   7.199  0.4312  0.0080 -0.3569
   10SAPS   C34 1285   3.186   1.689   7.385 -0.0205  0.3135  0.2344
   10SAPS   H4X 1286   3.240   1.769   7.441  1.2378 -0.6310  0.3830
   10SAPS   H4Y 1287   3.258   1.604   7.380 -0.4577 -0.0662  0.3586
   10SAPS   C35 1288   3.051   1.652   7.447  0.5932  0.3336  0.1334
   10SAPS   H5X 1289   3.006   1.570   7.387  1.1468 -0.7216  1.1184
   10SAPS   H5Y 1290   2.991   1.745   7.439 -3.7100 -2.4196 -0.8671
   10SAPS   C36 1291   3.062   1.605   7.595 -0.1883 -0.2229 -0.2647
   10SAPS   H6X 1292   3.142   1.661   7.649  2.2307 -2.7467 -1.0919
   10SAPS   H6Y 1293   3.094   1.499   7.592  2.9233  0.6421  0.2780
   10SAPS   C37 1294   2.937   1.631   7.676  1.1293 -0.3950 -0.4307
   10SAPS   H7X 1295   2.856   1.579   7.621  0.5523 -1.7136  1.6283
   10SAPS   H7Y 1296   2.909   1.738   7.680  2.6170 -0.0404  1.8404
   10SAPS   C38 1297   2.945   1.567   7.815  0.2008  0.8507 -0.2274
   10SAPS   H8X 1298   3.008   1.627   7.883  0.1021  0.3437  0.3184
   10SAPS   H8Y 1299   2.980   1.461   7.815  0.4489  0.9267 -1.0430
   10SAPS   C39 1300   2.805   1.544   7.876 -0.1036 -0.1323 -0.5225
   10SAPS   H9X 1301   2.735   1.500   7.802  0.0481  0.5632 -1.0871
   10SAPS   H9Y 1302   2.765   1.643   7.906 -0.1951 -0.1367 -0.6296
   10SAPS  C310 1303   2.809   1.443   7.994  0.4185  0.2894  0.1159
   10SAPS  H10X 1304   2.861   1.483   8.083 -0.7366 -0.6898  1.2338
   10SAPS  H10Y 1305   2.857   1.348   7.963 -0.4957  0.4284 -1.8085
   10SAPS  C311 1306   2.672   1.415   8.052 -0.1453 -1.1898  0.2803
   10SAPS  H11X 1307   2.604   1.385   7.970 -2.1602  0.3987  1.3452
   10SAPS  H11Y 1308   2.625   1.501   8.105 -1.5964 -1.3484 -0.7351
   10SAPS  C312 1309   2.663   1.302   8.156 -0.0838  0.8977 -0.9200
   10SAPS  H12X 1310   2.725   1.216   8.123 -1.2275 -1.5670  3.0008
   10SAPS  H12Y 1311   2.558   1.266   8.162 -0.1481  1.2922  0.5994
   10SAPS  C313 1312   2.720   1.340   8.296 -1.1751  0.3858 -0.6975
   10SAPS  H13X 1313   2.811   1.402   8.280  0.2157 -0.9042  1.9877
   10SAPS  H13Y 1314   2.772   1.250   8.334 -1.3883  0.2541 -0.7163
   10SAPS  C314 1315   2.622   1.385   8.402 -0.5147  0.3741 -0.1389
   10SAPS  H14X 1316   2.538   1.312   8.394 -1.3957  1.3564  0.0828
   10SAPS  H14Y 1317   2.592   1.487   8.371  2.0025  1.1401 -0.1102
   10SAPS  C315 1318   2.663   1.405   8.550 -0.1317 -0.0967 -0.1952
   10SAPS  H15X 1319   2.584   1.450   8.614 -1.4215 -1.1187 -1.0370
   10SAPS  H15Y 1320   2.742   1.482   8.561 -2.8193  2.7210  0.3290
   10SAPS  C316 1321   2.719   1.278   8.620 -0.3972  0.0975 -0.1283
   10SAPS  H16X 1322   2.825   1.263   8.591 -0.2308  1.8028 -0.4755
   10SAPS  H16Y 1323   2.659   1.197   8.573  1.1702 -0.5403 -1.0726
   10SAPS  C317 1324   2.696   1.283   8.773  0.6036 -0.1608  0.6113
   10SAPS  H17X 1325   2.586   1.280   8.790  0.3268  1.1689 -0.8337
   10SAPS  H17Y 1326   2.746   1.376   8.808  0.5815 -0.1382  0.5821
   10SAPS  C318 1327   2.761   1.163   8.831  0.1295  0.1439 -0.2989
   10SAPS  H18X 1328   2.709   1.068   8.805  0.8345 -0.7244  1.3603
   10SAPS  H18Y 1329   2.774   1.167   8.941  1.4898 -1.3957 -0.3872
   10SAPS  H18Z 1330   2.867   1.153   8.803  0.8735 -0.4777  2.5806
   11SAPS     N 1331   4.371   4.047   5.863 -0.9641 -0.3901 -0.0010
   11SAPS   HN1 1332   4.303   4.040   5.785 -0.9147 -1.0711  0.0070
   11SAPS   HN2 1333   4.388   3.952   5.904 -1.2914 -0.2652  0.4278
   11SAPS   HN3 1334   4.323   4.103   5.936 -0.9958 -2.5601  1.7220
   11SAPS   C12 1335   4.507   4.090   5.804  0.3541 -0.1941 -0.1491
   11SAPS  H12A 1336   4.577   4.033   5.862  0.8094  0.7935  0.2834
   11SAPS   C13 1337   4.514   4.040   5.660 -0.2378  0.2310  1.0287
   11SAPS  O13A 1338   4.421   3.976   5.612 -0.2876 -0.3600  0.1207
   11SAPS  O13B 1339   4.623   4.062   5.605 -0.0741  0.5018  0.0565
   11SAPS   C11 1340   4.524   4.247   5.813 -0.5023 -0.4001  0.8480
   11SAPS  H11A 1341   4.437   4.305   5.776 -0.1694 -1.8954 -2.5194
   11SAPS  H11B 1342   4.610   4.271   5.747 -2.1053  3.2344 -0.0151
   11SAPS     P 1343   4.689   4.319   6.012 -0.3645  0.1250  0.0237
   11SAPS   O13 1344   4.786   4.233   5.939 -0.2473  0.7618 -0.5798
   11SAPS   O14 1345   4.715   4.468   6.003 -0.1860  0.3607  0.2855
   11SAPS   O12 1346   4.549   4.282   5.948 -0.2595 -0.1232  0.3946
   11SAPS   O11 1347   4.667   4.279   6.162 -0.2274 -0.5224  0.1471
   11SAPS    C1 1348   4.751   4.338   6.263  0.0709  0.5377 -0.2279
   11SAPS    HA 1349   4.798   4.435   6.235  0.7671  0.0432 -0.7769
   11SAPS    HB 1350   4.701   4.349   6.361  3.2548  0.7906  1.4174
   11SAPS    C2 1351   4.874   4.247   6.310 -0.3487  0.2100  0.1778
   11SAPS    HS 1352   4.937   4.212   6.225 -0.9253  0.7344 -0.4719
   11SAPS   O21 1353   4.815   4.137   6.383 -0.0827  0.1642 -0.0336
   11SAPS   C21 1354   4.892   4.034   6.404  0.4683  0.2265  0.3725
   11SAPS   O22 1355   5.006   4.018   6.357  0.1873 -0.7483 -0.5484
   11SAPS   C22 1356   4.817   3.929   6.485  0.6989 -0.2028 -0.1575
   11SAPS   H2R 1357   4.709   3.952   6.498  0.5628 -1.7979  1.6903
   11SAPS   H2S 1358   4.827   3.832   6.432  0.6113 -0.3793  0.1492
   11SAPS    C3 1359   4.968   4.337   6.408 -0.2573 -0.2635  0.3211
   11SAPS    HX 1360   5.006   4.418   6.342 -1.2453  0.0015  0.0700
   11SAPS    HY 1361   5.044   4.259   6.430 -0.2322 -0.4889 -0.5583
   11SAPS   O31 1362   4.902   4.403   6.518  0.0721 -0.1050  0.5780
   11SAPS   C31 1363   4.984   4.413   6.622  0.1883 -0.4119  0.6225
   11SAPS   O32 1364   5.102   4.392   6.625 -0.1206 -0.0620 -0.0446
   11SAPS   C32 1365   4.892   4.448   6.738  0.1445  0.0891  1.3225
   11SAPS   H2X 1366   4.787   4.422   6.713 -0.5236 -0.2348  4.1992
   11SAPS   H2Y 1367   4.907   4.557   6.757 -0.7845  1.2475 -3.9118
   11SAPS   C23 1368   4.884   3.910   6.624  0.4873 -0.4058 -0.6697
   11SAPS   H3R 1369   4.992   3.885   6.620  0.4901 -0.1282 -2.8437
   11SAPS   H3S 1370   4.833   3.824   6.672 -0.1564  1.3920  1.9912
   11SAPS   C24 1371   4.869   4.028   6.725 -0.1546  0.3139  0.0966
   11SAPS   H4R 1372   4.765   4.010   6.761 -0.1984 -2.7050 -1.3292
   11SAPS   H4S 1373   4.849   4.126   6.677 -2.4781 -0.1758  0.0144
   11SAPS   C25 1374   4.978   4.029   6.829 -0.0469 -0.0429  0.6997
   11SAPS   H5R 1375   5.078   4.062   6.794 -0.2993 -0.0494 -0.0320
   11SAPS   C26 1376   4.965   3.974   6.949 -0.7546  1.0757  0.3814
   11SAPS   H6R 1377   5.055   3.982   7.013 -2.4803 -1.3037  3.2082
   11SAPS   C27 1378   4.848   3.916   7.021  0.0476  0.4005  0.0160
   11SAPS   H7R 1379   4.873   3.836   7.093 -0.1496 -0.5068 -0.9204
   11SAPS   H7S 1380   4.790   3.861   6.944  0.8693  1.8048 -1.6548
   11SAPS   C28 1381   4.757   4.021   7.077  0.2267  0.2951  0.5460
   11SAPS   H8R 1382   4.710   4.084   7.000  0.0821 -0.1734  0.2513
   11SAPS   C29 1383   4.704   4.019   7.200 -0.0335  0.0450 -0.5583
   11SAPS   H9R 1384   4.636   4.100   7.232 -0.0014 -0.5414  1.0473
   11SAPS  C210 1385   4.729   3.924   7.316  0.0428 -0.1318  0.0938
   11SAPS  H10R 1386   4.812   3.856   7.284  1.1323  1.5561 -0.7612
   11SAPS  H10S 1387   4.632   3.873   7.334  0.6496 -1.3424 -0.0020
   11SAPS  C211 1388   4.771   3.997   7.433 -0.3439 -0.2979 -0.1865
   11SAPS  H11R 1389   4.836   4.085   7.425 -2.1766  1.1072 -0.0180
   11SAPS  C212 1390   4.749   3.966   7.562  0.3158 -0.1533  0.5170
   11SAPS  H12R 1391   4.796   4.027   7.641 -1.1089  1.7797 -0.0919
   11SAPS  C213 1392   4.662   3.859   7.622  0.7844 -0.6437  0.4468
   11SAPS  H13R 1393   4.700   3.840   7.724 -0.9090  0.3586  1.2948
   11SAPS  H13S 1394   4.668   3.764   7.565 -1.0215  0.8886 -2.4703
   11SAPS  C214 1395   4.520   3.914   7.650  0.4934 -0.2383  0.9755
   11SAPS  H14R 1396   4.463   3.934   7.558  0.4380  1.2470  1.3209
   11SAPS  C215 1397   4.459   3.915   7.766  0.1591 -0.2168 -0.1061
   11SAPS  H15R 1398   4.355   3.951   7.771  0.9348  2.4166 -1.5932
   11SAPS  C216 1399   4.517   3.866   7.897  0.5612  0.2979  0.5695
   11SAPS  H16R 1400   4.565   3.766   7.885 -0.1646 -0.2085  1.8040
   11SAPS  H16S 1401   4.433   3.836   7.962 -0.7131  2.6684  0.0569
   11SAPS  C217 1402   4.602   3.970   7.982 -0.6991 -0.0289 -0.3038
   11SAPS  H17R 1403   4.547   4.067   7.983 -1.0072 -0.2087  0.7196
   11SAPS  H17S 1404   4.704   3.983   7.939 -1.0010 -0.3075 -1.1124
   11SAPS  C218 1405   4.620   3.915   8.122  0.1193 -0.1931 -0.9028
   11SAPS  H18R 1406   4.638   3.806   8.119 -0.8317 -0.4046  0.5406
   11SAPS  H18S 1407   4.519   3.922   8.170  0.8126  1.1282  0.4164
   11SAPS  C219 1408   4.730   3.984   8.207  0.0757  0.1034  0.7560
   11SAPS  H19R 1409   4.703   4.081   8.254  0.3143  0.0423  1.0191
   11SAPS  H19S 1410   4.822   4.002   8.147  0.6490 -0.9242  1.3175
   11SAPS  C220 1411   4.773   3.882   8.313  0.6615 -0.9739  0.3967
   11SAPS  H20R 1412   4.691   3.842   8.377 -0.0519 -0.3371 -0.1253
   11SAPS  H20S 1413   4.839   3.950   8.371  1.7857 -2.4826  0.9446
   11SAPS  H20T 1414   4.830   3.790   8.287  1.4111  0.2096 -2.2050
   11SAPS   C33 1415   4.935   4.386   6.866 -0.1255  0.4606  0.1855
   11SAPS   H3X 1416   5.041   4.356   6.851 -0.6119 -0.8073 -0.8448
   11SAPS   H3Y 1417   4.881   4.289   6.874 -0.1076  0.5814  2.0068
   11SAPS   C34 1418   4.917   4.465   6.996 -0.3128  0.3005 -0.3294
   11SAPS   H4X 1419   4.811   4.499   7.003 -0.3818 -0.0101  0.2207
   11SAPS   H4Y 1420   4.980   4.556   7.003  0.7952 -0.5182  0.5285
   11SAPS   C35 1421   4.938   4.369   7.119  0.4180 -0.0009  0.3348
   11SAPS   H5X 1422   5.039   4.324   7.107  0.4702  0.1021  0.3939
   11SAPS   H5Y 1423   4.873   4.281   7.098 -0.6159  1.0925 -1.1221
   11SAPS   C36 1424   4.902   4.444   7.249  0.2430 -0.2226 -0.3461
   11SAPS   H6X 1425   4.794   4.470   7.254  0.5103  0.5141  2.8093
   11SAPS   H6Y 1426   4.968   4.533   7.256 -2.4920  1.8228  0.2961
   11SAPS   C37 1427   4.925   4.350   7.370  0.3603 -0.2067  0.4397
   11SAPS   H7X 1428   5.030   4.326   7.399 -0.0458  0.8449  2.9290
   11SAPS   H7Y 1429   4.877   4.255   7.342 -0.3689 -0.0096  1.0102
   11SAPS   C38 1430   4.858   4.409   7.494  0.4080 -0.5737  0.2201
   11SAPS   H8X 1431   4.749   4.418   7.472  0.4350 -1.3372 -0.2117
   11SAPS   H8Y 1432   4.899   4.511   7.513 -0.1325 -0.1895 -0.5949
   11SAPS   C39 1433   4.888   4.332   7.624 -0.7183 -0.6668  0.3752
   11SAPS   H9X 1434   4.998   4.332   7.635 -0.8386  2.8186  2.1352
   11SAPS   H9Y 1435   4.837   4.233   7.626  1.5447 -1.8496  0.2586
   11SAPS  C310 1436   4.843   4.396   7.760 -0.4974 -0.3559  0.7340
   11SAPS  H10X 1437   4.734   4.412   7.747 -0.4685 -0.7136  0.0281
   11SAPS  H10Y 1438   4.865   4.505   7.763 -2.3994  0.0321  2.0236
   11SAPS  C311 1439   4.889   4.333   7.888  0.2065  0.5145  0.0294
   11SAPS  H11X 1440   4.999   4.328   7.895  0.1153 -2.3030 -0.0594
   11SAPS  H11Y 1441   4.870   4.224   7.887  3.6395 -0.1142  0.0943
   11SAPS  C312 1442   4.833   4.396   8.015  0.3838 -0.3556  0.2093
   11SAPS  H12X 1443   4.722   4.395   8.018  0.2546  1.2022 -2.2209
   11SAPS  H12Y 1444   4.869   4.500   8.004  0.9012 -0.6576 -1.0697
   11SAPS  C313 1445   4.901   4.344   8.132  0.1663 -0.1446  0.4910
   11SAPS  H13X 1446   5.011   4.351   8.126  0.1072 -0.1748 -0.8936
   11SAPS  H13Y 1447   4.891   4.234   8.139 -1.7185 -0.0016  0.5384
   11SAPS  C314 1448   4.868   4.408   8.267 -0.3279  0.4091  0.2854
   11SAPS  H14X 1449   4.757   4.412   8.267 -0.4130 -1.3536 -1.1432
   11SAPS  H14Y 1450   4.904   4.513   8.259 -0.5085  0.5948  1.8877
   11SAPS  C315 1451   4.932   4.338   8.389  0.2328 -0.7523 -0.1340
   11SAPS  H15X 1452   5.037   4.318   8.361  0.3790  1.7429 -1.5719
   11SAPS  H15Y 1453   4.883   4.242   8.414 -2.2578  0.7088  0.8480
   11SAPS  C316 1454   4.907   4.437   8.516  0.4979  0.9159 -0.1090
   11SAPS  H16X 1455   4.907   4.370   8.604 -0.2402  0.6306 -0.3228
   11SAPS  H16Y 1456   4.803   4.475   8.506  0.5290  0.7363 -1.1756
   11SAPS  C317 1457   5.018   4.540   8.529  0.4080 -0.3567 -0.7080
   11SAPS  H17X 1458   5.011   4.631   8.466  1.4084  0.1839 -0.0392
   11SAPS  H17Y 1459   5.118   4.495   8.514  1.0206  0.3917  1.0112
   11SAPS  C318 1460   5.036   4.586   8.674 -0.5429 -0.0468  0.6243
   11SAPS  H18X 1461   5.051   4.495   8.736  2.1075  1.4413  2.2734
   11SAPS  H18Y 1462   4.957   4.646   8.724 -0.1669  0.7809  0.2354
   11SAPS  H18Z 1463   5.128   4.648   8.681  0.6554 -1.8772  1.8217
   12SAPS     N 1464   4.950   5.625   6.150 -0.2871  0.1256 -0.4367
   12SAPS   HN1 1465   4.866   5.566   6.132  0.0063 -0.4677  0.0858
   12SAPS   HN2 1466   5.035   5.596   6.097 -1.4767 -0.7061 -1.9339
   12SAPS   HN3 1467   4.964   5.630   6.253 -0.3399 -1.7404 -0.3190
   12SAPS   C12 1468   4.905   5.761   6.102 -0.2167  0.0834 -0.3339
   12SAPS  H12A 1469   4.982   5.831   6.133 -0.1960 -0.3399  0.5840
   12SAPS   C13 1470   4.887   5.767   5.945  0.3729  0.6888 -0.5592
   12SAPS  O13A 1471   4.896   5.658   5.879  0.8489 -0.1782 -0.0095
   12SAPS  O13B 1472   4.843   5.878   5.909  0.1106 -0.1556  0.2556
   12SAPS   C11 1473   4.781   5.803   6.182 -0.2000 -0.8955  0.3143
   12SAPS  H11A 1474   4.757   5.908   6.154 -0.1444 -0.8520  0.4312
   12SAPS  H11B 1475   4.806   5.799   6.290  1.6995  1.8717  0.0318
   12SAPS     P 1476   4.602   5.612   6.225  0.0574  0.3897  0.6961
   12SAPS   O13 1477   4.477   5.565   6.170 -0.2230  0.0274  0.2889
   12SAPS   O14 1478   4.712   5.517   6.247  0.1563 -0.0669 -0.4802
   12SAPS   O12 1479   4.666   5.731   6.144 -0.0186  0.0116 -0.4884
   12SAPS   O11 1480   4.559   5.669   6.366 -0.2838 -0.2391  0.0382
   12SAPS    C1 1481   4.484   5.790   6.377  0.3558 -0.0848  0.8028
   12SAPS    HA 1482   4.509   5.861   6.295  0.3975  0.0818  0.9595
   12SAPS    HB 1483   4.378   5.770   6.354  0.6687 -0.3035 -0.4738
   12SAPS    C2 1484   4.512   5.863   6.517 -0.0841  0.1183  0.3220
   12SAPS    HS 1485   4.618   5.894   6.513  0.0978 -0.0683  3.0602
   12SAPS   O21 1486   4.487   5.768   6.622  0.2851  0.1583  0.1112
   12SAPS   C21 1487   4.536   5.781   6.748 -0.6211 -0.1397  0.3284
   12SAPS   O22 1488   4.617   5.866   6.782 -0.3967 -0.3432  0.6587
   12SAPS   C22 1489   4.475   5.673   6.837  0.3582  0.2634 -0.0700
   12SAPS   H2R 1490   4.449   5.587   6.771  0.2734 -1.1643  1.7624
   12SAPS   H2S 1491   4.548   5.652   6.918  0.6588 -0.3576 -0.4986
   12SAPS    C3 1492   4.414   5.988   6.536  0.3549  0.6513 -0.3975
   12SAPS    HX 1493   4.311   5.945   6.541  0.2698  0.6532 -1.8352
   12SAPS    HY 1494   4.408   6.057   6.448  0.7750  0.9968 -0.1545
   12SAPS   O31 1495   4.423   6.055   6.665 -0.0803  0.0811 -0.2197
   12SAPS   C31 1496   4.518   6.147   6.683  0.2470  0.4285  0.3591
   12SAPS   O32 1497   4.607   6.177   6.604  0.0941  1.0546 -0.1969
   12SAPS   C32 1498   4.506   6.198   6.828  0.2210 -0.5242 -0.2424
   12SAPS   H2X 1499   4.515   6.111   6.896 -1.8837  0.6975  1.6639
   12SAPS   H2Y 1500   4.405   6.243   6.842  1.0473  1.1696  0.3738
   12SAPS   C23 1501   4.346   5.717   6.914 -0.1154  0.1213 -0.1607
   12SAPS   H3R 1502   4.328   5.642   6.994  1.5709 -1.0328 -0.8465
   12SAPS   H3S 1503   4.258   5.746   6.852 -0.9338 -0.3888  0.7369
   12SAPS   C24 1504   4.366   5.852   6.988 -0.0456 -0.0888 -0.5741
   12SAPS   H4R 1505   4.383   5.931   6.912 -0.1669  0.5236  0.0301
   12SAPS   H4S 1506   4.452   5.835   7.056 -2.1442 -0.3618  2.0880
   12SAPS   C25 1507   4.235   5.891   7.064 -0.0593  0.1424  0.4005
   12SAPS   H5R 1508   4.149   5.883   6.995  1.4758 -0.0458 -1.5348
   12SAPS   C26 1509   4.225   5.907   7.197  0.0447  0.0364  0.2599
   12SAPS   H6R 1510   4.132   5.931   7.250  0.4162  1.9612  0.0673
   12SAPS   C27 1511   4.338   5.884   7.298  0.0012 -0.9309 -0.0870
   12SAPS   H7R 1512   4.343   5.969   7.370 -2.2303  0.5042 -1.5641
   12SAPS   H7S 1513   4.435   5.895   7.245 -0.5417  1.5041 -0.6671
   12SAPS   C28 1514   4.336   5.746   7.365 -0.3128 -0.2002 -0.2103
   12SAPS   H8R 1515   4.320   5.657   7.303  0.7277 -0.0466 -0.7072
   12SAPS   C29 1516   4.336   5.722   7.488  0.4479 -0.2654  0.5005
   12SAPS   H9R 1517   4.324   5.618   7.521 -3.0460 -0.1486 -0.2496
   12SAPS  C210 1518   4.343   5.816   7.603 -0.9824  0.0591 -0.3504
   12SAPS  H10R 1519   4.304   5.915   7.573 -1.8692 -0.2698 -0.3180
   12SAPS  H10S 1520   4.448   5.851   7.609 -0.7402 -0.1185 -2.7921
   12SAPS  C211 1521   4.292   5.762   7.734  0.5072  0.0741 -0.0388
   12SAPS  H11R 1522   4.186   5.735   7.717  0.6866 -0.7885  0.1991
   12SAPS  C212 1523   4.352   5.754   7.858  0.9466 -0.0174 -0.0827
   12SAPS  H12R 1524   4.297   5.715   7.945 -1.2409  2.5770 -0.2491
   12SAPS  C213 1525   4.489   5.801   7.888  0.2532  0.3157 -0.4397
   12SAPS  H13R 1526   4.473   5.906   7.920 -3.5520  0.0051 -1.0496
   12SAPS  H13S 1527   4.548   5.794   7.794  0.7890 -0.5416 -0.0489
   12SAPS  C214 1528   4.548   5.713   7.996 -0.4651  0.8402 -0.4584
   12SAPS  H14R 1529   4.540   5.604   7.987  1.5577  0.6325  0.0525
   12SAPS  C215 1530   4.617   5.752   8.098 -0.2231  0.0610 -0.7681
   12SAPS  H15R 1531   4.643   5.680   8.177 -0.9471 -0.5468 -1.0846
   12SAPS  C216 1532   4.649   5.899   8.115  0.9060 -0.0771 -0.3778
   12SAPS  H16R 1533   4.559   5.950   8.157  0.7176  0.5928 -1.5922
   12SAPS  H16S 1534   4.660   5.948   8.017  0.5169  1.2442  0.2256
   12SAPS  C217 1535   4.778   5.926   8.180 -0.0912 -0.0821 -1.0191
   12SAPS  H17R 1536   4.793   5.882   8.281  2.5853  0.7482 -1.0046
   12SAPS  H17S 1537   4.801   6.033   8.198 -1.9930  0.1582  0.1574
   12SAPS  C218 1538   4.905   5.856   8.110  0.3866 -0.2351  0.2148
   12SAPS  H18R 1539   4.906   5.866   7.999  4.3796  0.7103  0.2652
   12SAPS  H18S 1540   4.900   5.746   8.129  0.8790 -0.7187 -2.2842
   12SAPS  C219 1541   5.048   5.900   8.153 -0.4396  0.6682  0.5331
   12SAPS  H19R 1542   5.043   5.881   8.262  0.0756  0.8630  0.5924
   12SAPS  H19S 1543   5.063   6.009   8.139 -0.6667  0.6148 -0.1719
   12SAPS  C220 1544   5.168   5.818   8.095 -0.4176  0.0967  0.1212
   12SAPS  H20R 1545   5.211   5.854   7.999 -0.0476 -0.9961 -0.1326
   12SAPS  H20S 1546   5.134   5.712   8.093  3.5601 -1.3469  2.5726
   12SAPS  H20T 1547   5.250   5.817   8.171 -1.0223 -0.3472  0.7730
   12SAPS   C33 1548   4.615   6.296   6.855 -0.3193 -0.8861  0.1251
   12SAPS   H3X 1549   4.611   6.388   6.792  1.0929 -0.1424  1.0925
   12SAPS   H3Y 1550   4.713   6.254   6.823  0.2968  0.2037  0.5473
   12SAPS   C34 1551   4.621   6.324   7.007 -0.0161 -0.3013 -0.0879
   12SAPS   H4X 1552   4.516   6.318   7.043  0.7239  1.6435  2.5850
   12SAPS   H4Y 1553   4.668   6.424   7.014  0.1205 -0.2311 -1.8765
   12SAPS   C35 1554   4.711   6.216   7.069 -1.0792 -0.2683 -0.1223
   12SAPS   H5X 1555   4.812   6.217   7.024 -1.5236  1.0858 -1.1410
   12SAPS   H5Y 1556   4.670   6.114   7.056  1.0564 -1.2717  0.8762
   12SAPS   C36 1557   4.734   6.234   7.220 -0.5902  0.3270 -0.0767
   12SAPS   H6X 1558   4.777   6.335   7.235  0.6639 -0.1173 -0.6585
   12SAPS   H6Y 1559   4.805   6.152   7.244 -1.1560 -0.3381 -0.6547
   12SAPS   C37 1560   4.612   6.214   7.314 -0.1982  0.4734 -0.1144
   12SAPS   H7X 1561   4.576   6.109   7.303  0.5617  0.2305 -0.2654
   12SAPS   H7Y 1562   4.529   6.281   7.282 -0.0716  0.1320 -1.1871
   12SAPS   C38 1563   4.655   6.231   7.460  0.2676 -0.2622  0.7974
   12SAPS   H8X 1564   4.693   6.336   7.464 -0.0302  0.0373 -2.6314
   12SAPS   H8Y 1565   4.741   6.167   7.491  1.2692  1.8375  2.5756
   12SAPS   C39 1566   4.537   6.199   7.545  0.1622  0.2169 -0.2691
   12SAPS   H9X 1567   4.498   6.098   7.520  4.2211 -1.0376 -1.7939
   12SAPS   H9Y 1568   4.460   6.266   7.501  0.1510  1.1975  1.2080
   12SAPS  C310 1569   4.568   6.224   7.696  0.3796 -0.8755 -0.3780
   12SAPS  H10X 1570   4.468   6.211   7.742  0.9089  0.1457  1.0747
   12SAPS  H10Y 1571   4.584   6.332   7.713  0.6325 -0.6031 -2.2111
   12SAPS  C311 1572   4.680   6.143   7.754  0.2420  0.2509  0.0971
   12SAPS  H11X 1573   4.725   6.078   7.676  1.8062 -0.2022  1.3484
   12SAPS  H11Y 1574   4.645   6.081   7.839 -0.1635  1.9023  1.1664
   12SAPS  C312 1575   4.790   6.238   7.805  0.6021 -0.1930  0.1545
   12SAPS  H12X 1576   4.757   6.274   7.904  0.5442  1.0707 -0.3224
   12SAPS  H12Y 1577   4.802   6.323   7.735  2.4124  0.2175  0.9274
   12SAPS  C313 1578   4.917   6.155   7.815  0.2910  0.7640 -0.0172
   12SAPS  H13X 1579   4.947   6.136   7.710 -1.5378 -2.2054 -0.0735
   12SAPS  H13Y 1580   4.894   6.058   7.865 -0.6113  1.3758  0.7664
   12SAPS  C314 1581   5.035   6.229   7.876 -0.0588 -0.1445  0.5096
   12SAPS  H14X 1582   5.063   6.302   7.797 -0.0620 -0.0338  0.6117
   12SAPS  H14Y 1583   5.118   6.158   7.899 -0.2243 -0.5803 -0.2195
   12SAPS  C315 1584   5.006   6.303   8.011  0.5439 -0.0011  0.3959
   12SAPS  H15X 1585   4.966   6.234   8.087  1.8247  0.8588  1.8805
   12SAPS  H15Y 1586   4.942   6.394   8.010 -0.0092 -0.3500  2.9366
   12SAPS  C316 1587   5.144   6.350   8.067  0.7389 -0.2404 -0.3363
   12SAPS  H16X 1588   5.209   6.404   7.995  0.7332  2.5809  1.7190
   12SAPS  H16Y 1589   5.204   6.264   8.105  0.3634 -0.6099 -0.5835
   12SAPS  C317 1590   5.133   6.453   8.185 -0.3437 -0.1473 -0.2937
   12SAPS  H17X 1591   5.066   6.539   8.161  0.7562  0.9323  0.4279
   12SAPS  H17Y 1592   5.234   6.495   8.202  0.1630 -0.6523 -1.9543
   12SAPS  C318 1593   5.077   6.383   8.307  0.5108  0.0346 -0.0726
   12SAPS  H18X 1594   4.989   6.323   8.276 -0.0202  1.0653 -0.6202
   12SAPS  H18Y 1595   5.055   6.458   8.387 -1.4279 -1.2533  0.6410
   12SAPS  H18Z 1596   5.150   6.313   8.352  0.3037 -0.6208 -0.7586
   13SAPS     N 1597   5.521   2.016   6.195 -0.4294  0.0652  0.7180
   13SAPS   HN1 1598   5.534   2.064   6.286 -0.9797  0.7060  0.4653
   13SAPS   HN2 1599   5.474   1.929   6.226 -1.0544 -0.0715 -0.5933
   13SAPS   HN3 1600   5.617   2.002   6.160 -0.2587  1.5287  0.5577
   13SAPS   C12 1601   5.453   2.102   6.099  0.2829 -0.0313 -0.0419
   13SAPS  H12A 1602   5.528   2.178   6.081  2.5200 -1.9019  1.0289
   13SAPS   C13 1603   5.402   2.045   5.964  0.2876 -1.6595  0.6416
   13SAPS  O13A 1604   5.420   1.923   5.942  0.6037  0.3619 -0.1848
   13SAPS  O13B 1605   5.368   2.121   5.874  0.7800  0.0626  0.1801
   13SAPS   C11 1606   5.333   2.178   6.167 -1.2723 -1.2259  0.5482
   13SAPS  H11A 1607   5.284   2.104   6.233  0.6687 -1.1527  2.1361
   13SAPS  H11B 1608   5.264   2.216   6.089 -1.4267 -2.6574 -0.0265
   13SAPS     P 1609   5.406   2.431   6.210 -0.2554 -0.2085 -0.3165
   13SAPS   O13 1610   5.489   2.439   6.088 -0.3034  0.2070 -0.4596
   13SAPS   O14 1611   5.273   2.494   6.203 -0.3135  0.1858 -0.7231
   13SAPS   O12 1612   5.384   2.278   6.252 -0.0412  0.2390 -0.5819
   13SAPS   O11 1613   5.492   2.487   6.333 -0.2551  0.1066  0.1227
   13SAPS    C1 1614   5.479   2.438   6.460  0.3006 -0.0168  0.3800
   13SAPS    HA 1615   5.373   2.449   6.491  0.2548  0.5207  0.0369
   13SAPS    HB 1616   5.523   2.336   6.469  1.8812  0.7621  1.7992
   13SAPS    C2 1617   5.567   2.507   6.570 -0.7694 -0.5869 -0.1815
   13SAPS    HS 1618   5.542   2.460   6.667  2.5493 -1.3187  0.3791
   13SAPS   O21 1619   5.540   2.647   6.570 -0.2694  0.4744 -0.0289
   13SAPS   C21 1620   5.437   2.680   6.638  0.2676  0.2510  0.2740
   13SAPS   O22 1621   5.361   2.610   6.702 -0.0084 -0.2686 -0.0559
   13SAPS   C22 1622   5.414   2.832   6.641  0.2826 -0.0649  0.0242
   13SAPS   H2R 1623   5.490   2.880   6.707  1.0361 -1.7609  0.4267
   13SAPS   H2S 1624   5.435   2.872   6.539  0.5187  0.1162  0.1425
   13SAPS    C3 1625   5.716   2.500   6.536 -0.3188  0.0765 -0.4372
   13SAPS    HX 1626   5.730   2.533   6.431 -0.9265 -1.5545 -1.0503
   13SAPS    HY 1627   5.753   2.395   6.539  1.2803  0.6164 -0.8359
   13SAPS   O31 1628   5.792   2.591   6.608  0.7203  0.2001 -0.4612
   13SAPS   C31 1629   5.810   2.559   6.743  0.3195 -0.5199  0.6542
   13SAPS   O32 1630   5.764   2.456   6.788  0.1187  0.0667 -0.0213
   13SAPS   C32 1631   5.890   2.667   6.813 -0.7648 -0.1875 -0.6211
   13SAPS   H2X 1632   5.880   2.762   6.756  0.0364 -0.0833 -0.5951
   13SAPS   H2Y 1633   5.997   2.637   6.816 -1.4031 -2.6552 -1.5578
   13SAPS   C23 1634   5.271   2.873   6.689 -0.2340  0.3808 -0.5323
   13SAPS   H3R 1635   5.262   2.833   6.792 -0.6255  1.4305 -0.1554
   13SAPS   H3S 1636   5.189   2.825   6.632  1.3598  0.0411 -2.6318
   13SAPS   C24 1637   5.256   3.024   6.689  0.6012 -0.0701  0.6047
   13SAPS   H4R 1638   5.300   3.066   6.596 -0.9006 -1.7745 -0.9138
   13SAPS   H4S 1639   5.313   3.054   6.779  1.2798  1.2842 -0.2555
   13SAPS   C25 1640   5.108   3.062   6.694  0.0147 -0.0029  0.2179
   13SAPS   H5R 1641   5.058   3.051   6.597 -0.2318  1.4630  0.1764
   13SAPS   C26 1642   5.042   3.110   6.797 -0.6446 -0.2352 -0.5866
   13SAPS   H6R 1643   4.933   3.119   6.796 -0.9499 -3.4272 -2.3944
   13SAPS   C27 1644   5.101   3.147   6.927 -0.5428  0.1486  0.2059
   13SAPS   H7R 1645   5.037   3.216   6.986  0.5934 -0.1376  1.8297
   13SAPS   H7S 1646   5.186   3.214   6.903  0.0169 -1.0856 -1.3653
   13SAPS   C28 1647   5.131   3.023   7.011 -0.3397 -0.3584 -0.4437
   13SAPS   H8R 1648   5.118   2.927   6.959  2.3705 -1.9333  1.6679
   13SAPS   C29 1649   5.167   3.018   7.141  0.1798 -0.1563  0.3098
   13SAPS   H9R 1650   5.188   2.918   7.183 -0.1804 -0.2383  0.2925
   13SAPS  C210 1651   5.192   3.135   7.238 -0.8873 -0.3894 -0.7359
   13SAPS  H10R 1652   5.252   3.216   7.191  0.9195  0.0510  2.2280
   13SAPS  H10S 1653   5.255   3.101   7.323  1.7929  0.2942 -2.4210
   13SAPS  C211 1654   5.067   3.203   7.288 -0.5542 -0.1188  0.1553
   13SAPS  H11R 1655   4.997   3.238   7.211  2.2534  0.2425 -2.3711
   13SAPS  C212 1656   5.037   3.234   7.416 -0.0880  0.1970  0.2882
   13SAPS  H12R 1657   4.947   3.295   7.436 -0.3653 -0.4436  1.0358
   13SAPS  C213 1658   5.117   3.208   7.538 -0.2856  0.1417 -0.2152
   13SAPS  H13R 1659   5.139   3.311   7.570 -1.6409  0.4048 -0.0989
   13SAPS  H13S 1660   5.216   3.158   7.525  0.0849  1.1601 -1.4359
   13SAPS  C214 1661   5.041   3.141   7.649  0.0145 -1.1558 -0.6145
   13SAPS  H14R 1662   4.936   3.116   7.628 -0.3806  1.0032 -1.3405
   13SAPS  C215 1663   5.092   3.145   7.778 -0.4119  0.0658  0.7523
   13SAPS  H15R 1664   5.038   3.105   7.864 -2.1418  0.9228  0.0895
   13SAPS  C216 1665   5.230   3.197   7.825 -0.1822  0.2526  0.0691
   13SAPS  H16R 1666   5.290   3.251   7.750  0.4422  1.0003  1.0887
   13SAPS  H16S 1667   5.294   3.110   7.852  1.2449  0.7537 -1.6680
   13SAPS  C217 1668   5.215   3.276   7.953  0.5380 -0.1076 -0.2220
   13SAPS  H17R 1669   5.167   3.204   8.024 -0.9459  0.2824 -0.8049
   13SAPS  H17S 1670   5.134   3.350   7.936 -1.1559 -1.4725  1.5462
   13SAPS  C218 1671   5.339   3.328   8.018 -0.4589  0.5219  0.2813
   13SAPS  H18R 1672   5.390   3.385   7.938 -2.5991  1.8479 -0.1613
   13SAPS  H18S 1673   5.417   3.251   8.038 -0.7870  0.3250  0.7884
   13SAPS  C219 1674   5.313   3.402   8.150 -0.1434  0.3752 -0.4508
   13SAPS  H19R 1675   5.254   3.496   8.137 -1.0728  0.0717  1.3687
   13SAPS  H19S 1676   5.411   3.435   8.190  0.0936 -2.3931  1.3728
   13SAPS  C220 1677   5.249   3.329   8.267 -0.5301  0.3356 -0.3095
   13SAPS  H20R 1678   5.308   3.360   8.356  2.5590 -0.4788 -2.0049
   13SAPS  H20S 1679   5.273   3.222   8.254  1.1165  0.8005 -1.1846
   13SAPS  H20T 1680   5.139   3.347   8.274 -0.5842 -0.7054  1.8368
   13SAPS   C33 1681   5.831   2.710   6.954  0.0899 -0.2789  0.0311
   13SAPS   H3X 1682   5.892   2.799   6.983 -0.2460 -0.2754  0.7290
   13SAPS   H3Y 1683   5.845   2.633   7.032 -0.8157 -0.7658 -0.2846
   13SAPS   C34 1684   5.680   2.745   6.939  0.2544  0.3406 -0.4141
   13SAPS   H4X 1685   5.613   2.660   6.914 -0.6420  1.5475 -2.2255
   13SAPS   H4Y 1686   5.673   2.823   6.859  0.5384 -0.4705 -1.2384
   13SAPS   C35 1687   5.632   2.808   7.065  0.1436  0.2986 -0.8430
   13SAPS   H5X 1688   5.523   2.827   7.057 -0.0138 -0.4065 -0.4273
   13SAPS   H5Y 1689   5.689   2.903   7.069  2.1024 -0.8434 -1.0829
   13SAPS   C36 1690   5.659   2.726   7.190 -0.1778 -0.2806 -0.8161
   13SAPS   H6X 1691   5.766   2.712   7.215 -0.2032 -0.3894 -0.7655
   13SAPS   H6Y 1692   5.608   2.629   7.169 -1.8177  0.5945 -0.9449
   13SAPS   C37 1693   5.591   2.802   7.310  0.4937 -0.1157 -0.3556
   13SAPS   H7X 1694   5.606   2.912   7.304  1.5122 -0.1990  0.5122
   13SAPS   H7Y 1695   5.658   2.774   7.395  0.0777 -0.9307 -0.2912
   13SAPS   C38 1696   5.442   2.781   7.325 -0.2963  0.1270  0.1235
   13SAPS   H8X 1697   5.407   2.676   7.314 -1.0803  0.5024 -1.0843
   13SAPS   H8Y 1698   5.397   2.827   7.234 -0.7412 -1.8817 -0.6922
   13SAPS   C39 1699   5.380   2.843   7.454 -0.1744  0.3059  0.4140
   13SAPS   H9X 1700   5.278   2.879   7.426 -0.5014 -1.1799 -0.3633
   13SAPS   H9Y 1701   5.421   2.945   7.470  1.8639 -0.8800  2.9497
   13SAPS  C310 1702   5.387   2.756   7.578  0.0644 -0.1181 -0.5012
   13SAPS  H10X 1703   5.487   2.708   7.582  0.3974  0.5172 -1.0628
   13SAPS  H10Y 1704   5.314   2.672   7.577  0.2149 -0.2525 -0.2664
   13SAPS  C311 1705   5.362   2.826   7.714  0.0852  1.1178  0.1273
   13SAPS  H11X 1706   5.261   2.872   7.708  0.5426  2.0761 -0.3825
   13SAPS  H11Y 1707   5.441   2.904   7.715 -0.3179  1.5292  0.0246
   13SAPS  C312 1708   5.378   2.734   7.836 -0.3569 -0.0221 -0.1825
   13SAPS  H12X 1709   5.467   2.668   7.836  0.3757  0.9417 -1.2642
   13SAPS  H12Y 1710   5.295   2.663   7.856 -2.4052  1.7619 -2.1484
   13SAPS  C313 1711   5.381   2.822   7.960 -0.0271  0.4084 -0.1660
   13SAPS  H13X 1712   5.440   2.912   7.933  0.6417  0.5698  1.7597
   13SAPS  H13Y 1713   5.437   2.772   8.041 -0.3935  2.0990  1.1841
   13SAPS  C314 1714   5.239   2.863   8.002 -0.7823  0.0372 -0.5947
   13SAPS  H14X 1715   5.168   2.844   7.919 -0.1042 -0.3360 -1.0922
   13SAPS  H14Y 1716   5.223   2.973   8.001  3.0620  0.6772 -0.0295
   13SAPS  C315 1717   5.192   2.785   8.123 -0.4664 -0.2335 -0.2040
   13SAPS  H15X 1718   5.246   2.809   8.217 -1.4158  2.3784 -0.2839
   13SAPS  H15Y 1719   5.215   2.677   8.109  2.8687 -0.1819  3.7462
   13SAPS  C316 1720   5.045   2.818   8.159  0.2046  0.1656  0.2844
   13SAPS  H16X 1721   4.982   2.792   8.071 -0.5513 -1.4793  1.2971
   13SAPS  H16Y 1722   5.036   2.928   8.175  2.3344  0.5071 -0.6835
   13SAPS  C317 1723   4.983   2.759   8.290  0.0550 -0.1402 -0.3536
   13SAPS  H17X 1724   4.999   2.650   8.276 -1.2311 -0.4352  0.3230
   13SAPS  H17Y 1725   4.873   2.775   8.283 -0.2899 -2.1209  0.2081
   13SAPS  C318 1726   5.034   2.816   8.420  0.9202 -0.1935 -0.7004
   13SAPS  H18X 1727   4.983   2.907   8.459 -0.0523 -1.4365  0.9693
   13SAPS  H18Y 1728   5.144   2.829   8.421  0.8791  0.4414 -2.8402
   13SAPS  H18Z 1729   5.015   2.732   8.491 -0.9628 -0.7105 -1.7967
   14SAPS     N 1730   4.675   5.500   5.864 -0.0894  0.3009  0.0556
   14SAPS   HN1 1731   4.676   5.472   5.764  2.0440  1.6021 -0.3186
   14SAPS   HN2 1732   4.618   5.587   5.871  1.0155  1.2581 -2.2220
   14SAPS   HN3 1733   4.777   5.512   5.882 -0.2171 -0.3522  1.2658
   14SAPS   C12 1734   4.642   5.367   5.937  0.0704  0.4860  1.0279
   14SAPS  H12A 1735   4.650   5.394   6.041  1.2724 -1.7070  1.5423
   14SAPS   C13 1736   4.495   5.314   5.906 -0.3116 -0.7161 -0.1194
   14SAPS  O13A 1737   4.423   5.375   5.829 -0.4537  0.1638 -0.3061
   14SAPS  O13B 1738   4.448   5.236   5.992  0.2652 -0.1371 -0.9031
   14SAPS   C11 1739   4.752   5.257   5.904 -0.4316  0.5884  0.1272
   14SAPS  H11A 1740   4.738   5.246   5.794 -1.4567  1.3554  0.1661
   14SAPS  H11B 1741   4.734   5.161   5.955  0.9044  0.8013  1.0148
   14SAPS     P 1742   5.005   5.223   5.922 -0.3773  0.1880  0.1652
   14SAPS   O13 1743   4.970   5.095   5.861  0.0263 -0.7539 -0.3730
   14SAPS   O14 1744   5.121   5.298   5.866  0.0725 -0.0613  0.5773
   14SAPS   O12 1745   4.880   5.319   5.929  0.0794  0.2042 -0.1992
   14SAPS   O11 1746   5.031   5.197   6.074  0.3198  0.3777  0.5079
   14SAPS    C1 1747   4.949   5.108   6.150  0.3239  0.6451 -0.4363
   14SAPS    HA 1748   4.844   5.098   6.115  0.8604  1.4061 -2.3551
   14SAPS    HB 1749   4.993   5.006   6.151  0.4293  0.6968  1.7253
   14SAPS    C2 1750   4.952   5.148   6.304 -0.0020 -0.5854  0.0759
   14SAPS    HS 1751   4.892   5.240   6.316 -0.3563 -0.7957 -0.0655
   14SAPS   O21 1752   5.093   5.167   6.352 -0.2005 -0.1014  0.0619
   14SAPS   C21 1753   5.134   5.291   6.371  0.8301  0.4703  0.2405
   14SAPS   O22 1754   5.067   5.393   6.353 -0.1527 -0.2184  0.7998
   14SAPS   C22 1755   5.271   5.295   6.434  0.0193 -0.6050  0.5889
   14SAPS   H2R 1756   5.340   5.232   6.373 -1.8409 -0.9657 -1.2204
   14SAPS   H2S 1757   5.305   5.400   6.423  0.8584 -0.5813  3.1540
   14SAPS    C3 1758   4.875   5.044   6.397 -0.0078 -0.5552  0.3547
   14SAPS    HX 1759   4.935   4.952   6.413 -0.0169 -1.1561 -2.7487
   14SAPS    HY 1760   4.784   5.008   6.343  0.6099 -0.6983 -0.6130
   14SAPS   O31 1761   4.865   5.112   6.520 -0.2364 -0.6143 -0.0655
   14SAPS   C31 1762   4.744   5.130   6.583  0.1012  0.5353  0.1665
   14SAPS   O32 1763   4.638   5.092   6.534 -0.3023 -0.3217  0.5985
   14SAPS   C32 1764   4.766   5.167   6.726 -0.3129 -1.0547 -0.4693
   14SAPS   H2X 1765   4.852   5.237   6.733 -1.3512  0.1601  0.4847
   14SAPS   H2Y 1766   4.799   5.077   6.783 -1.2383 -1.7054 -0.9471
   14SAPS   C23 1767   5.274   5.258   6.586  0.0881 -0.2534  0.4731
   14SAPS   H3R 1768   5.377   5.269   6.626  0.9286 -0.8557 -1.4548
   14SAPS   H3S 1769   5.260   5.149   6.602  0.1970 -0.3406 -0.0047
   14SAPS   C24 1770   5.173   5.337   6.680 -0.3681  0.2960  0.2603
   14SAPS   H4R 1771   5.178   5.305   6.786  2.6405 -2.1795 -0.5718
   14SAPS   H4S 1772   5.072   5.308   6.643 -0.2362  0.2586 -0.0653
   14SAPS   C25 1773   5.202   5.484   6.682 -1.1723  0.0092 -0.5694
   14SAPS   H5R 1774   5.264   5.523   6.600 -0.6933 -1.0872 -0.7479
   14SAPS   C26 1775   5.157   5.575   6.774 -0.0517 -0.0138 -0.4793
   14SAPS   H6R 1776   5.162   5.682   6.750 -0.2240  0.1208  0.1014
   14SAPS   C27 1777   5.070   5.537   6.887 -0.9984  0.0635 -0.3945
   14SAPS   H7R 1778   5.089   5.606   6.972 -0.8790 -1.2980  0.7078
   14SAPS   H7S 1779   5.095   5.436   6.925  0.5330  0.4706 -0.3031
   14SAPS   C28 1780   4.927   5.541   6.846  1.7381 -0.5864  0.7707
   14SAPS   H8R 1781   4.913   5.512   6.741  0.2086  0.5039  0.6674
   14SAPS   C29 1782   4.821   5.582   6.923  0.5193 -0.0165  0.6361
   14SAPS   H9R 1783   4.718   5.570   6.887  0.8122 -1.8920  0.3725
   14SAPS  C210 1784   4.827   5.637   7.063 -0.5039 -0.3523 -0.6064
   14SAPS  H10R 1785   4.918   5.603   7.117 -1.0099 -0.6260  0.0829
   14SAPS  H10S 1786   4.748   5.590   7.125 -0.2887 -1.9540 -1.4973
   14SAPS  C211 1787   4.813   5.781   7.084  0.1504 -0.1833 -0.5944
   14SAPS  H11R 1788   4.778   5.842   6.999  0.7075  0.7156 -0.1880
   14SAPS  C212 1789   4.813   5.845   7.199  0.5058  0.1950  0.5255
   14SAPS  H12R 1790   4.794   5.952   7.189 -1.5118 -0.2397 -0.5478
   14SAPS  C213 1791   4.840   5.783   7.335  0.0659  0.0572 -0.4804
   14SAPS  H13R 1792   4.909   5.856   7.382 -1.5980  1.0616  0.4686
   14SAPS  H13S 1793   4.893   5.686   7.327  0.6099  0.3758 -0.7834
   14SAPS  C214 1794   4.719   5.757   7.426 -0.3542  0.6684 -0.3289
   14SAPS  H14R 1795   4.624   5.728   7.379 -0.6756  0.0695  0.6584
   14SAPS  C215 1796   4.719   5.750   7.562 -0.3935 -0.2965 -0.4218
   14SAPS  H15R 1797   4.625   5.755   7.618  0.4703  1.3490  0.9246
   14SAPS  C216 1798   4.838   5.777   7.649 -0.3419 -0.5380 -0.4572
   14SAPS  H16R 1799   4.807   5.803   7.752  1.0967  0.5500 -0.2862
   14SAPS  H16S 1800   4.910   5.855   7.618  1.9079 -2.7276 -0.8429
   14SAPS  C217 1801   4.915   5.646   7.658 -0.2648 -0.1124  0.6872
   14SAPS  H17R 1802   4.946   5.617   7.555 -1.0934  0.7488  0.1897
   14SAPS  H17S 1803   4.837   5.577   7.699  1.5073 -2.6111 -0.0141
   14SAPS  C218 1804   5.039   5.636   7.745 -0.3956 -0.0191 -0.0622
   14SAPS  H18R 1805   5.019   5.694   7.838 -0.8776  1.8582 -1.3133
   14SAPS  H18S 1806   5.127   5.685   7.699 -0.5533  3.3563  2.9857
   14SAPS  C219 1807   5.067   5.485   7.787 -0.4121  0.3336 -0.6656
   14SAPS  H19R 1808   5.062   5.414   7.702 -0.9393  0.7161 -0.9633
   14SAPS  H19S 1809   4.984   5.453   7.855 -0.3638  1.1690 -0.2064
   14SAPS  C220 1810   5.195   5.468   7.864 -0.3016 -0.5102 -0.6353
   14SAPS  H20R 1811   5.199   5.532   7.955  2.2819 -1.1093 -0.2764
   14SAPS  H20S 1812   5.286   5.489   7.803  1.0186 -0.4205  1.3267
   14SAPS  H20T 1813   5.196   5.364   7.905  3.3379 -0.6332 -0.8576
   14SAPS   C33 1814   4.637   5.221   6.786 -0.5022  0.6381  0.7560
   14SAPS   H3X 1815   4.547   5.157   6.779 -1.0872  1.4225  1.0116
   14SAPS   H3Y 1816   4.617   5.322   6.743 -1.4400 -0.0282 -0.3727
   14SAPS   C34 1817   4.651   5.241   6.938 -0.4788 -0.3884 -0.7564
   14SAPS   H4X 1818   4.735   5.310   6.959  0.9415 -2.3605  0.2146
   14SAPS   H4Y 1819   4.682   5.144   6.983  0.2173  1.0847  2.0626
   14SAPS   C35 1820   4.514   5.288   6.998 -0.6807 -0.3660  0.3395
   14SAPS   H5X 1821   4.451   5.199   6.973  0.2119 -0.8923 -0.0604
   14SAPS   H5Y 1822   4.465   5.368   6.939  0.3762  0.2133  0.2496
   14SAPS   C36 1823   4.513   5.306   7.150 -0.3549  0.3763  0.2267
   14SAPS   H6X 1824   4.547   5.410   7.171 -0.7457  0.3491  1.0092
   14SAPS   H6Y 1825   4.581   5.243   7.212 -1.4846 -0.3496  0.7486
   14SAPS   C37 1826   4.364   5.285   7.204 -0.1336  0.3340  0.2284
   14SAPS   H7X 1827   4.310   5.198   7.162  0.0457  0.6532 -0.6815
   14SAPS   H7Y 1828   4.314   5.368   7.149  1.1818  0.5251 -0.7356
   14SAPS   C38 1829   4.345   5.286   7.352  1.5930  0.2181 -0.0294
   14SAPS   H8X 1830   4.396   5.377   7.391 -0.6491  2.3459 -1.9246
   14SAPS   H8Y 1831   4.384   5.193   7.401 -3.1539 -1.3864  0.9484
   14SAPS   C39 1832   4.191   5.287   7.389  0.1522  0.0078 -0.1025
   14SAPS   H9X 1833   4.142   5.191   7.364  0.5254  0.0419 -0.9955
   14SAPS   H9Y 1834   4.142   5.373   7.339  1.3021  0.9584  0.3817
   14SAPS  C310 1835   4.165   5.311   7.545  0.1186  0.2797  0.4072
   14SAPS  H10X 1836   4.055   5.327   7.550  0.2007  2.0118 -2.2601
   14SAPS  H10Y 1837   4.210   5.406   7.580 -1.5636  0.9187  0.8804
   14SAPS  C311 1838   4.203   5.196   7.635  0.6443 -0.1726 -0.7438
   14SAPS  H11X 1839   4.313   5.179   7.632  0.8041  0.8671 -0.7104
   14SAPS  H11Y 1840   4.160   5.102   7.593 -2.1728  0.4624  0.6055
   14SAPS  C312 1841   4.142   5.219   7.769 -0.0235  0.0109  0.7708
   14SAPS  H12X 1842   4.032   5.220   7.752 -0.2704 -2.5452  1.9327
   14SAPS  H12Y 1843   4.180   5.316   7.809  1.2750 -0.2472  0.1635
   14SAPS  C313 1844   4.179   5.113   7.879  0.3504 -1.1759  0.8374
   14SAPS  H13X 1845   4.288   5.114   7.900  0.7795  0.7051 -1.2636
   14SAPS  H13Y 1846   4.159   5.010   7.843 -0.6695 -0.8035  0.3349
   14SAPS  C314 1847   4.103   5.142   8.013  0.0978 -0.0863 -0.7368
   14SAPS  H14X 1848   4.114   5.251   8.035  1.3177 -0.2009 -0.7428
   14SAPS  H14Y 1849   4.145   5.084   8.098  0.0890  0.5635 -0.2879
   14SAPS  C315 1850   3.962   5.094   8.013  0.1567 -0.6387  0.1599
   14SAPS  H15X 1851   3.961   4.985   8.032  3.4412 -0.4644  1.7736
   14SAPS  H15Y 1852   3.921   5.119   7.913  0.3168 -1.3331 -0.0812
   14SAPS  C316 1853   3.866   5.148   8.124 -0.4706  0.0945 -0.8276
   14SAPS  H16X 1854   3.761   5.120   8.103 -0.3434 -0.6318 -0.4824
   14SAPS  H16Y 1855   3.874   5.259   8.124  0.8252  0.0846  2.8458
   14SAPS  C317 1856   3.904   5.086   8.265  0.4794  0.4029 -0.5859
   14SAPS  H17X 1857   4.009   5.115   8.289  0.1808  0.3493  0.8467
   14SAPS  H17Y 1858   3.895   4.976   8.251 -0.2074  0.2882  0.6663
   14SAPS  C318 1859   3.815   5.127   8.382  0.2518  0.4612  0.2316
   14SAPS  H18X 1860   3.847   5.060   8.465  1.3445  0.4868 -0.1660
   14SAPS  H18Y 1861   3.708   5.114   8.354 -0.2527 -1.4388  2.8362
   14SAPS  H18Z 1862   3.835   5.230   8.420  0.9612  1.2444 -2.1929
   15SAPS     N 1863   5.682   5.329   5.973  0.1953  0.4297 -0.3358
   15SAPS   HN1 1864   5.599   5.352   6.031  0.5317  0.8862 -0.0256
   15SAPS   HN2 1865   5.749   5.266   6.022 -0.2678  0.2455  0.0679
   15SAPS   HN3 1866   5.718   5.423   5.944  0.9564  0.5590  0.9916
   15SAPS   C12 1867   5.626   5.254   5.847  0.0131  0.3713 -0.0977
   15SAPS  H12A 1868   5.553   5.316   5.798 -1.4388 -0.5682  0.8248
   15SAPS   C13 1869   5.735   5.210   5.754 -0.5377 -0.0301  0.3168
   15SAPS  O13A 1870   5.856   5.241   5.776  0.3048  0.0119 -0.6200
   15SAPS  O13B 1871   5.696   5.131   5.661 -0.5510  0.0814 -0.0407
   15SAPS   C11 1872   5.536   5.135   5.900 -0.2418 -0.1236 -0.1227
   15SAPS  H11A 1873   5.493   5.082   5.813  1.4111  1.4853 -1.9497
   15SAPS  H11B 1874   5.447   5.181   5.949 -0.9913  2.3961 -3.6347
   15SAPS     P 1875   5.570   4.912   6.044  0.7325  0.0957 -0.0481
   15SAPS   O13 1876   5.426   4.911   6.073  0.3594 -0.1320 -0.5251
   15SAPS   O14 1877   5.620   4.803   5.959  0.2742 -0.3482  0.0737
   15SAPS   O12 1878   5.611   5.052   5.984 -0.8979 -0.0420 -0.2019
   15SAPS   O11 1879   5.636   4.895   6.188 -0.6458 -0.0382  0.4892
   15SAPS    C1 1880   5.649   5.002   6.275  0.8003  0.2568  0.0567
   15SAPS    HA 1881   5.757   5.025   6.279  0.5513  1.5014 -0.2022
   15SAPS    HB 1882   5.607   5.101   6.246 -1.3710 -0.1615  1.5858
   15SAPS    C2 1883   5.589   4.963   6.412 -0.0549 -0.5002  0.4620
   15SAPS    HS 1884   5.648   4.875   6.447 -0.1545 -1.0165 -0.6622
   15SAPS   O21 1885   5.448   4.943   6.388  0.6737 -0.1122 -0.2182
   15SAPS   C21 1886   5.390   4.853   6.466  0.1844 -0.1080 -0.3803
   15SAPS   O22 1887   5.443   4.779   6.544 -0.1135  0.3403 -0.4023
   15SAPS   C22 1888   5.239   4.856   6.445  0.0037  0.1768  0.7189
   15SAPS   H2R 1889   5.208   4.960   6.420 -3.2910 -1.0050 -0.3677
   15SAPS   H2S 1890   5.218   4.786   6.361  2.0903 -0.8196  0.9823
   15SAPS    C3 1891   5.618   5.076   6.524 -0.3606  0.3876 -0.6911
   15SAPS    HX 1892   5.562   5.170   6.499 -1.3814 -0.5450 -2.0026
   15SAPS    HY 1893   5.727   5.094   6.516 -0.3872  1.0436  0.2552
   15SAPS   O31 1894   5.582   5.027   6.655 -0.0300 -0.3904  0.3257
   15SAPS   C31 1895   5.674   4.963   6.721 -0.4564  0.2359  0.1174
   15SAPS   O32 1896   5.790   4.942   6.683 -0.0543  0.1711  0.2118
   15SAPS   C32 1897   5.637   4.931   6.863  0.0380  0.2560 -0.2502
   15SAPS   H2X 1898   5.615   5.026   6.916  2.3726  1.0113 -0.5839
   15SAPS   H2Y 1899   5.724   4.880   6.910 -0.1036  0.8565  0.6827
   15SAPS   C23 1900   5.161   4.800   6.566  0.0774 -0.6489  0.2899
   15SAPS   H3R 1901   5.209   4.708   6.607  3.7655 -0.5664 -3.5462
   15SAPS   H3S 1902   5.065   4.762   6.525  0.0474 -0.1878 -0.0598
   15SAPS   C24 1903   5.130   4.909   6.670  0.2128  0.1249  0.4961
   15SAPS   H4R 1904   5.061   4.979   6.617  2.8493  0.6753 -2.3583
   15SAPS   H4S 1905   5.224   4.964   6.690 -0.1428  1.1365 -0.5603
   15SAPS   C25 1906   5.066   4.851   6.793 -0.1286  0.8453 -0.6620
   15SAPS   H5R 1907   5.022   4.751   6.781  1.5546 -0.4405  3.1494
   15SAPS   C26 1908   5.068   4.900   6.915  0.0352 -0.7375  0.7567
   15SAPS   H6R 1909   5.015   4.851   6.998  0.4271  0.0697  1.5003
   15SAPS   C27 1910   5.128   5.031   6.952 -0.2585  0.4748  0.4007
   15SAPS   H7R 1911   5.188   5.065   6.865 -1.4614  1.1105 -0.1887
   15SAPS   H7S 1912   5.198   5.007   7.035 -1.6856  0.2991  1.5685
   15SAPS   C28 1913   5.036   5.138   7.001  0.5037  0.1131  0.2086
   15SAPS   H8R 1914   4.989   5.195   6.919 -2.7820  0.7749  2.4460
   15SAPS   C29 1915   4.997   5.171   7.122 -0.0430  0.3063  0.3649
   15SAPS   H9R 1916   4.921   5.250   7.133  0.3588  0.5450  1.5291
   15SAPS  C210 1917   5.031   5.109   7.255 -0.4336  0.4554  0.0615
   15SAPS  H10R 1918   5.114   5.035   7.255  0.7736  1.7376 -2.5158
   15SAPS  H10S 1919   4.938   5.054   7.282  0.4176 -0.0066  2.1074
   15SAPS  C211 1920   5.070   5.211   7.363 -0.4408 -0.2498 -0.0987
   15SAPS  H11R 1921   5.178   5.225   7.373 -0.6035 -0.0820  1.6237
   15SAPS  C212 1922   4.986   5.270   7.453 -0.0353 -0.0645  0.1812
   15SAPS  H12R 1923   5.029   5.356   7.507 -0.5678 -0.2471  0.9021
   15SAPS  C213 1924   4.835   5.240   7.464 -0.0850  0.2120  0.7864
   15SAPS  H13R 1925   4.824   5.171   7.550  0.0591 -0.9714 -0.1304
   15SAPS  H13S 1926   4.794   5.175   7.384  0.0726  2.0530 -0.8196
   15SAPS  C214 1927   4.751   5.358   7.460  0.1846  0.8272  0.2865
   15SAPS  H14R 1928   4.754   5.426   7.373  0.2545  0.4086 -0.0400
   15SAPS  C215 1929   4.667   5.390   7.565 -0.3920  1.0971 -0.1995
   15SAPS  H15R 1930   4.603   5.479   7.564 -2.0605 -0.0566  1.2657
   15SAPS  C216 1931   4.640   5.310   7.685  0.3516  0.4379  0.0578
   15SAPS  H16R 1932   4.717   5.240   7.725  0.5681  2.1872  2.8679
   15SAPS  H16S 1933   4.560   5.236   7.664 -0.5530  0.8618  1.8876
   15SAPS  C217 1934   4.588   5.379   7.807 -0.0438  0.1819 -0.3792
   15SAPS  H17R 1935   4.494   5.433   7.782 -1.2573 -1.9196 -0.4158
   15SAPS  H17S 1936   4.666   5.454   7.834 -0.4048  0.5951 -0.4829
   15SAPS  C218 1937   4.554   5.283   7.924  0.1346 -0.2875  0.6979
   15SAPS  H18R 1938   4.638   5.214   7.949  0.0845 -0.5110  0.2389
   15SAPS  H18S 1939   4.477   5.215   7.883 -1.0585  1.7109 -0.4638
   15SAPS  C219 1940   4.493   5.343   8.053  0.2029  0.0732  0.2209
   15SAPS  H19R 1941   4.398   5.397   8.030  0.1801  0.5126  1.3290
   15SAPS  H19S 1942   4.559   5.410   8.111 -0.9481  0.3177  1.2651
   15SAPS  C220 1943   4.458   5.229   8.151  0.2473 -0.4268 -0.4720
   15SAPS  H20R 1944   4.551   5.174   8.177 -1.1216 -2.6719 -0.2203
   15SAPS  H20S 1945   4.391   5.162   8.094 -0.8273  1.9633 -2.1049
   15SAPS  H20T 1946   4.407   5.256   8.247  1.9624 -1.0992  0.6531
   15SAPS   C33 1947   5.523   4.831   6.868 -0.3732  0.2954  0.4969
   15SAPS   H3X 1948   5.537   4.734   6.815 -1.6474  0.7649 -0.7488
   15SAPS   H3Y 1949   5.430   4.884   6.836 -1.3637 -0.5602  1.8866
   15SAPS   C34 1950   5.500   4.771   7.011 -0.2906 -0.8380  0.9124
   15SAPS   H4X 1951   5.474   4.857   7.076 -0.7051 -0.1975 -0.0783
   15SAPS   H4Y 1952   5.599   4.736   7.049 -0.5314 -0.8679  1.5109
   15SAPS   C35 1953   5.389   4.670   7.018 -0.0621  0.7636 -0.1133
   15SAPS   H5X 1954   5.425   4.578   6.969 -0.0917  1.1872 -0.9323
   15SAPS   H5Y 1955   5.305   4.706   6.954 -2.1455 -0.4932  1.8576
   15SAPS   C36 1956   5.348   4.639   7.160  0.3062  0.2898 -0.3176
   15SAPS   H6X 1957   5.437   4.615   7.221  0.7537  0.4494 -0.9069
   15SAPS   H6Y 1958   5.272   4.558   7.158  1.9834 -1.2815 -1.6505
   15SAPS   C37 1959   5.271   4.749   7.229  0.2207 -0.0478  0.1955
   15SAPS   H7X 1960   5.173   4.768   7.180  0.7213 -0.2262 -0.8747
   15SAPS   H7Y 1961   5.322   4.847   7.223  0.6661 -0.2873  0.1077
   15SAPS   C38 1962   5.250   4.712   7.379  0.1321 -0.7089 -0.0255
   15SAPS   H8X 1963   5.354   4.694   7.415  0.3324  3.3053  1.6860
   15SAPS   H8Y 1964   5.201   4.615   7.403  0.5068 -1.4285 -2.0763
   15SAPS   C39 1965   5.191   4.814   7.465 -0.4626 -0.6287  0.3321
   15SAPS   H9X 1966   5.082   4.834   7.457 -0.2978 -1.1254 -3.9772
   15SAPS   H9Y 1967   5.239   4.911   7.439  1.4794 -1.3805  1.0236
   15SAPS  C310 1968   5.212   4.808   7.611  0.4359 -0.2158 -0.2348
   15SAPS  H10X 1969   5.317   4.823   7.643  1.4356 -1.2680 -2.9236
   15SAPS  H10Y 1970   5.193   4.704   7.644 -1.6233 -0.0859 -0.9305
   15SAPS  C311 1971   5.124   4.917   7.670 -0.4244 -0.1291 -0.1601
   15SAPS  H11X 1972   5.018   4.893   7.648 -1.0725  2.7817 -0.3277
   15SAPS  H11Y 1973   5.153   5.008   7.613 -0.7870 -1.1919 -2.0798
   15SAPS  C312 1974   5.134   4.932   7.822 -0.2853 -1.0678  0.3563
   15SAPS  H12X 1975   5.235   4.931   7.868 -0.8856 -0.3864  1.7165
   15SAPS  H12Y 1976   5.082   4.841   7.860 -1.3571  0.3511  2.3292
   15SAPS  C313 1977   5.053   5.058   7.866  0.1294  0.2698 -0.2991
   15SAPS  H13X 1978   4.947   5.040   7.838 -0.1626  1.9580 -0.2841
   15SAPS  H13Y 1979   5.088   5.152   7.818 -0.8206  0.6048 -0.3499
   15SAPS  C314 1980   5.056   5.076   8.010  0.1134 -0.1122  0.5135
   15SAPS  H14X 1981   5.160   5.099   8.044 -0.4050  1.4870  1.0571
   15SAPS  H14Y 1982   5.015   4.989   8.066 -0.8122  0.5047  0.7930
   15SAPS  C315 1983   4.964   5.194   8.047  0.1502  0.1079 -0.4644
   15SAPS  H15X 1984   4.866   5.165   8.005  0.1242 -0.1639 -0.2146
   15SAPS  H15Y 1985   4.995   5.284   7.990  0.3198 -0.6848 -1.6337
   15SAPS  C316 1986   4.963   5.224   8.191 -0.5685 -0.1736  0.2897
   15SAPS  H16X 1987   5.058   5.275   8.220  0.6181  0.0778 -3.7794
   15SAPS  H16Y 1988   4.963   5.125   8.243 -1.0192 -0.0643  0.4941
   15SAPS  C317 1989   4.845   5.310   8.237  0.0236 -0.3848 -0.1133
   15SAPS  H17X 1990   4.852   5.326   8.346  1.3630 -1.3889 -0.0435
   15SAPS  H17Y 1991   4.748   5.263   8.207  1.0235 -2.2211 -0.5379
   15SAPS  C318 1992   4.855   5.448   8.175 -0.3641  0.1783  0.1490
   15SAPS  H18X 1993   4.843   5.455   8.065 -1.0752  0.2565  0.2274
   15SAPS  H18Y 1994   4.948   5.502   8.205 -0.9931  2.6269 -2.1457
   15SAPS  H18Z 1995   4.774   5.517   8.207  0.3386  0.2412  1.8319
   16SAPS     N 1996   0.643   5.938   6.532 -0.1218  0.0586  0.1695
   16SAPS   HN1 1997   0.597   5.850   6.502  0.8022 -0.1385 -0.6785
   16SAPS   HN2 1998   0.633   5.935   6.636  0.1843 -2.0625  0.1496
   16SAPS   HN3 1999   0.587   6.021   6.502 -0.2317 -0.5017 -1.2102
   16SAPS   C12 2000   0.780   5.929   6.490 -0.0737 -0.4784  0.0370
   16SAPS  H12A 2001   0.818   5.847   6.548 -1.2431 -0.2050  1.2268
   16SAPS   C13 2002   0.803   5.887   6.343 -0.4722 -0.8341  0.6714
   16SAPS  O13A 2003   0.700   5.837   6.289 -0.8584 -0.7296  0.1542
   16SAPS  O13B 2004   0.919   5.854   6.301 -0.1134  0.4290 -0.4124
   16SAPS   C11 2005   0.849   6.062   6.499  0.2465  0.0033 -0.2239
   16SAPS  H11A 2006   0.807   6.124   6.417  0.4385  1.0071  0.4234
   16SAPS  H11B 2007   0.959   6.045   6.489  0.0602 -0.0019 -2.5960
   16SAPS     P 2008   0.833   6.282   6.646 -0.0205 -0.4534 -0.5325
   16SAPS   O13 2009   0.923   6.302   6.758 -0.4698  0.7376  0.3961
   16SAPS   O14 2010   0.870   6.355   6.522 -0.3229  0.6092  0.0081
   16SAPS   O12 2011   0.820   6.129   6.624 -0.0511 -0.5917 -0.1105
   16SAPS   O11 2012   0.684   6.327   6.691 -0.2591 -0.1711  0.0734
   16SAPS    C1 2013   0.620   6.252   6.793  0.2016  0.2366 -0.1229
   16SAPS    HA 2014   0.554   6.177   6.745  0.2484  0.5497 -0.6825
   16SAPS    HB 2015   0.692   6.193   6.853  2.1001  0.0817 -2.4672
   16SAPS    C2 2016   0.541   6.341   6.887  0.0395 -0.3407 -0.2993
   16SAPS    HS 2017   0.463   6.405   6.840 -0.8019 -2.5419 -2.0047
   16SAPS   O21 2018   0.644   6.418   6.960  0.6366  0.4243  0.5170
   16SAPS   C21 2019   0.677   6.527   6.901 -0.8123 -0.0807  0.2716
   16SAPS   O22 2020   0.627   6.565   6.796  0.2782 -0.1234 -0.2967
   16SAPS   C22 2021   0.789   6.596   6.978 -0.6880 -0.2650  0.1254
   16SAPS   H2R 2022   0.783   6.569   7.086  1.5353 -0.6126  0.1868
   16SAPS   H2S 2023   0.884   6.549   6.946 -0.7392 -0.2265 -0.0850
   16SAPS    C3 2024   0.460   6.255   6.997  0.2158  0.0922  0.1352
   16SAPS    HX 2025   0.521   6.178   7.051  1.0964  1.5653  1.2708
   16SAPS    HY 2026   0.398   6.200   6.924  2.1484 -1.9730 -0.0291
   16SAPS   O31 2027   0.378   6.332   7.094  0.0858 -0.6443 -0.8521
   16SAPS   C31 2028   0.269   6.393   7.055 -0.2982  0.2461  0.2236
   16SAPS   O32 2029   0.233   6.382   6.940  0.4794  0.7417  0.3103
   16SAPS   C32 2030   0.196   6.472   7.161 -0.1144 -0.3688  1.0242
   16SAPS   H2X 2031   0.092   6.433   7.167 -0.2548  0.2299  2.5450
   16SAPS   H2Y 2032   0.186   6.573   7.116 -1.3876 -0.4588  1.0909
   16SAPS   C23 2033   0.792   6.752   6.952 -0.8805 -0.1995  0.0301
   16SAPS   H3R 2034   0.698   6.797   6.991 -0.7365  1.3832 -1.3621
   16SAPS   H3S 2035   0.793   6.761   6.841 -1.7942  0.6379  0.0856
   16SAPS   C24 2036   0.913   6.823   7.012  0.0112 -0.0663  0.2709
   16SAPS   H4R 2037   1.007   6.772   6.981 -1.3388 -1.6033 -1.3774
   16SAPS   H4S 2038   0.915   6.808   7.122  2.6357  1.1707  0.4378
   16SAPS   C25 2039   0.918   6.971   6.982 -0.2764  0.6530 -0.1488
   16SAPS   H5R 2040   0.971   7.001   6.890  0.7455  1.5038  0.7043
   16SAPS   C26 2041   0.862   7.064   7.059  0.4088  0.4695  0.8594
   16SAPS   H6R 2042   0.891   7.168   7.039  0.7976  0.6445  2.2950
   16SAPS   C27 2043   0.781   7.053   7.181 -0.5843  0.7424 -0.0669
   16SAPS   H7R 2044   0.857   7.060   7.262  1.4705  1.4141 -1.9990
   16SAPS   H7S 2045   0.727   6.956   7.185 -1.3484  1.1513 -0.2845
   16SAPS   C28 2046   0.687   7.171   7.188 -0.6695 -0.0112  0.0500
   16SAPS   H8R 2047   0.624   7.180   7.098 -1.4479 -0.8552  0.5076
   16SAPS   C29 2048   0.669   7.258   7.294  0.2907  0.5075 -0.4045
   16SAPS   H9R 2049   0.597   7.340   7.286  0.8586  0.9019 -1.4818
   16SAPS  C210 2050   0.735   7.258   7.431 -0.7626  0.3088  0.0926
   16SAPS  H10R 2051   0.749   7.363   7.466 -2.1440  0.1851  1.0682
   16SAPS  H10S 2052   0.837   7.215   7.422 -0.1491  1.6672  0.5006
   16SAPS  C211 2053   0.652   7.176   7.528 -0.0187 -0.1493 -1.0389
   16SAPS  H11R 2054   0.573   7.115   7.482 -1.5531 -0.5239  1.9603
   16SAPS  C212 2055   0.654   7.181   7.661 -0.1665  0.0065 -0.1144
   16SAPS  H12R 2056   0.595   7.105   7.715  1.5222 -1.7942 -0.7648
   16SAPS  C213 2057   0.737   7.269   7.753  0.6252 -0.3604 -0.7026
   16SAPS  H13R 2058   0.658   7.316   7.816  2.2546  1.1420  0.2554
   16SAPS  H13S 2059   0.770   7.357   7.694 -0.1082 -0.5174 -1.3609
   16SAPS  C214 2060   0.849   7.211   7.832 -0.0812  0.1896  0.5393
   16SAPS  H14R 2061   0.941   7.181   7.780 -0.3184  0.9263 -0.3304
   16SAPS  C215 2062   0.827   7.187   7.961  0.1710  0.1797 -0.7441
   16SAPS  H15R 2063   0.900   7.142   8.029 -2.0239  1.2325  2.4218
   16SAPS  C216 2064   0.692   7.215   8.033 -0.4253 -0.9503 -0.1011
   16SAPS  H16R 2065   0.608   7.179   7.970  0.5724 -0.2219 -1.8855
   16SAPS  H16S 2066   0.685   7.326   8.030  1.4279 -0.6882  2.9592
   16SAPS  C217 2067   0.676   7.191   8.192  0.2873  0.3340 -0.4522
   16SAPS  H17R 2068   0.592   7.252   8.233 -0.3731 -0.4694 -0.5752
   16SAPS  H17S 2069   0.772   7.208   8.244 -0.1377  4.2610 -0.8046
   16SAPS  C218 2070   0.649   7.040   8.233 -0.3830  0.2796  0.0238
   16SAPS  H18R 2071   0.724   6.970   8.191 -0.0544  1.4626 -1.4019
   16SAPS  H18S 2072   0.552   7.020   8.182  0.9572 -0.7996 -2.1712
   16SAPS  C219 2073   0.650   7.015   8.384  0.3072  0.2677  0.2506
   16SAPS  H19R 2074   0.579   7.087   8.429  1.0324  0.8352  0.5144
   16SAPS  H19S 2075   0.749   7.046   8.425  0.2645 -0.0084  0.5655
   16SAPS  C220 2076   0.623   6.873   8.428  0.7520 -0.2699  0.3841
   16SAPS  H20R 2077   0.535   6.834   8.375  0.1755  1.3504  0.1212
   16SAPS  H20S 2078   0.604   6.860   8.537 -0.0736  2.7683  0.6549
   16SAPS  H20T 2079   0.708   6.809   8.397 -1.2846 -1.9033 -1.9709
   16SAPS   C33 2080   0.258   6.460   7.297  0.0612 -0.3390  0.3893
   16SAPS   H3X 2081   0.362   6.497   7.291 -0.3404  0.6788 -0.4042
   16SAPS   H3Y 2082   0.260   6.352   7.323 -0.9402 -0.0778  1.6255
   16SAPS   C34 2083   0.184   6.538   7.408  0.2801  0.9597  0.3923
   16SAPS   H4X 2084   0.122   6.622   7.370 -2.0210 -0.5013  0.8778
   16SAPS   H4Y 2085   0.262   6.592   7.466 -0.4369 -0.0186  2.2786
   16SAPS   C35 2086   0.103   6.462   7.510  0.2373  0.2485 -0.8394
   16SAPS   H5X 2087   0.160   6.374   7.547 -1.0346 -0.5486 -0.7751
   16SAPS   H5Y 2088   0.005   6.426   7.473  1.1483 -2.7592 -0.4579
   16SAPS   C36 2089   0.077   6.548   7.634  0.1900  0.3060 -0.1657
   16SAPS   H6X 2090   0.017   6.636   7.602  0.7628  0.4281 -0.9303
   16SAPS   H6Y 2091   0.173   6.584   7.675  0.2985 -0.3702  0.1729
   16SAPS   C37 2092   0.010   6.470   7.748 -0.1585  0.3091  0.1957
   16SAPS   H7X 2093   0.068   6.379   7.773  0.8063  0.8011 -0.1990
   16SAPS   H7Y 2094  -0.094   6.438   7.726  0.2307 -0.8181 -0.0518
   16SAPS   C38 2095   0.010   6.562   7.878  0.4382 -0.1333  0.7226
   16SAPS   H8X 2096  -0.070   6.522   7.944 -0.6869 -0.6755 -0.9575
   16SAPS   H8Y 2097  -0.023   6.665   7.854 -1.3236 -1.0965 -1.1558
   16SAPS   C39 2098   0.141   6.558   7.960  0.6731 -0.7327  0.1562
   16SAPS   H9X 2099   0.223   6.622   7.920  1.0424 -0.8913  0.6539
   16SAPS   H9Y 2100   0.175   6.453   7.949  4.1749  0.4460 -1.1058
   16SAPS  C310 2101   0.110   6.599   8.110 -0.0110 -0.0075 -0.4625
   16SAPS  H10X 2102   0.047   6.515   8.146  1.1316 -0.5093  0.3809
   16SAPS  H10Y 2103   0.053   6.695   8.116 -1.0005 -0.6052 -0.0521
   16SAPS  C311 2104   0.233   6.604   8.203  0.8252 -0.0822  0.3422
   16SAPS  H11X 2105   0.303   6.688   8.183 -0.6947  0.6468 -2.0685
   16SAPS  H11Y 2106   0.284   6.506   8.188 -1.6095 -1.5081  1.1167
   16SAPS  C312 2107   0.193   6.614   8.352  0.0269 -0.3662  0.4581
   16SAPS  H12X 2108   0.128   6.527   8.377  0.3806 -1.0799 -1.0146
   16SAPS  H12Y 2109   0.132   6.704   8.372 -1.1298 -0.4734 -2.3591
   16SAPS  C313 2110   0.312   6.613   8.452 -0.0395 -0.5045  0.0493
   16SAPS  H13X 2111   0.271   6.644   8.550 -0.3863 -2.4241  0.5498
   16SAPS  H13Y 2112   0.386   6.686   8.412 -0.6483  1.2763  2.1180
   16SAPS  C314 2113   0.374   6.484   8.484 -0.4506  0.4214  0.3774
   16SAPS  H14X 2114   0.428   6.443   8.396  1.6145  1.6922  1.0276
   16SAPS  H14Y 2115   0.293   6.407   8.492  0.6069 -0.9491 -1.7001
   16SAPS  C315 2116   0.464   6.495   8.609 -0.5071  0.0214  0.1144
   16SAPS  H15X 2117   0.388   6.519   8.686 -1.4413  0.0149 -0.7943
   16SAPS  H15Y 2118   0.525   6.587   8.597  1.5743 -1.2400  0.6250
   16SAPS  C316 2119   0.534   6.364   8.640  0.1558 -0.0677 -0.3062
   16SAPS  H16X 2120   0.587   6.384   8.735 -0.7394  1.0528 -0.0357
   16SAPS  H16Y 2121   0.609   6.331   8.565  0.0893  0.4980 -0.6273
   16SAPS  C317 2122   0.441   6.244   8.677  0.4162 -0.0236  0.5221
   16SAPS  H17X 2123   0.387   6.213   8.585  0.1141  1.0962  0.3230
   16SAPS  H17Y 2124   0.367   6.275   8.754 -2.4646  1.4053 -2.6950
   16SAPS  C318 2125   0.518   6.124   8.725  0.0309  0.3375 -0.2197
   16SAPS  H18X 2126   0.595   6.107   8.647 -1.0088  0.3504 -1.2731
   16SAPS  H18Y 2127   0.453   6.035   8.719 -0.3387  0.3285  3.1087
   16SAPS  H18Z 2128   0.538   6.138   8.833  1.7231 -1.8924 -0.2248
   17SAPC     N 2129   3.619   2.592  10.279 -0.0526  0.1017  0.3364
   17SAPC   C12 2130   3.753   2.671  10.306 -0.2954 -0.3058 -0.1509
   17SAPC  H12A 2131   3.758   2.685  10.413 -1.3532  2.0582 -0.3737
   17SAPC  H12B 2132   3.739   2.771  10.267 -1.2062 -0.0025  0.9480
   17SAPC   C13 2133   3.513   2.665  10.342 -0.1512 -0.4536  0.1608
   17SAPC  H13A 2134   3.428   2.601  10.323  0.0058  0.0838 -2.6316
   17SAPC  H13B 2135   3.523   2.673  10.449  0.0048 -0.3999  0.1425
   17SAPC  H13C 2136   3.498   2.761  10.295  0.9244 -0.3966 -0.0723
   17SAPC   C14 2137   3.582   2.599  10.132 -0.3557  0.1947 -0.5151
   17SAPC  H14A 2138   3.486   2.553  10.111  1.1644 -3.7028  0.5839
   17SAPC  H14B 2139   3.589   2.702  10.100  1.1421  0.0060 -0.8353
   17SAPC  H14C 2140   3.655   2.539  10.080  1.6531  2.0973  0.0876
   17SAPC   C15 2141   3.622   2.448  10.324  0.1569 -0.0177  0.2933
   17SAPC  H15A 2142   3.636   2.435  10.431  1.8530 -0.4256  0.0351
   17SAPC  H15B 2143   3.540   2.396  10.278 -0.2071  1.5994 -0.9305
   17SAPC  H15C 2144   3.720   2.413  10.294  0.5302  2.5762 -1.6360
   17SAPC   C11 2145   3.885   2.611  10.263 -0.2493  0.9931  0.8062
   17SAPC  H11A 2146   3.971   2.675  10.292 -0.2391  0.9572  0.8548
   17SAPC  H11B 2147   3.891   2.597  10.152  1.7561 -3.3477  1.3498
   17SAPC     P 2148   3.993   2.477  10.472  0.4564 -0.1114  0.0509
   17SAPC   O13 2149   4.125   2.542  10.454 -0.1091 -0.4108 -0.2536
   17SAPC   O14 2150   3.914   2.539  10.577  0.1195  0.8359  0.3520
   17SAPC   O12 2151   3.910   2.482  10.329  0.6789 -0.3360  0.5678
   17SAPC   O11 2152   4.017   2.333  10.519  0.1933 -0.3601 -0.0046
   17SAPC    C1 2153   3.997   2.205  10.459 -0.0561 -0.0933  0.7019
   17SAPC    HA 2154   3.953   2.127  10.524 -0.1331 -0.4009  0.2798
   17SAPC    HB 2155   3.927   2.215  10.373  0.8691 -1.2997 -0.2143
   17SAPC    C2 2156   4.130   2.155  10.392 -0.6392  0.7174 -1.3785
   17SAPC    HS 2157   4.202   2.143  10.475 -1.0692 -0.1058 -1.1194
   17SAPC   O21 2158   4.167   2.253  10.293 -0.2914  0.7594  0.2405
   17SAPC   C21 2159   4.299   2.243  10.255  0.5608  0.8880  0.0897
   17SAPC   O22 2160   4.379   2.151  10.273 -0.5156  0.1661 -0.1601
   17SAPC   C22 2161   4.338   2.368  10.177 -0.1886  0.4189 -0.5568
   17SAPC   H2R 2162   4.314   2.454  10.244  1.7262  0.4826  0.0675
   17SAPC   H2S 2163   4.448   2.376  10.165 -0.2026  4.2896  1.0282
   17SAPC    C3 2164   4.114   2.009  10.323  0.4525 -0.1553  0.4190
   17SAPC    HX 2165   4.088   1.941  10.408 -0.5148 -0.4952 -0.1394
   17SAPC    HY 2166   4.209   1.980  10.274  0.2746  1.2997 -0.8064
   17SAPC   O31 2167   4.003   2.001  10.228 -0.8635  0.4003 -0.0620
   17SAPC   C31 2168   4.009   1.893  10.150  0.4842  0.6928 -0.1232
   17SAPC   O32 2169   4.091   1.803  10.160 -0.0162 -0.0033 -0.2851
   17SAPC   C32 2170   3.883   1.876  10.059  0.1608 -0.1954  0.2974
   17SAPC   H2X 2171   3.797   1.908  10.122 -2.0611 -0.4312 -2.5292
   17SAPC   H2Y 2172   3.869   1.772  10.022 -2.0054  0.0530  0.3558
   17SAPC   C23 2173   4.267   2.362  10.039 -0.4431  0.2471  0.0183
   17SAPC   H3R 2174   4.272   2.459   9.984  0.1800  0.3705  0.2825
   17SAPC   H3S 2175   4.158   2.359  10.055 -0.8323  0.6667 -2.3766
   17SAPC   C24 2176   4.316   2.245   9.950 -0.8973  0.2925 -0.1023
   17SAPC   H4R 2177   4.251   2.233   9.861 -0.3159 -1.8157 -0.2673
   17SAPC   H4S 2178   4.308   2.144   9.996 -1.5019  0.7191  0.7687
   17SAPC   C25 2179   4.451   2.274   9.890  0.7853 -0.2217  1.0441
   17SAPC   H5R 2180   4.528   2.289   9.968  3.0788 -2.0734 -0.8089
   17SAPC   C26 2181   4.486   2.300   9.760  0.0677  0.1420  0.6332
   17SAPC   H6R 2182   4.593   2.320   9.745  0.2333 -1.1425  0.0219
   17SAPC   C27 2183   4.402   2.296   9.638 -0.8079 -0.2692  0.2506
   17SAPC   H7R 2184   4.306   2.248   9.667 -1.4618  0.5075 -0.6000
   17SAPC   H7S 2185   4.440   2.233   9.556  1.8308  2.8825 -1.0728
   17SAPC   C28 2186   4.382   2.444   9.604 -0.1704  0.3182  0.4485
   17SAPC   H8R 2187   4.303   2.480   9.672 -1.0214 -1.0292  0.1935
   17SAPC   C29 2188   4.452   2.513   9.515  0.4762 -0.4681 -0.6560
   17SAPC   H9R 2189   4.443   2.623   9.505  2.9922 -0.3066 -1.4695
   17SAPC  C210 2190   4.566   2.459   9.433  0.0370  0.3731  0.3675
   17SAPC  H10R 2191   4.631   2.378   9.474 -0.2169 -0.2097 -0.3561
   17SAPC  H10S 2192   4.636   2.545   9.423  0.6046 -0.1388 -0.1730
   17SAPC  C211 2193   4.521   2.417   9.293 -0.8619 -0.0317  0.3046
   17SAPC  H11R 2194   4.434   2.350   9.288 -0.8325 -0.1624  1.3930
   17SAPC  C212 2195   4.578   2.462   9.178 -0.4368  0.5714  0.0254
   17SAPC  H12R 2196   4.523   2.422   9.092 -0.9447  3.6204 -1.1121
   17SAPC  C213 2197   4.693   2.558   9.168  0.0319  0.3290  0.0888
   17SAPC  H13R 2198   4.762   2.515   9.091  2.9877  1.3194  2.1122
   17SAPC  H13S 2199   4.754   2.554   9.260 -3.4206 -2.2616  2.3937
   17SAPC  C214 2200   4.643   2.691   9.122  0.1502  0.2864  0.1235
   17SAPC  H14R 2201   4.549   2.720   9.170  1.2655 -0.3211  2.7518
   17SAPC  C215 2202   4.697   2.789   9.041 -0.1437  0.6735 -0.0279
   17SAPC  H15R 2203   4.637   2.880   9.023 -1.2616  0.0071  0.2725
   17SAPC  C216 2204   4.828   2.796   8.967 -0.1859  0.7831  0.0151
   17SAPC  H16R 2205   4.898   2.718   9.004 -2.6893 -0.7078  1.7096
   17SAPC  H16S 2206   4.882   2.893   8.972  0.0577  0.7679 -1.9566
   17SAPC  C217 2207   4.809   2.768   8.814 -0.8294 -0.2497 -0.1175
   17SAPC  H17R 2208   4.907   2.789   8.767 -1.3076  3.8240  0.5913
   17SAPC  H17S 2209   4.745   2.852   8.779  0.6530 -0.2780 -3.0998
   17SAPC  C218 2210   4.755   2.627   8.774 -0.0945 -0.3211  0.0484
   17SAPC  H18R 2211   4.652   2.621   8.814  0.5468  0.3188  1.8684
   17SAPC  H18S 2212   4.814   2.545   8.820 -2.1848 -0.4349  2.6152
   17SAPC  C219 2213   4.756   2.615   8.618 -0.5737  0.2585 -0.2563
   17SAPC  H19R 2214   4.715   2.517   8.588  1.3400 -0.5643 -0.2663
   17SAPC  H19S 2215   4.859   2.626   8.577 -1.0016 -1.0299 -1.7402
   17SAPC  C220 2216   4.667   2.721   8.555 -0.0972 -0.3790 -0.2671
   17SAPC  H20R 2217   4.730   2.812   8.553  0.2046 -0.5333  1.3715
   17SAPC  H20S 2218   4.588   2.741   8.631  0.7174  1.0082  0.2190
   17SAPC  H20T 2219   4.624   2.703   8.454 -0.6312  1.6117 -0.4085
   17SAPC   C33 2220   3.889   1.979   9.945  1.2361  0.5771 -0.5263
   17SAPC   H3X 2221   3.914   2.085   9.968  1.6885  0.0247  1.6369
   17SAPC   H3Y 2222   3.782   1.984   9.914  1.0261 -1.2912 -0.1173
   17SAPC   C34 2223   3.972   1.941   9.820 -0.0925 -0.6848 -0.4758
   17SAPC   H4X 2224   3.948   1.837   9.786 -2.1602 -0.5987  0.6141
   17SAPC   H4Y 2225   4.078   1.919   9.843  0.7832  2.0976 -1.7085
   17SAPC   C35 2226   3.954   2.048   9.715  0.6048 -0.1451  0.3693
   17SAPC   H5X 2227   3.958   2.153   9.750 -1.3149  0.2537 -0.5244
   17SAPC   H5Y 2228   3.850   2.039   9.675  0.3705  1.5027  0.5680
   17SAPC   C36 2229   4.055   2.042   9.601  0.7920 -0.3002  0.6572
   17SAPC   H6X 2230   4.042   1.938   9.563  1.1732 -0.4622  0.9619
   17SAPC   H6Y 2231   4.156   2.053   9.645  0.9521 -1.8110  0.7019
   17SAPC   C37 2232   4.034   2.147   9.494 -0.8172 -0.5921 -0.3735
   17SAPC   H7X 2233   4.071   2.246   9.530  0.2576 -1.4969  1.0916
   17SAPC   H7Y 2234   3.926   2.151   9.468 -0.5284 -2.0689 -1.9225
   17SAPC   C38 2235   4.117   2.117   9.365  0.5092  0.2374 -0.0512
   17SAPC   H8X 2236   4.053   2.040   9.317 -1.6649  1.1661  1.2693
   17SAPC   H8Y 2237   4.215   2.077   9.400  0.0355 -0.2024  0.7714
   17SAPC   C39 2238   4.131   2.235   9.280  0.3389 -0.8285 -0.1642
   17SAPC   H9X 2239   4.172   2.323   9.335  0.7018 -0.0131 -1.7112
   17SAPC   H9Y 2240   4.028   2.258   9.247  1.0599  1.5945 -0.8563
   17SAPC  C310 2241   4.204   2.216   9.146 -0.4659 -0.3425  0.3348
   17SAPC  H10X 2242   4.150   2.131   9.099  2.2093 -1.5047 -0.7280
   17SAPC  H10Y 2243   4.313   2.196   9.150 -0.4488 -0.0297  1.9513
   17SAPC  C311 2244   4.189   2.344   9.067 -0.2529 -0.3738  0.1265
   17SAPC  H11X 2245   4.227   2.431   9.124 -2.2908  0.5480  0.0925
   17SAPC  H11Y 2246   4.084   2.355   9.035  0.5049 -0.6316 -2.6244
   17SAPC  C312 2247   4.270   2.342   8.935  0.8770 -0.1700 -0.1899
   17SAPC  H12X 2248   4.238   2.252   8.877  0.0606 -0.4852  0.7404
   17SAPC  H12Y 2249   4.376   2.315   8.957  0.7690 -0.0185  0.5094
   17SAPC  C313 2250   4.268   2.466   8.851 -0.4977  0.3734 -1.2830
   17SAPC  H13X 2251   4.164   2.506   8.840 -0.6016  1.1117  1.8170
   17SAPC  H13Y 2252   4.304   2.445   8.748  0.3005 -1.5803 -0.6156
   17SAPC  C314 2253   4.352   2.589   8.902  0.1682  0.0896  0.2625
   17SAPC  H14X 2254   4.460   2.567   8.915  0.6228  2.0442 -0.0048
   17SAPC  H14Y 2255   4.312   2.634   8.996  0.7345 -1.9981  1.5238
   17SAPC  C315 2256   4.340   2.700   8.786 -0.4943  0.0630  0.3611
   17SAPC  H15X 2257   4.385   2.655   8.695 -0.4351  0.8599 -0.0090
   17SAPC  H15Y 2258   4.411   2.777   8.823  0.1560 -0.4415  0.1520
   17SAPC  C316 2259   4.206   2.776   8.764  0.2276  0.4469  0.0501
   17SAPC  H16X 2260   4.163   2.804   8.862 -0.1272  0.6664 -0.1686
   17SAPC  H16Y 2261   4.132   2.714   8.710  0.6922 -0.4319  0.3955
   17SAPC  C317 2262   4.225   2.901   8.689 -0.5102  0.4582 -1.2229
   17SAPC  H17X 2263   4.292   2.966   8.749 -0.3568  0.6666 -1.6210
   17SAPC  H17Y 2264   4.133   2.963   8.684  0.3023  1.7084 -0.9169
   17SAPC  C318 2265   4.274   2.889   8.546  0.0823  1.2053 -0.0763
   17SAPC  H18X 2266   4.278   2.987   8.495  2.2865  0.1018 -2.1199
   17SAPC  H18Y 2267   4.377   2.847   8.540 -0.1595  0.5254  0.3476
   17SAPC  H18Z 2268   4.207   2.820   8.490  1.5092  0.4874 -0.9127
   18SAPC     N 2269   5.106   2.467  10.597  0.0486 -0.0596  0.2892
   18SAPC   C12 2270   5.259   2.490  10.587 -0.1040  0.2850 -0.0139
   18SAPC  H12A 2271   5.288   2.587  10.624  4.1718 -0.3840 -1.2650
   18SAPC  H12B 2272   5.292   2.490  10.484 -0.5050  1.3363 -0.1462
   18SAPC   C13 2273   5.069   2.340  10.530 -0.2717  0.2496 -0.0530
   18SAPC  H13A 2274   5.091   2.258  10.595  1.6537  0.8237  0.0419
   18SAPC  H13B 2275   4.964   2.334  10.505  0.2552 -1.7554 -1.8803
   18SAPC  H13C 2276   5.127   2.320  10.442  1.0706  1.8088  0.4520
   18SAPC   C14 2277   5.057   2.441  10.733 -0.4244 -0.1141  0.7335
   18SAPC  H14A 2278   5.119   2.363  10.774 -0.9259  0.9072  3.5433
   18SAPC  H14B 2279   5.048   2.525  10.800  2.3764  1.4558 -0.7581
   18SAPC  H14C 2280   4.961   2.393  10.729  0.5748 -2.0642 -0.7688
   18SAPC   C15 2281   5.032   2.590  10.542  0.3786 -0.9194  0.5636
   18SAPC  H15A 2282   4.926   2.579  10.556  0.0257  1.2534 -0.2202
   18SAPC  H15B 2283   5.063   2.683  10.588 -2.2575  1.4143 -2.2292
   18SAPC  H15C 2284   5.045   2.591  10.435 -1.8346  2.4884  0.2697
   18SAPC   C11 2285   5.345   2.395  10.669 -0.0361 -0.3696 -0.3842
   18SAPC  H11A 2286   5.317   2.404  10.776  1.4228  0.8552 -0.0690
   18SAPC  H11B 2287   5.452   2.426  10.668  0.1717 -1.1119 -1.1206
   18SAPC     P 2288   5.430   2.216  10.497 -0.3857 -0.0304  0.0218
   18SAPC   O13 2289   5.453   2.342  10.417  0.3958 -0.0906 -0.1555
   18SAPC   O14 2290   5.551   2.154  10.555 -0.3810 -0.7691  0.0397
   18SAPC   O12 2291   5.338   2.253  10.617  0.2489  0.1641  0.1658
   18SAPC   O11 2292   5.346   2.112  10.407 -0.0195 -0.5616 -0.0364
   18SAPC    C1 2293   5.364   2.134  10.265  0.0253  0.2638  0.0409
   18SAPC    HA 2294   5.468   2.168  10.243 -0.0747 -1.0051 -2.5719
   18SAPC    HB 2295   5.351   2.040  10.208 -3.3751  0.3221  0.6184
   18SAPC    C2 2296   5.267   2.234  10.199 -0.5196  0.1507  0.7922
   18SAPC    HS 2297   5.265   2.328  10.258 -1.4322 -0.6191  2.0296
   18SAPC   O21 2298   5.137   2.182  10.194 -0.1283  0.7291  0.2571
   18SAPC   C21 2299   5.034   2.268  10.164  0.4580 -0.2103  0.4261
   18SAPC   O22 2300   5.054   2.389  10.146 -0.2274 -0.3041 -0.7966
   18SAPC   C22 2301   4.911   2.190  10.134  0.8831  0.1923 -0.0053
   18SAPC   H2R 2302   4.879   2.139  10.227  1.0216  2.3119  1.2181
   18SAPC   H2S 2303   4.827   2.256  10.105  1.1289 -0.3763 -2.1531
   18SAPC    C3 2304   5.312   2.268  10.051  0.3973 -0.2565 -0.1764
   18SAPC    HX 2305   5.264   2.360  10.011  2.3218  0.1554 -1.5650
   18SAPC    HY 2306   5.266   2.188   9.989  0.1953 -1.0313  0.9545
   18SAPC   O31 2307   5.455   2.267  10.017  0.1260  0.1945  0.6975
   18SAPC   C31 2308   5.509   2.388  10.022 -0.1792  0.7444  0.4157
   18SAPC   O32 2309   5.454   2.486  10.069  1.1232 -0.1514 -0.5748
   18SAPC   C32 2310   5.649   2.389   9.961  0.2735  0.0672 -0.3979
   18SAPC   H2X 2311   5.656   2.317   9.877  0.5434 -0.9547  0.5019
   18SAPC   H2Y 2312   5.728   2.355  10.031 -0.6078  0.2100  0.6852
   18SAPC   C23 2313   4.918   2.090  10.011  0.2650 -0.2341 -0.7076
   18SAPC   H3R 2314   4.834   2.019  10.025  0.0270 -0.0053 -0.9690
   18SAPC   H3S 2315   5.011   2.030  10.019 -0.6509 -1.4572  0.9964
   18SAPC   C24 2316   4.919   2.165   9.873 -0.2812 -0.0816 -0.7211
   18SAPC   H4R 2317   5.001   2.241   9.873 -1.3254  1.0829 -2.1517
   18SAPC   H4S 2318   4.825   2.224   9.869 -0.0061  0.6292  2.0576
   18SAPC   C25 2319   4.923   2.070   9.759  0.4592 -0.7442  0.2487
   18SAPC   H5R 2320   4.833   2.012   9.735  0.5067  0.6835 -3.8276
   18SAPC   C26 2321   5.028   2.047   9.679  0.3019 -0.4249 -0.0483
   18SAPC   H6R 2322   5.017   1.971   9.600  0.1162 -0.0895 -0.3513
   18SAPC   C27 2323   5.165   2.111   9.688 -0.8104 -0.0701  0.7871
   18SAPC   H7R 2324   5.241   2.034   9.658  1.6698  2.0352  1.4547
   18SAPC   H7S 2325   5.194   2.124   9.795  1.4490 -1.1394  0.3511
   18SAPC   C28 2326   5.179   2.243   9.619 -0.4120 -0.0630  0.8311
   18SAPC   H8R 2327   5.163   2.335   9.677 -1.1794  0.9285 -0.9012
   18SAPC   C29 2328   5.206   2.250   9.484 -0.1141 -0.2683  0.5924
   18SAPC   H9R 2329   5.205   2.346   9.431 -0.8644 -1.1632 -1.0389
   18SAPC  C210 2330   5.227   2.126   9.392 -1.0834 -0.2444 -0.5456
   18SAPC  H10R 2331   5.209   2.031   9.445  0.1066  0.6433  1.5157
   18SAPC  H10S 2332   5.334   2.123   9.360 -0.8989 -1.0541  0.1569
   18SAPC  C211 2333   5.147   2.144   9.256 -0.1748  0.3322 -0.9467
   18SAPC  H11R 2334   5.044   2.180   9.274  1.2245  5.0080 -1.4180
   18SAPC  C212 2335   5.195   2.130   9.130 -0.5791  0.5493  0.3693
   18SAPC  H12R 2336   5.134   2.149   9.041  0.1496  4.5466  0.6429
   18SAPC  C213 2337   5.329   2.089   9.082  0.4080  0.0361 -0.3805
   18SAPC  H13R 2338   5.355   1.994   9.134 -1.8203 -0.3870 -0.0063
   18SAPC  H13S 2339   5.411   2.147   9.130  0.2751  1.2565 -1.5689
   18SAPC  C214 2340   5.351   2.091   8.930 -0.0582 -0.8324 -0.5767
   18SAPC  H14R 2341   5.326   2.188   8.885 -1.7726  0.2150  2.4628
   18SAPC  C215 2342   5.377   1.976   8.859  0.2485 -0.9408  0.2557
   18SAPC  H15R 2343   5.397   2.002   8.754  1.7025 -0.3714  0.6579
   18SAPC  C216 2344   5.386   1.828   8.899 -0.2032  0.3548  0.2788
   18SAPC  H16R 2345   5.348   1.764   8.817  2.0870 -3.1093  1.8346
   18SAPC  H16S 2346   5.315   1.807   8.982 -0.2403 -0.4062  0.0577
   18SAPC  C217 2347   5.532   1.801   8.937 -0.2778 -0.6357  0.2242
   18SAPC  H17R 2348   5.540   1.847   9.038 -4.0431 -1.3504  0.9278
   18SAPC  H17S 2349   5.593   1.861   8.867  0.3619  1.4446  2.4916
   18SAPC  C218 2350   5.581   1.660   8.922 -0.1130  0.2679  1.0474
   18SAPC  H18R 2351   5.522   1.594   8.989 -0.1606 -0.1372  0.6189
   18SAPC  H18S 2352   5.685   1.656   8.960 -0.0292 -0.4440  0.7489
   18SAPC  C219 2353   5.572   1.608   8.777  0.0762 -0.1009  0.2800
   18SAPC  H19R 2354   5.476   1.639   8.730 -0.2998 -0.9023  0.5062
   18SAPC  H19S 2355   5.573   1.497   8.779  1.3503 -0.1956 -2.6998
   18SAPC  C220 2356   5.688   1.650   8.683 -0.4002  0.1204  0.2933
   18SAPC  H20R 2357   5.645   1.672   8.582 -0.3147  1.0979  0.4685
   18SAPC  H20S 2358   5.776   1.585   8.665  0.4646  1.0125  1.3370
   18SAPC  H20T 2359   5.739   1.742   8.717  0.2876  0.1544 -0.8016
   18SAPC   C33 2360   5.689   2.532   9.911 -0.4163  0.3413 -0.3050
   18SAPC   H3X 2361   5.796   2.526   9.883 -0.3452 -0.0637  0.0590
   18SAPC   H3Y 2362   5.680   2.609   9.991  0.2846 -0.5551  0.6323
   18SAPC   C34 2363   5.602   2.571   9.785  0.3131 -0.0440  0.0943
   18SAPC   H4X 2364   5.653   2.655   9.734 -0.7078  0.7550  0.3733
   18SAPC   H4Y 2365   5.498   2.603   9.810  0.2606  0.1372 -0.3412
   18SAPC   C35 2366   5.602   2.478   9.664 -0.2056  0.4712  0.0554
   18SAPC   H5X 2367   5.541   2.527   9.586  0.8510  0.2673 -0.9091
   18SAPC   H5Y 2368   5.555   2.383   9.695  0.8305  0.1483  0.6770
   18SAPC   C36 2369   5.745   2.457   9.609  0.2608 -0.3147  0.4067
   18SAPC   H6X 2370   5.807   2.400   9.682  0.9386 -1.3900 -0.9975
   18SAPC   H6Y 2371   5.790   2.556   9.583 -3.0162  0.9824 -0.6334
   18SAPC   C37 2372   5.746   2.385   9.474  0.2642 -0.3630 -0.3863
   18SAPC   H7X 2373   5.688   2.448   9.404 -1.7635 -0.1965  1.4166
   18SAPC   H7Y 2374   5.698   2.285   9.479 -0.7774  0.0386 -2.0627
   18SAPC   C38 2375   5.885   2.356   9.406 -0.0604  0.0693 -0.0577
   18SAPC   H8X 2376   5.959   2.314   9.477 -0.4698 -2.5730 -1.1593
   18SAPC   H8Y 2377   5.919   2.456   9.372  0.3348  0.3303  1.0786
   18SAPC   C39 2378   5.880   2.256   9.281 -0.0539 -0.0796  0.4109
   18SAPC   H9X 2379   5.810   2.296   9.205  0.2083  0.1733  0.3005
   18SAPC   H9Y 2380   5.831   2.164   9.320 -0.3404 -0.2827 -0.4316
   18SAPC  C310 2381   6.012   2.232   9.204  0.3278 -0.1943 -0.8505
   18SAPC  H10X 2382   6.088   2.208   9.282 -1.1674  0.7721  0.9461
   18SAPC  H10Y 2383   6.047   2.324   9.152  2.6384 -0.2900  0.4690
   18SAPC  C311 2384   6.005   2.112   9.106  0.1128  0.0506  0.0651
   18SAPC  H11X 2385   6.038   2.020   9.159 -1.1075  0.3483  1.3852
   18SAPC  H11Y 2386   6.085   2.131   9.031  0.9271 -0.5422  0.7660
   18SAPC  C312 2387   5.873   2.102   9.035  0.9737 -0.6182  0.7147
   18SAPC  H12X 2388   5.856   2.197   8.981 -1.2649 -0.5704  1.4364
   18SAPC  H12Y 2389   5.788   2.085   9.104 -0.3561  1.7633 -0.2855
   18SAPC  C313 2390   5.881   2.007   8.919  0.0735 -0.1717 -0.7876
   18SAPC  H13X 2391   5.951   2.047   8.842 -1.2808  1.9199 -0.9586
   18SAPC  H13Y 2392   5.779   1.981   8.885 -0.0749  0.1044 -0.5540
   18SAPC  C314 2393   5.935   1.867   8.964 -0.3830 -0.1050 -0.0215
   18SAPC  H14X 2394   5.869   1.788   8.924  0.2046 -1.9070  2.4645
   18SAPC  H14Y 2395   5.902   1.859   9.070 -3.0529 -0.2166 -0.8206
   18SAPC  C315 2396   6.085   1.846   8.943  0.6466  0.1419 -0.3289
   18SAPC  H15X 2397   6.149   1.924   8.989 -0.4706  0.9435 -0.1030
   18SAPC  H15Y 2398   6.094   1.848   8.832 -0.5268 -2.3817 -0.5108
   18SAPC  C316 2399   6.129   1.704   8.984 -0.3879 -0.1940 -0.5821
   18SAPC  H16X 2400   6.112   1.694   9.094  0.4377  0.3485 -0.4027
   18SAPC  H16Y 2401   6.240   1.707   8.974 -0.4906  1.1450 -1.3988
   18SAPC  C317 2402   6.069   1.589   8.904 -0.7629  0.2188 -0.0621
   18SAPC  H17X 2403   5.961   1.589   8.928 -0.8622  1.1918 -0.4968
   18SAPC  H17Y 2404   6.123   1.493   8.922  0.5838  0.7653 -1.0883
   18SAPC  C318 2405   6.093   1.587   8.752  0.5118  0.1390 -0.3977
   18SAPC  H18X 2406   6.199   1.586   8.718 -0.1116 -0.3257 -2.3741
   18SAPC  H18Y 2407   6.033   1.670   8.709  2.6475  1.6114 -0.6184
   18SAPC  H18Z 2408   6.041   1.497   8.712 -0.8538  0.4161  0.7279
   19SAPC     N 2409   4.191   4.218  10.660  0.5149 -0.0472 -0.4162
   19SAPC   C12 2410   4.154   4.106  10.568 -0.7616  0.4923 -0.3227
   19SAPC  H12A 2411   4.236   4.096  10.498  0.8603  1.2600  1.4316
   19SAPC  H12B 2412   4.070   4.126  10.502 -1.1023 -2.6478 -0.9141
   19SAPC   C13 2413   4.200   4.346  10.582  0.1571 -0.4992  0.1648
   19SAPC  H13A 2414   4.108   4.397  10.558  1.5553  0.4803 -3.6563
   19SAPC  H13B 2415   4.268   4.416  10.628  1.4408 -2.5138  1.4348
   19SAPC  H13C 2416   4.246   4.326  10.486 -1.2547  0.0478 -0.6396
   19SAPC   C14 2417   4.091   4.228  10.773 -0.1302 -0.3818 -0.0422
   19SAPC  H14A 2418   3.989   4.228  10.737 -0.4445 -0.4813  0.8182
   19SAPC  H14B 2419   4.111   4.150  10.845  1.6966  0.6503  0.5933
   19SAPC  H14C 2420   4.101   4.325  10.820 -0.4383 -1.0139  1.3705
   19SAPC   C15 2421   4.322   4.185  10.725  0.0417 -0.2555  0.4138
   19SAPC  H15A 2422   4.398   4.165  10.652 -0.3433 -1.1182  0.2414
   19SAPC  H15B 2423   4.354   4.258  10.799 -0.0529  0.3614 -0.1477
   19SAPC  H15C 2424   4.310   4.088  10.771 -0.0633 -0.9707 -1.0996
   19SAPC   C11 2425   4.138   3.967  10.636  1.0887 -0.1744  0.6894
   19SAPC  H11A 2426   4.100   3.902  10.555  1.5037  1.1276 -0.5772
   19SAPC  H11B 2427   4.061   3.981  10.714  0.8275  0.1362  0.3791
   19SAPC     P 2428   4.363   3.834  10.588 -0.3738 -0.3007  0.2580
   19SAPC   O13 2429   4.494   3.806  10.648  0.6184 -0.5907  0.0485
   19SAPC   O14 2430   4.288   3.709  10.550  0.3270 -0.2561 -0.4524
   19SAPC   O12 2431   4.267   3.918  10.681 -0.4895  0.2003 -0.0205
   19SAPC   O11 2432   4.378   3.925  10.463 -0.1752 -1.2110  0.0091
   19SAPC    C1 2433   4.473   3.902  10.357 -0.1564  0.1037  0.8576
   19SAPC    HA 2434   4.579   3.899  10.391 -0.1952  2.6164  1.3346
   19SAPC    HB 2435   4.438   3.809  10.309 -0.9283  1.4836 -1.3326
   19SAPC    C2 2436   4.473   4.021  10.256 -0.0562 -0.0051 -0.5947
   19SAPC    HS 2437   4.495   4.111  10.317 -2.1548  0.6312 -0.7519
   19SAPC   O21 2438   4.353   4.035  10.183 -0.2313 -0.2944 -0.2425
   19SAPC   C21 2439   4.264   4.110  10.249  0.0540 -0.1583 -0.2102
   19SAPC   O22 2440   4.290   4.185  10.340 -0.0791 -0.1278 -0.1315
   19SAPC   C22 2441   4.117   4.080  10.203 -0.2456  0.3822 -0.9640
   19SAPC   H2R 2442   4.112   3.970  10.222  1.5336  0.7598  1.9264
   19SAPC   H2S 2443   4.054   4.141  10.270  1.4800  0.9722  0.1274
   19SAPC    C3 2444   4.581   3.997  10.148 -0.5808  0.1545 -0.2320
   19SAPC    HX 2445   4.570   3.890  10.118  2.3564  0.0376 -1.0137
   19SAPC    HY 2446   4.677   4.003  10.204  0.1105  0.5491 -1.4376
   19SAPC   O31 2447   4.574   4.074  10.026  0.2837  0.8092 -0.0916
   19SAPC   C31 2448   4.602   4.205  10.043  0.4096 -0.0212  0.3310
   19SAPC   O32 2449   4.647   4.251  10.147 -0.0109  0.1248  0.6963
   19SAPC   C32 2450   4.586   4.279   9.911  0.5068  0.1732 -0.8332
   19SAPC   H2X 2451   4.550   4.382   9.931 -0.5403  0.2678 -3.0720
   19SAPC   H2Y 2452   4.507   4.222   9.857 -0.2408  0.2768  0.1476
   19SAPC   C23 2453   4.083   4.111  10.053 -0.5412 -0.1964  0.0419
   19SAPC   H3R 2454   3.984   4.074  10.018 -0.9435 -1.5364  2.5332
   19SAPC   H3S 2455   4.150   4.068   9.975  1.1835  0.1455  1.3246
   19SAPC   C24 2456   4.065   4.263  10.033 -0.8001 -1.2768 -0.0310
   19SAPC   H4R 2457   4.004   4.299  10.119 -2.4779  1.4172 -2.2438
   19SAPC   H4S 2458   4.008   4.284   9.939 -1.2590  1.6543  0.8572
   19SAPC   C25 2459   4.203   4.331  10.021  0.0361 -0.2615  0.1098
   19SAPC   H5R 2460   4.252   4.321  10.119 -2.8044 -0.5119  1.5462
   19SAPC   C26 2461   4.262   4.394   9.912 -1.0517  0.4338  0.8362
   19SAPC   H6R 2462   4.355   4.449   9.933 -0.0651 -2.0242  3.3444
   19SAPC   C27 2463   4.207   4.410   9.773 -0.3416  0.4605 -0.5554
   19SAPC   H7R 2464   4.246   4.503   9.727 -1.1286  0.6047 -0.9560
   19SAPC   H7S 2465   4.097   4.403   9.756 -0.3262  2.6769 -1.7382
   19SAPC   C28 2466   4.271   4.315   9.674 -0.3183  0.3768  0.2173
   19SAPC   H8R 2467   4.320   4.227   9.720  0.5710  1.3163  1.0973
   19SAPC   C29 2468   4.276   4.324   9.540  0.7752  0.9107 -0.2250
   19SAPC   H9R 2469   4.332   4.244   9.490 -1.7009 -1.1752  0.1841
   19SAPC  C210 2470   4.221   4.444   9.456 -0.3427  0.0246  0.0796
   19SAPC  H10R 2471   4.212   4.530   9.525  0.0900  0.7876 -0.8006
   19SAPC  H10S 2472   4.116   4.428   9.421 -0.2787 -0.7785  0.2391
   19SAPC  C211 2473   4.308   4.473   9.336 -0.1381  0.2467 -0.2397
   19SAPC  H11R 2474   4.396   4.411   9.319 -0.2030 -0.0623  0.5224
   19SAPC  C212 2475   4.280   4.564   9.238 -0.3494 -0.2298 -0.0097
   19SAPC  H12R 2476   4.358   4.589   9.164 -0.4725  0.5043  0.1061
   19SAPC  C213 2477   4.159   4.657   9.246 -0.2824 -0.1924 -0.3397
   19SAPC  H13R 2478   4.113   4.666   9.347 -1.8801 -2.5957 -0.8076
   19SAPC  H13S 2479   4.085   4.609   9.178 -0.4404 -1.1491  0.4883
   19SAPC  C214 2480   4.202   4.797   9.200 -0.6550  0.2464  0.6862
   19SAPC  H14R 2481   4.234   4.788   9.095  0.3095 -1.6942  1.1217
   19SAPC  C215 2482   4.189   4.913   9.273 -0.6673  0.0632  0.3093
   19SAPC  H15R 2483   4.223   5.014   9.244 -2.9774  0.8962  0.3480
   19SAPC  C216 2484   4.138   4.933   9.415 -0.4121 -0.8532  0.1953
   19SAPC  H16R 2485   4.192   5.020   9.459 -1.2647  0.4867 -1.3616
   19SAPC  H16S 2486   4.161   4.838   9.466  0.0463 -0.3194  0.9989
   19SAPC  C217 2487   3.984   4.964   9.408  0.3472 -0.3473  0.3423
   19SAPC  H17R 2488   3.928   4.898   9.339  0.6416 -0.8839  0.6115
   19SAPC  H17S 2489   3.982   5.068   9.369 -0.1561 -0.2906  0.5172
   19SAPC  C218 2490   3.907   4.957   9.548  0.5117 -0.2389  0.0097
   19SAPC  H18R 2491   3.799   4.977   9.533  0.0695 -2.3121  0.3271
   19SAPC  H18S 2492   3.951   5.031   9.618  1.2060 -1.4284  0.8225
   19SAPC  C219 2493   3.914   4.808   9.606  0.4920 -0.2886  0.0898
   19SAPC  H19R 2494   4.016   4.765   9.610  0.1552 -1.0552  0.4900
   19SAPC  H19S 2495   3.853   4.740   9.544 -1.4530  0.7813  0.7901
   19SAPC  C220 2496   3.847   4.793   9.740 -0.3419  0.4144  0.0528
   19SAPC  H20R 2497   3.743   4.832   9.743  0.3704  2.6645 -2.5181
   19SAPC  H20S 2498   3.902   4.843   9.823  5.0913 -1.8233 -1.9968
   19SAPC  H20T 2499   3.844   4.685   9.764  0.5250  0.3643 -0.0668
   19SAPC   C33 2500   4.704   4.278   9.825 -0.8246 -0.5001  0.6576
   19SAPC   H3X 2501   4.730   4.181   9.777 -0.5397 -0.0899 -0.0178
   19SAPC   H3Y 2502   4.796   4.319   9.873  0.1514 -2.1074  0.1899
   19SAPC   C34 2503   4.678   4.372   9.705  0.5529 -0.6257 -0.2229
   19SAPC   H4X 2504   4.665   4.475   9.743  1.6996 -1.0805  1.4681
   19SAPC   H4Y 2505   4.582   4.338   9.661  0.6852 -0.3707 -0.7033
   19SAPC   C35 2506   4.772   4.362   9.586 -0.2764  0.2386  0.9394
   19SAPC   H5X 2507   4.770   4.256   9.550 -1.0002  0.9918 -1.3306
   19SAPC   H5Y 2508   4.876   4.399   9.587 -0.2474  0.3748 -1.9115
   19SAPC   C36 2509   4.701   4.438   9.469  0.4095 -0.3434  1.1391
   19SAPC   H6X 2510   4.661   4.534   9.506  2.7317  1.0944  0.0290
   19SAPC   H6Y 2511   4.614   4.380   9.432  0.1585  0.9888 -0.3856
   19SAPC   C37 2512   4.798   4.444   9.347  0.1697 -0.6366  0.4464
   19SAPC   H7X 2513   4.832   4.343   9.316 -2.2776 -1.9433  1.8308
   19SAPC   H7Y 2514   4.895   4.490   9.376  0.0923 -1.6418  2.3167
   19SAPC   C38 2515   4.737   4.530   9.233  0.2379  0.4857 -0.4136
   19SAPC   H8X 2516   4.700   4.621   9.285 -0.8154 -0.4204  0.4646
   19SAPC   H8Y 2517   4.655   4.466   9.194  2.5086 -0.4955 -3.7924
   19SAPC   C39 2518   4.834   4.583   9.122 -0.0761 -0.4378 -0.3572
   19SAPC   H9X 2519   4.890   4.493   9.087  1.1046 -0.6450  1.9083
   19SAPC   H9Y 2520   4.899   4.653   9.180  1.1073 -0.1205 -2.0253
   19SAPC  C310 2521   4.777   4.673   9.011 -0.8178 -0.4297  0.2835
   19SAPC  H10X 2522   4.698   4.621   8.953 -0.8663  1.2846 -1.2269
   19SAPC  H10Y 2523   4.859   4.701   8.942 -0.1249 -0.4720  1.0761
   19SAPC  C311 2524   4.701   4.796   9.055 -0.7465 -0.8363  0.2316
   19SAPC  H11X 2525   4.776   4.847   9.119 -0.1737 -1.6352  0.1958
   19SAPC  H11Y 2526   4.624   4.779   9.133 -2.5167 -0.8477 -1.4560
   19SAPC  C312 2527   4.644   4.905   8.951 -0.0933  0.4702 -0.6189
   19SAPC  H12X 2528   4.571   4.958   9.015  0.6167  0.8309 -0.0893
   19SAPC  H12Y 2529   4.581   4.847   8.881  2.9099 -1.8400 -1.5291
   19SAPC  C313 2530   4.744   4.994   8.880  0.0084  0.0304  0.0873
   19SAPC  H13X 2531   4.689   5.061   8.810 -2.8712 -0.2090  2.0557
   19SAPC  H13Y 2532   4.817   4.930   8.825 -0.3134 -0.7451  0.5568
   19SAPC  C314 2533   4.823   5.088   8.975  0.2517  0.4615 -0.3125
   19SAPC  H14X 2534   4.884   5.028   9.045 -0.8188  0.1141  0.3459
   19SAPC  H14Y 2535   4.745   5.153   9.023 -0.7750 -1.3045  0.4542
   19SAPC  C315 2536   4.919   5.191   8.907  0.4066 -0.3350  0.2684
   19SAPC  H15X 2537   4.964   5.251   8.989 -1.2657 -0.7772  1.5203
   19SAPC  H15Y 2538   4.863   5.263   8.844 -1.9222 -1.4738  0.9820
   19SAPC  C316 2539   5.040   5.127   8.831 -0.5998  0.1018  0.2522
   19SAPC  H16X 2540   5.069   5.036   8.888 -0.0669 -0.0059 -0.1877
   19SAPC  H16Y 2541   5.141   5.173   8.831  0.3406 -1.9285  0.2581
   19SAPC  C317 2542   5.000   5.093   8.688 -0.1725  0.0866  0.4016
   19SAPC  H17X 2543   5.022   5.169   8.610  2.0070  1.7127  2.5400
   19SAPC  H17Y 2544   4.892   5.069   8.679 -0.0368 -1.5525  2.8084
   19SAPC  C318 2545   5.075   4.966   8.658  0.1223  0.1578  0.1687
   19SAPC  H18X 2546   5.047   4.929   8.557  0.8556 -1.9998  0.7415
   19SAPC  H18Y 2547   5.070   4.888   8.737  3.1151  0.0090  0.2506
   19SAPC  H18Z 2548   5.181   4.996   8.652  0.2306 -0.5454 -1.9335
   20SAPC     N 2549   4.906   0.812  10.973  0.0684 -0.5752 -0.3016
   20SAPC   C12 2550   4.832   0.855  10.838  0.5310  0.1567 -0.8049
   20SAPC  H12A 2551   4.899   0.821  10.760  1.1637 -0.4328 -0.0125
   20SAPC  H12B 2552   4.839   0.961  10.825  1.5185  0.1835 -0.0912
   20SAPC   C13 2553   4.841   0.860  11.097 -0.4126 -1.0474 -0.5307
   20SAPC  H13A 2554   4.898   0.826  11.182 -0.0912  0.5655 -0.0938
   20SAPC  H13B 2555   4.827   0.967  11.102  2.8217 -0.6170  0.3317
   20SAPC  H13C 2556   4.744   0.812  11.090 -1.4343  1.3610 -4.8581
   20SAPC   C14 2557   4.916   0.660  10.979  0.0101 -0.4628  0.5162
   20SAPC  H14A 2558   4.958   0.629  11.074 -0.1940 -2.3565  0.0098
   20SAPC  H14B 2559   4.821   0.608  10.979  0.2881 -1.0076 -1.6024
   20SAPC  H14C 2560   4.980   0.625  10.900  2.7208  2.6834  1.2123
   20SAPC   C15 2561   5.046   0.867  10.958  0.1121  0.4891 -0.1466
   20SAPC  H15A 2562   5.112   0.813  11.024  0.4484  0.1743 -0.7358
   20SAPC  H15B 2563   5.085   0.856  10.858 -0.6162 -0.3675 -0.3355
   20SAPC  H15C 2564   5.043   0.973  10.979  0.4319  0.7736 -1.5141
   20SAPC   C11 2565   4.690   0.793  10.822  0.2647  0.7967 -0.6839
   20SAPC  H11A 2566   4.699   0.682  10.829 -1.5498  0.7649  1.4496
   20SAPC  H11B 2567   4.660   0.811  10.717 -0.2354 -1.1885 -0.9034
   20SAPC     P 2568   4.553   1.002  10.914  0.0381  0.7148 -0.1738
   20SAPC   O13 2569   4.405   1.012  10.886 -0.0987  0.8643 -0.0710
   20SAPC   O14 2570   4.601   1.070  11.030  0.8316 -0.5242  0.1937
   20SAPC   O12 2571   4.602   0.849  10.910 -0.4973  0.5688 -0.0315
   20SAPC   O11 2572   4.628   1.064  10.786  0.2388  0.2295 -0.5788
   20SAPC    C1 2573   4.556   1.117  10.679  0.3890 -0.2923  0.3366
   20SAPC    HA 2574   4.453   1.156  10.694  0.9302  0.7723  1.2985
   20SAPC    HB 2575   4.612   1.204  10.640 -1.8043  1.3546  0.7392
   20SAPC    C2 2576   4.557   1.027  10.546  0.1223 -0.4660 -0.0448
   20SAPC    HS 2577   4.503   1.087  10.469 -0.1391 -0.8287 -0.1512
   20SAPC   O21 2578   4.485   0.908  10.580  0.0356 -0.1454 -0.4687
   20SAPC   C21 2579   4.355   0.914  10.590  0.2364 -0.5944 -0.3040
   20SAPC   O22 2580   4.283   1.016  10.569 -0.3442 -0.3307  0.5826
   20SAPC   C22 2581   4.285   0.782  10.606 -0.3190  0.0784 -0.5293
   20SAPC   H2R 2582   4.292   0.760  10.715 -1.6978  1.8813 -0.0646
   20SAPC   H2S 2583   4.175   0.785  10.590 -0.7314  0.9355  2.2901
   20SAPC    C3 2584   4.699   0.997  10.491  0.5617  0.2878  0.6053
   20SAPC    HX 2585   4.748   0.950  10.579  1.4509 -0.4521 -0.2596
   20SAPC    HY 2586   4.736   1.098  10.463  1.9434  0.1012  1.6589
   20SAPC   O31 2587   4.712   0.924  10.364  0.4746 -0.5574  1.0595
   20SAPC   C31 2588   4.747   0.796  10.387 -0.7123  0.1358  0.6038
   20SAPC   O32 2589   4.786   0.745  10.488 -0.8003  0.0246 -0.5964
   20SAPC   C32 2590   4.741   0.726  10.246  0.8140 -0.5056 -0.4747
   20SAPC   H2X 2591   4.657   0.772  10.191  0.3622  1.0503  1.4596
   20SAPC   H2Y 2592   4.722   0.619  10.266  0.5424 -0.3346  0.1966
   20SAPC   C23 2593   4.344   0.668  10.526  0.4293 -0.2884  0.3466
   20SAPC   H3R 2594   4.283   0.576  10.530 -0.1075 -0.0537 -1.8671
   20SAPC   H3S 2595   4.440   0.635  10.570  0.3189 -3.3492 -1.5911
   20SAPC   C24 2596   4.361   0.688  10.380  0.3183 -0.3714  0.9505
   20SAPC   H4R 2597   4.417   0.602  10.338 -2.2550 -2.6454  1.9967
   20SAPC   H4S 2598   4.414   0.783  10.360  0.4238 -1.3531 -4.2537
   20SAPC   C25 2599   4.225   0.681  10.303 -0.5020 -0.1625 -0.0962
   20SAPC   H5R 2600   4.152   0.605  10.335 -3.1703  1.4195 -2.1697
   20SAPC   C26 2601   4.184   0.766  10.209  0.1317 -1.0356 -1.1628
   20SAPC   H6R 2602   4.080   0.761  10.174  0.1693  0.8973 -1.6696
   20SAPC   C27 2603   4.256   0.884  10.159 -0.2543 -0.6335 -0.3760
   20SAPC   H7R 2604   4.328   0.852  10.082 -1.3381  0.3529 -1.8330
   20SAPC   H7S 2605   4.309   0.923  10.248 -1.0833  1.3794 -0.7352
   20SAPC   C28 2606   4.169   1.000  10.101 -0.2216 -0.5514 -0.4354
   20SAPC   H8R 2607   4.124   1.062  10.179  1.7441  0.6835 -0.2588
   20SAPC   C29 2608   4.155   1.021   9.970 -0.2985  0.3770  0.5695
   20SAPC   H9R 2609   4.097   1.108   9.935  0.0619  0.2963 -0.2254
   20SAPC  C210 2610   4.209   0.928   9.863  0.3310 -0.9326  0.1654
   20SAPC  H10R 2611   4.313   0.896   9.884  0.7462  1.1172  1.3790
   20SAPC  H10S 2612   4.226   0.988   9.771  1.4135 -3.0004 -1.0161
   20SAPC  C211 2613   4.127   0.802   9.831 -0.2297  0.1448  0.0228
   20SAPC  H11R 2614   4.108   0.739   9.919  0.2690 -0.3129 -0.1928
   20SAPC  C212 2615   4.081   0.765   9.712 -0.1268  0.1176 -0.0262
   20SAPC  H12R 2616   4.026   0.670   9.709 -0.7242  0.3825  1.8965
   20SAPC  C213 2617   4.100   0.843   9.582  0.3552 -0.4162  0.1422
   20SAPC  H13R 2618   4.178   0.922   9.591 -0.6391  0.3197  2.9117
   20SAPC  H13S 2619   4.010   0.907   9.563  1.2081  0.8243  0.1985
   20SAPC  C214 2620   4.110   0.752   9.461  0.5558 -0.2784 -0.1134
   20SAPC  H14R 2621   4.119   0.643   9.474 -0.1925 -0.4935 -1.3386
   20SAPC  C215 2622   4.105   0.798   9.334 -0.9649  0.2941  0.0112
   20SAPC  H15R 2623   4.104   0.731   9.247 -0.6168  1.1597 -0.6722
   20SAPC  C216 2624   4.093   0.936   9.289  0.2358  0.1279  0.2441
   20SAPC  H16R 2625   4.094   1.011   9.371  0.3979 -0.8352  1.1281
   20SAPC  H16S 2626   3.987   0.955   9.259 -0.6182 -1.7601  2.0038
   20SAPC  C217 2627   4.183   0.988   9.177 -0.7420  0.4273 -0.0676
   20SAPC  H17R 2628   4.154   0.932   9.086 -1.5399 -0.8005  0.9154
   20SAPC  H17S 2629   4.290   0.964   9.193 -0.5421 -0.6327 -2.7574
   20SAPC  C218 2630   4.165   1.137   9.157 -0.3337 -0.0549 -0.0256
   20SAPC  H18R 2631   4.125   1.179   9.252  0.0619 -0.3080  0.2569
   20SAPC  H18S 2632   4.081   1.164   9.090 -1.6338  0.5797  1.8098
   20SAPC  C219 2633   4.290   1.201   9.099  0.3594  0.2722 -0.6517
   20SAPC  H19R 2634   4.370   1.173   9.171  0.3201  0.4667 -0.5312
   20SAPC  H19S 2635   4.291   1.312   9.103  0.4517  0.2138  1.4882
   20SAPC  C220 2636   4.320   1.159   8.954  0.2042  0.3532  0.1505
   20SAPC  H20R 2637   4.248   1.199   8.879  0.2040 -1.1835 -0.6840
   20SAPC  H20S 2638   4.314   1.048   8.946  0.9439  0.2973  0.3621
   20SAPC  H20T 2639   4.426   1.184   8.932  0.1100  0.2673 -0.4191
   20SAPC   C33 2640   4.875   0.753  10.177 -0.0954  0.2035  0.3419
   20SAPC   H3X 2641   4.950   0.688  10.227  1.3470  1.6793  0.1300
   20SAPC   H3Y 2642   4.911   0.856  10.194  0.2566  0.1352  0.0237
   20SAPC   C34 2643   4.867   0.746  10.023 -0.1289  0.3898  0.6153
   20SAPC   H4X 2644   4.810   0.656   9.992  0.7278  0.5175 -1.4262
   20SAPC   H4Y 2645   4.965   0.726   9.973 -1.3824 -1.8830 -1.0397
   20SAPC   C35 2646   4.798   0.868   9.965 -0.7885 -0.7850 -0.3367
   20SAPC   H5X 2647   4.841   0.965   9.995 -0.6152 -0.8694 -0.3151
   20SAPC   H5Y 2648   4.694   0.877  10.004 -0.7351 -2.0761  0.1374
   20SAPC   C36 2649   4.803   0.872   9.810 -0.3061 -0.1342  0.2717
   20SAPC   H6X 2650   4.753   0.785   9.763  1.0190 -1.2752  0.9394
   20SAPC   H6Y 2651   4.912   0.872   9.789 -0.1877  1.0273  0.8506
   20SAPC   C37 2652   4.735   0.996   9.766 -0.5501 -0.3068  0.2225
   20SAPC   H7X 2653   4.733   1.070   9.848 -1.8337 -1.2883  1.0870
   20SAPC   H7Y 2654   4.625   0.982   9.754 -1.1494  2.6226  1.9975
   20SAPC   C38 2655   4.787   1.041   9.627  0.0796  0.4451  0.0933
   20SAPC   H8X 2656   4.896   1.021   9.620  0.4521  2.9522 -2.2217
   20SAPC   H8Y 2657   4.761   1.148   9.610 -0.4266  0.5050  1.2026
   20SAPC   C39 2658   4.724   0.963   9.505  0.5991  0.1861 -0.0466
   20SAPC   H9X 2659   4.621   1.004   9.495  0.2958 -0.9271 -1.7568
   20SAPC   H9Y 2660   4.708   0.859   9.540  1.8365  0.5039  1.5233
   20SAPC  C310 2661   4.803   0.967   9.374  0.3905 -0.3333 -0.2141
   20SAPC  H10X 2662   4.735   0.921   9.299  1.4331  1.6934 -2.4486
   20SAPC  H10Y 2663   4.893   0.902   9.380  0.9733  0.4453 -0.4433
   20SAPC  C311 2664   4.834   1.105   9.333  0.1581  0.4548  0.4610
   20SAPC  H11X 2665   4.900   1.155   9.406  0.5543  1.7586 -0.7569
   20SAPC  H11Y 2666   4.733   1.150   9.325  0.8605  2.0349  0.2728
   20SAPC  C312 2667   4.904   1.123   9.191 -0.0995 -0.4004  0.3154
   20SAPC  H12X 2668   4.992   1.055   9.181 -0.2300 -0.3056 -1.6782
   20SAPC  H12Y 2669   4.940   1.228   9.196  0.8157 -0.5979 -1.6154
   20SAPC  C313 2670   4.806   1.111   9.076 -0.1986  0.1443 -0.0005
   20SAPC  H13X 2671   4.712   1.162   9.105 -2.7216 -3.7731 -1.0549
   20SAPC  H13Y 2672   4.781   1.005   9.060  3.0826 -0.6309 -0.3965
   20SAPC  C314 2673   4.851   1.166   8.931  0.3240 -0.8500  0.1798
   20SAPC  H14X 2674   4.869   1.275   8.933  0.9905 -0.9623  0.3781
   20SAPC  H14Y 2675   4.763   1.151   8.864  0.2973 -1.8913  0.4380
   20SAPC  C315 2676   4.965   1.086   8.868  0.2831  1.1470  0.0149
   20SAPC  H15X 2677   4.927   0.981   8.863  1.0613  0.8826 -0.5238
   20SAPC  H15Y 2678   5.060   1.090   8.925 -0.4249  3.5724  1.0806
   20SAPC  C316 2679   4.978   1.127   8.711  0.4870  0.2061  0.0259
   20SAPC  H16X 2680   5.029   1.225   8.697  0.3984  0.0933 -1.0752
   20SAPC  H16Y 2681   4.877   1.154   8.675  0.7342  1.2207  0.0600
   20SAPC  C317 2682   5.045   1.028   8.617 -0.2909  0.7675 -0.3144
   20SAPC  H17X 2683   5.133   0.983   8.668 -0.8121  0.0756 -0.0158
   20SAPC  H17Y 2684   5.082   1.088   8.531 -0.6113  1.7332  0.2032
   20SAPC  C318 2685   4.970   0.898   8.579 -0.1791 -0.6745 -0.1909
   20SAPC  H18X 2686   4.942   0.842   8.671 -1.4527 -1.2524 -0.9125
   20SAPC  H18Y 2687   5.026   0.824   8.518 -1.1961 -1.1199 -0.6022
   20SAPC  H18Z 2688   4.878   0.933   8.526  0.6506  0.8420 -0.6498
   21SAPC     N 2689   4.239   6.089  10.692  0.0679  0.8507 -0.7310
   21SAPC   C12 2690   4.303   6.151  10.814 -0.5151 -0.5900 -1.0165
   21SAPC  H12A 2691   4.402   6.108  10.823  0.4483  1.4805 -1.2497
   21SAPC  H12B 2692   4.257   6.122  10.907  2.3661  0.0272  0.6844
   21SAPC   C13 2693   4.093   6.122  10.677  0.1078 -0.2353 -0.0738
   21SAPC  H13A 2694   4.035   6.117  10.768  0.7621 -2.8414  0.2326
   21SAPC  H13B 2695   4.067   6.222  10.645 -2.3358 -0.0644  2.2913
   21SAPC  H13C 2696   4.037   6.065  10.605 -3.0123  2.2286  0.2717
   21SAPC   C14 2697   4.292   6.132  10.562  0.2136  0.1413 -0.0645
   21SAPC  H14A 2698   4.242   6.090  10.476  0.5660 -0.2612 -0.0739
   21SAPC  H14B 2699   4.276   6.239  10.557 -2.5653 -0.3353 -3.7024
   21SAPC  H14C 2700   4.399   6.122  10.559  0.3118  0.9811  0.2733
   21SAPC   C15 2701   4.249   5.935  10.702  0.1803 -0.5897  0.3632
   21SAPC  H15A 2702   4.349   5.919  10.742 -0.1211  0.2673  1.5047
   21SAPC  H15B 2703   4.181   5.880  10.766 -0.0359  2.1304  2.5879
   21SAPC  H15C 2704   4.255   5.896  10.602  0.9199  0.6040 -0.0708
   21SAPC   C11 2705   4.320   6.307  10.820  0.5907  0.1735 -0.1654
   21SAPC  H11A 2706   4.358   6.336  10.920 -0.2316 -0.4569  0.3364
   21SAPC  H11B 2707   4.218   6.351  10.808  1.0812  2.0546  2.2037
   21SAPC     P 2708   4.552   6.346  10.725  0.3949 -0.1457  0.2105
   21SAPC   O13 2709   4.589   6.242  10.828  0.1971 -0.1403 -0.1796
   21SAPC   O14 2710   4.625   6.345  10.597  0.4482 -0.5007  0.1442
   21SAPC   O12 2711   4.398   6.354  10.713 -0.0789 -0.8971  0.5841
   21SAPC   O11 2712   4.588   6.483  10.794  0.4117  0.8525  0.5311
   21SAPC    C1 2713   4.488   6.585  10.810  0.2954  0.2051  0.0453
   21SAPC    HA 2714   4.388   6.542  10.831  1.6256 -2.2163  1.5597
   21SAPC    HB 2715   4.519   6.634  10.904  1.1091 -2.0515  0.9830
   21SAPC    C2 2716   4.478   6.680  10.686  1.0213 -0.0579  0.2539
   21SAPC    HS 2717   4.395   6.752  10.705 -0.3526 -1.4865 -0.2539
   21SAPC   O21 2718   4.454   6.602  10.567 -0.1226 -0.0360  0.2563
   21SAPC   C21 2719   4.326   6.587  10.530 -1.2971 -0.0737  0.3350
   21SAPC   O22 2720   4.228   6.640  10.582 -0.2423  0.3867 -0.4615
   21SAPC   C22 2721   4.321   6.486  10.412  0.7992 -0.2941 -0.5469
   21SAPC   H2R 2722   4.425   6.452  10.396  0.0621 -2.5295 -0.7489
   21SAPC   H2S 2723   4.258   6.397  10.434  0.3556 -0.1825 -1.3410
   21SAPC    C3 2724   4.605   6.753  10.666  0.0635  0.2932 -0.1171
   21SAPC    HX 2725   4.686   6.685  10.634  1.5775  2.1446 -0.3317
   21SAPC    HY 2726   4.639   6.793  10.764 -2.2435  0.1881  0.7659
   21SAPC   O31 2727   4.585   6.872  10.582 -0.6258 -0.0755 -0.0300
   21SAPC   C31 2728   4.616   6.874  10.452  0.3441 -0.2725  0.3218
   21SAPC   O32 2729   4.645   6.773  10.390 -0.3540 -0.2239  0.1958
   21SAPC   C32 2730   4.616   7.021  10.403 -0.0133 -0.2987 -0.5679
   21SAPC   H2X 2731   4.714   7.064  10.436 -0.0934 -0.5486  0.0166
   21SAPC   H2Y 2732   4.544   7.082  10.462  0.6398 -1.9900  2.1068
   21SAPC   C23 2733   4.268   6.568  10.294  0.3283  0.4526 -0.4685
   21SAPC   H3R 2734   4.174   6.620  10.322 -0.6450 -1.2527 -0.5325
   21SAPC   H3S 2735   4.241   6.508  10.205 -0.9274 -0.0240  0.2179
   21SAPC   C24 2736   4.361   6.674  10.247 -0.3639  0.1603  0.2328
   21SAPC   H4R 2737   4.466   6.640  10.233 -0.4629  0.5772 -1.7571
   21SAPC   H4S 2738   4.365   6.749  10.329 -1.2041 -0.4467  0.8371
   21SAPC   C25 2739   4.316   6.747  10.122 -0.2550 -0.4900  0.3235
   21SAPC   H5R 2740   4.220   6.802  10.123 -1.0988 -1.9283  2.2400
   21SAPC   C26 2741   4.385   6.768  10.006 -0.0716 -0.1435 -0.3253
   21SAPC   H6R 2742   4.333   6.824   9.927 -0.1099  0.8435  0.3893
   21SAPC   C27 2743   4.525   6.733   9.971  0.1058  0.1728  0.1985
   21SAPC   H7R 2744   4.538   6.646   9.904 -0.6659 -1.8111  2.5425
   21SAPC   H7S 2745   4.582   6.711  10.064  1.8070  0.3452 -0.7840
   21SAPC   C28 2746   4.585   6.848   9.892 -0.4869  0.2632  0.7769
   21SAPC   H8R 2747   4.669   6.898   9.944 -0.4694  1.5033 -0.4202
   21SAPC   C29 2748   4.568   6.883   9.761 -0.2131  0.5027 -0.9295
   21SAPC   H9R 2749   4.641   6.952   9.717  1.7811 -2.5399 -2.5499
   21SAPC  C210 2750   4.483   6.809   9.658  0.3122 -0.1472  0.5025
   21SAPC  H10R 2751   4.415   6.880   9.607  0.9602 -0.3713 -0.6744
   21SAPC  H10S 2752   4.419   6.727   9.697  1.4961 -0.5454  1.6292
   21SAPC  C211 2753   4.575   6.743   9.564 -0.4098 -0.3110 -0.7408
   21SAPC  H11R 2754   4.657   6.688   9.613  1.3512  2.1625 -0.7858
   21SAPC  C212 2755   4.579   6.747   9.430  0.0336 -0.1546 -0.0478
   21SAPC  H12R 2756   4.650   6.678   9.382  0.7435 -0.6822  1.7215
   21SAPC  C213 2757   4.490   6.839   9.345  0.3332  0.2504 -0.3412
   21SAPC  H13R 2758   4.407   6.882   9.405 -1.5414  0.9561 -3.2972
   21SAPC  H13S 2759   4.444   6.790   9.256 -0.2974 -0.5081  0.4018
   21SAPC  C214 2760   4.579   6.954   9.300  0.2013 -0.2246  0.2221
   21SAPC  H14R 2761   4.630   7.013   9.377 -0.3864  3.2205 -1.9023
   21SAPC  C215 2762   4.601   6.991   9.174 -0.4527  0.0344  0.2447
   21SAPC  H15R 2763   4.675   7.071   9.161 -2.3715  1.4842 -2.2670
   21SAPC  C216 2764   4.549   6.932   9.049  0.5267 -0.3554  0.2711
   21SAPC  H16R 2765   4.522   7.011   8.975  0.2473 -0.2356  0.5018
   21SAPC  H16S 2766   4.450   6.885   9.063 -0.4450  1.0688 -1.5247
   21SAPC  C217 2767   4.649   6.834   8.983 -0.3705  0.1213 -0.2289
   21SAPC  H17R 2768   4.696   6.758   9.049  1.4865 -1.5617 -3.3518
   21SAPC  H17S 2769   4.730   6.897   8.940 -0.8571  1.5178  0.8258
   21SAPC  C218 2770   4.597   6.748   8.867 -0.2210 -0.5847  0.3078
   21SAPC  H18R 2771   4.532   6.672   8.915 -1.0820 -0.9227 -1.3926
   21SAPC  H18S 2772   4.686   6.698   8.823  2.0230  2.8991  0.7132
   21SAPC  C219 2773   4.523   6.827   8.762 -0.2491  0.7460 -0.1970
   21SAPC  H19R 2774   4.583   6.918   8.742 -0.3955  1.1181  0.9739
   21SAPC  H19S 2775   4.429   6.844   8.819  0.6392  0.4786  1.4015
   21SAPC  C220 2776   4.490   6.754   8.637  0.4448  0.2922 -0.4594
   21SAPC  H20R 2777   4.452   6.652   8.656  0.6894  0.4462  0.9820
   21SAPC  H20S 2778   4.579   6.736   8.573 -0.1982 -1.1888 -0.9482
   21SAPC  H20T 2779   4.413   6.800   8.571 -0.0781 -0.5247 -0.4252
   21SAPC   C33 2780   4.602   7.029  10.251  0.7532 -0.4206 -0.3328
   21SAPC   H3X 2781   4.529   6.963  10.200  1.4699 -1.7689  0.3591
   21SAPC   H3Y 2782   4.695   6.992  10.204  0.6515  0.4818 -1.2609
   21SAPC   C34 2783   4.568   7.172  10.214  0.0430  0.5044 -1.1268
   21SAPC   H4X 2784   4.649   7.244  10.242 -1.0815  0.8447  1.4190
   21SAPC   H4Y 2785   4.479   7.204  10.272 -0.6539 -0.5548 -1.6064
   21SAPC   C35 2786   4.544   7.179  10.067  0.0575 -0.3644  0.0507
   21SAPC   H5X 2787   4.465   7.109  10.031  0.4893 -0.2580 -1.0997
   21SAPC   H5Y 2788   4.632   7.137  10.014  0.3680 -0.7280  0.8450
   21SAPC   C36 2789   4.511   7.327  10.020  0.0163  0.7138 -0.4794
   21SAPC   H6X 2790   4.587   7.401  10.051 -1.4267  1.7893  0.5500
   21SAPC   H6Y 2791   4.411   7.348  10.062 -1.0064  1.1333 -3.0285
   21SAPC   C37 2792   4.489   7.325   9.871  0.0045  0.6686  0.0983
   21SAPC   H7X 2793   4.410   7.259   9.829 -0.7855  1.4072  0.4117
   21SAPC   H7Y 2794   4.590   7.304   9.828 -0.4053 -1.2119  0.0257
   21SAPC   C38 2795   4.438   7.460   9.825  0.7100 -0.6222 -0.4149
   21SAPC   H8X 2796   4.497   7.547   9.862 -0.5683  1.4292 -3.0547
   21SAPC   H8Y 2797   4.337   7.471   9.871  1.4734  0.7337  1.0207
   21SAPC   C39 2798   4.410   7.469   9.675  0.4953  0.0106 -0.0508
   21SAPC   H9X 2799   4.372   7.572   9.654  1.9359  0.3673 -0.9511
   21SAPC   H9Y 2800   4.330   7.395   9.651 -1.8617  1.3273  3.3748
   21SAPC  C310 2801   4.522   7.435   9.574  0.6705  0.1978  0.5882
   21SAPC  H10X 2802   4.552   7.328   9.578 -0.2952 -0.0682  0.9189
   21SAPC  H10Y 2803   4.613   7.496   9.592  0.4036  1.6278 -2.4309
   21SAPC  C311 2804   4.471   7.471   9.429 -0.5691  0.5972 -0.6758
   21SAPC  H11X 2805   4.469   7.581   9.412  0.9766  0.4463 -1.9961
   21SAPC  H11Y 2806   4.366   7.436   9.427  0.2528 -1.9396 -1.5583
   21SAPC  C312 2807   4.547   7.394   9.325  0.2500  0.1027 -0.1993
   21SAPC  H12X 2808   4.536   7.285   9.345 -2.0612  0.6467  1.6765
   21SAPC  H12Y 2809   4.655   7.415   9.338  0.6442 -1.9561  0.0185
   21SAPC  C313 2810   4.491   7.426   9.186  0.0657 -0.4259 -0.4189
   21SAPC  H13X 2811   4.380   7.428   9.188  0.0264 -0.9829 -1.5302
   21SAPC  H13Y 2812   4.511   7.345   9.112 -0.5098 -0.1979 -0.8352
   21SAPC  C314 2813   4.546   7.555   9.128  0.5641  0.4102 -0.6748
   21SAPC  H14X 2814   4.656   7.559   9.111  0.6562  0.0543 -0.1876
   21SAPC  H14Y 2815   4.517   7.634   9.201 -0.5732  0.0406 -0.7119
   21SAPC  C315 2816   4.484   7.595   8.996 -0.4745  0.0634 -0.1828
   21SAPC  H15X 2817   4.465   7.704   9.009  0.1358  0.1641 -0.1393
   21SAPC  H15Y 2818   4.400   7.526   8.970 -0.3256 -0.2986  0.2870
   21SAPC  C316 2819   4.570   7.573   8.875  0.3792  0.0427 -0.1521
   21SAPC  H16X 2820   4.613   7.471   8.876  1.9419  0.6751 -0.8714
   21SAPC  H16Y 2821   4.654   7.646   8.879 -0.2414  0.6681  1.6526
   21SAPC  C317 2822   4.500   7.581   8.735  0.3903  0.4239 -0.3332
   21SAPC  H17X 2823   4.579   7.570   8.658 -1.4947 -1.6145 -2.0290
   21SAPC  H17Y 2824   4.461   7.684   8.720  1.2371  1.1528  2.0987
   21SAPC  C318 2825   4.387   7.476   8.710 -0.0726 -0.7932 -0.1426
   21SAPC  H18X 2826   4.366   7.461   8.602  0.9535  3.3993 -0.9966
   21SAPC  H18Y 2827   4.291   7.521   8.742  0.1731 -0.7061  0.4680
   21SAPC  H18Z 2828   4.405   7.381   8.765  1.8628 -0.3042  0.0801
   22SAPC     N 2829   3.771   3.684  10.780 -0.2706 -0.3795 -0.1702
   22SAPC   C12 2830   3.617   3.668  10.779 -0.0103 -0.6941 -0.8630
   22SAPC  H12A 2831   3.569   3.751  10.829  3.0231  0.5932 -0.0201
   22SAPC  H12B 2832   3.584   3.583  10.836 -0.4538  0.2228  0.2577
   22SAPC   C13 2833   3.809   3.822  10.740 -0.2953  0.1091 -0.9682
   22SAPC  H13A 2834   3.915   3.840  10.748 -0.6397  1.0507  1.8377
   22SAPC  H13B 2835   3.769   3.853  10.645  1.2900  2.3908 -0.9292
   22SAPC  H13C 2836   3.765   3.888  10.813  3.1445 -0.7554  2.0609
   22SAPC   C14 2837   3.824   3.661  10.920 -0.0726 -0.1578 -0.0023
   22SAPC  H14A 2838   3.932   3.661  10.912  0.1147  1.3865  2.2860
   22SAPC  H14B 2839   3.791   3.738  10.988  0.6360  0.7983 -0.7207
   22SAPC  H14C 2840   3.790   3.568  10.964  0.9428 -0.5584 -0.0430
   22SAPC   C15 2841   3.845   3.589  10.685 -0.6473  0.2537  0.1910
   22SAPC  H15A 2842   3.949   3.616  10.686 -0.6532  0.2686  0.6455
   22SAPC  H15B 2843   3.821   3.488  10.715  0.1834 -0.2420 -0.8220
   22SAPC  H15C 2844   3.818   3.586  10.581 -1.7811 -2.1167  0.5250
   22SAPC   C11 2845   3.550   3.666  10.637  0.1909  1.1814 -0.6519
   22SAPC  H11A 2846   3.448   3.633  10.666  0.4584  0.8367 -0.0813
   22SAPC  H11B 2847   3.597   3.579  10.586  0.9753  3.2265 -3.5390
   22SAPC     P 2848   3.435   3.865  10.503  0.1561 -0.0609  0.0740
   22SAPC   O13 2849   3.344   3.907  10.614 -0.2766  0.0967 -0.3403
   22SAPC   O14 2850   3.494   3.974  10.422  0.1695 -0.0317  0.2238
   22SAPC   O12 2851   3.554   3.779  10.561  0.2596 -0.0920 -0.2828
   22SAPC   O11 2852   3.362   3.769  10.400 -0.2816 -0.1147  0.1005
   22SAPC    C1 2853   3.440   3.698  10.310 -0.5737 -0.0237  0.2686
   22SAPC    HA 2854   3.535   3.663  10.356 -0.7387 -0.2851  0.4150
   22SAPC    HB 2855   3.397   3.603  10.271 -0.0903 -1.6397  3.4163
   22SAPC    C2 2856   3.479   3.783  10.183  0.2158  0.3619 -0.0394
   22SAPC    HS 2857   3.514   3.881  10.222  0.5848 -0.2202  1.1084
   22SAPC   O21 2858   3.356   3.779  10.113 -0.0316  0.1551 -0.2370
   22SAPC   C21 2859   3.336   3.897  10.052  1.0301  0.0259 -0.2959
   22SAPC   O22 2860   3.403   3.995  10.062 -0.5012  0.1191  0.1357
   22SAPC   C22 2861   3.201   3.891   9.973 -0.5223  0.3107  0.0518
   22SAPC   H2R 2862   3.208   3.820   9.888 -0.3172 -0.8916  1.0521
   22SAPC   H2S 2863   3.125   3.853  10.044  0.2166 -1.8216 -0.2588
   22SAPC    C3 2864   3.586   3.723  10.097  1.0043 -0.9511 -0.4537
   22SAPC    HX 2865   3.548   3.620  10.079  0.1919 -0.8715  0.7200
   22SAPC    HY 2866   3.680   3.720  10.157  0.7691  0.3564 -0.0026
   22SAPC   O31 2867   3.606   3.793   9.969  0.2192  0.0334  0.4508
   22SAPC   C31 2868   3.683   3.893   9.959  0.3547  0.4210 -0.3018
   22SAPC   O32 2869   3.769   3.922  10.040  0.6127 -0.5330  0.5400
   22SAPC   C32 2870   3.661   3.974   9.826 -0.7941  0.1013 -0.3007
   22SAPC   H2X 2871   3.652   4.081   9.856 -2.6195 -0.4301  1.2051
   22SAPC   H2Y 2872   3.567   3.937   9.778 -1.2325  0.1799  0.4847
   22SAPC   C23 2873   3.164   4.035   9.929 -0.1419 -0.8762 -0.0561
   22SAPC   H3R 2874   3.181   4.112  10.006  0.1702 -1.5953  0.6027
   22SAPC   H3S 2875   3.058   4.037   9.896  0.0875 -1.3393 -0.8692
   22SAPC   C24 2876   3.231   4.071   9.786  0.0398  0.4955  0.6663
   22SAPC   H4R 2877   3.205   3.993   9.711  0.4360 -1.7915  2.8612
   22SAPC   H4S 2878   3.338   4.062   9.811  0.2351  1.0090  0.0292
   22SAPC   C25 2879   3.194   4.208   9.724  0.3322 -0.3238 -0.9200
   22SAPC   H5R 2880   3.089   4.223   9.693 -0.3163  1.1717  1.8195
   22SAPC   C26 2881   3.284   4.306   9.713  0.1008  0.2078 -1.0956
   22SAPC   H6R 2882   3.257   4.384   9.641  1.9437 -0.8337 -2.9819
   22SAPC   C27 2883   3.426   4.295   9.765 -0.4210 -0.2869  0.0063
   22SAPC   H7R 2884   3.497   4.230   9.710  1.7534  0.9638  1.2380
   22SAPC   H7S 2885   3.417   4.263   9.871  1.0713  1.4172  0.6675
   22SAPC   C28 2886   3.495   4.430   9.765  0.0418  0.4461  0.7374
   22SAPC   H8R 2887   3.508   4.462   9.870 -2.7517 -0.1492  1.2944
   22SAPC   C29 2888   3.534   4.501   9.659 -0.1413  0.2753 -0.4218
   22SAPC   H9R 2889   3.583   4.598   9.675 -0.9936  0.5984  0.2985
   22SAPC  C210 2890   3.510   4.455   9.517 -1.0150 -0.2508  1.0973
   22SAPC  H10R 2891   3.450   4.537   9.473  0.5380  0.8798  1.0597
   22SAPC  H10S 2892   3.450   4.362   9.511 -2.5798  0.5655  3.3655
   22SAPC  C211 2893   3.649   4.432   9.452  0.6839 -0.4307 -0.5206
   22SAPC  H11R 2894   3.722   4.370   9.508 -1.0638 -0.2250  2.0736
   22SAPC  C212 2895   3.699   4.483   9.335 -0.7474 -0.6709  0.1265
   22SAPC  H12R 2896   3.804   4.466   9.306  0.1472  2.3172  1.4611
   22SAPC  C213 2897   3.627   4.565   9.233 -0.1093 -0.0149 -1.1276
   22SAPC  H13R 2898   3.518   4.562   9.257  0.0687  0.9039 -0.1601
   22SAPC  H13S 2899   3.650   4.516   9.136  4.3123 -0.9202  0.2390
   22SAPC  C214 2900   3.671   4.705   9.221 -0.4087 -0.7886 -0.2294
   22SAPC  H14R 2901   3.698   4.758   9.313 -0.5495 -0.8009 -0.1795
   22SAPC  C215 2902   3.692   4.776   9.107  0.2647  0.0525  0.1645
   22SAPC  H15R 2903   3.715   4.883   9.117  0.9531  0.0162 -0.9254
   22SAPC  C216 2904   3.663   4.734   8.961  0.0808 -0.5866  0.3768
   22SAPC  H16R 2905   3.604   4.817   8.918  1.2137  1.3814  2.5155
   22SAPC  H16S 2906   3.595   4.649   8.940  0.7016 -1.6150  2.3376
   22SAPC  C217 2907   3.788   4.722   8.874 -0.6674  0.7440  0.2719
   22SAPC  H17R 2908   3.841   4.820   8.874  0.0162  0.3880 -1.5112
   22SAPC  H17S 2909   3.757   4.701   8.770  1.6811 -0.3786 -0.2388
   22SAPC  C218 2910   3.891   4.605   8.917  0.0222  0.7303  0.2658
   22SAPC  H18R 2911   3.838   4.508   8.907  1.2126 -0.0676  1.5037
   22SAPC  H18S 2912   3.902   4.632   9.024 -2.4100  2.3979  0.1380
   22SAPC  C219 2913   4.020   4.603   8.842  0.5570  0.0232 -0.2971
   22SAPC  H19R 2914   4.070   4.698   8.870 -2.0109  0.2236  3.9912
   22SAPC  H19S 2915   3.997   4.593   8.733  1.0309 -0.4984 -0.3490
   22SAPC  C220 2916   4.117   4.491   8.880  0.0862  0.4972  0.3636
   22SAPC  H20R 2917   4.223   4.504   8.849  0.2723 -1.6241  0.0553
   22SAPC  H20S 2918   4.084   4.395   8.835  0.6815 -0.0054  1.0018
   22SAPC  H20T 2919   4.112   4.476   8.990  1.8555 -0.1187  0.3804
   22SAPC   C33 2920   3.781   3.954   9.725  0.1133  0.4546 -0.4360
   22SAPC   H3X 2921   3.806   3.847   9.709 -0.1674  0.3239 -0.0058
   22SAPC   H3Y 2922   3.865   3.998   9.782 -0.3359  2.0852 -0.9983
   22SAPC   C34 2923   3.770   4.044   9.599 -0.1557  0.1136 -1.2070
   22SAPC   H4X 2924   3.803   4.148   9.623  1.4079 -1.2663  2.9932
   22SAPC   H4Y 2925   3.666   4.046   9.560 -0.3118  0.1415 -0.7837
   22SAPC   C35 2926   3.855   3.997   9.493 -0.9066  0.0847 -0.1542
   22SAPC   H5X 2927   3.836   3.889   9.472  0.1329 -0.4411  1.5096
   22SAPC   H5Y 2928   3.959   4.003   9.533 -1.0451 -1.2615  0.4409
   22SAPC   C36 2929   3.841   4.081   9.369 -0.5455 -0.1942  0.2134
   22SAPC   H6X 2930   3.819   4.187   9.394  1.2566  0.4252 -0.7111
   22SAPC   H6Y 2931   3.749   4.059   9.311  0.3914 -1.9925 -0.6692
   22SAPC   C37 2932   3.958   4.077   9.267  0.5973  0.3138  1.0592
   22SAPC   H7X 2933   3.979   3.970   9.248 -3.0015 -0.4144  0.7775
   22SAPC   H7Y 2934   4.049   4.126   9.308  0.1720  2.0674 -0.0051
   22SAPC   C38 2935   3.921   4.145   9.135 -0.5642 -0.3660 -0.8282
   22SAPC   H8X 2936   3.903   4.252   9.160  1.1861 -0.2329 -0.0897
   22SAPC   H8Y 2937   3.824   4.106   9.095 -0.6577 -2.4991  1.3355
   22SAPC   C39 2938   4.022   4.153   9.026 -0.5126  0.8857  0.0058
   22SAPC   H9X 2939   4.122   4.194   9.051 -0.5859  0.1517  1.5041
   22SAPC   H9Y 2940   3.971   4.228   8.962 -1.9999  0.6775  0.9119
   22SAPC  C310 2941   4.040   4.033   8.935  0.6552 -0.7768  0.0586
   22SAPC  H10X 2942   4.028   4.047   8.825  1.1260  0.1746  0.1167
   22SAPC  H10Y 2943   3.974   3.950   8.967  0.8741 -0.5112  1.2094
   22SAPC  C311 2944   4.187   3.977   8.944 -0.4526  0.1650  0.1723
   22SAPC  H11X 2945   4.196   3.927   9.043  1.1902  1.4746  0.6980
   22SAPC  H11Y 2946   4.251   4.067   8.945 -1.5825  0.9730  1.8810
   22SAPC  C312 2947   4.236   3.885   8.832  0.7735 -0.2359 -0.3577
   22SAPC  H12X 2948   4.228   3.930   8.731 -2.1338  0.7478  0.2583
   22SAPC  H12Y 2949   4.162   3.804   8.819  3.2302 -2.7103  0.6452
   22SAPC  C313 2950   4.374   3.826   8.863 -0.6895 -0.7188  0.1457
   22SAPC  H13X 2951   4.377   3.776   8.963  1.0184 -1.2664 -0.1622
   22SAPC  H13Y 2952   4.440   3.914   8.875 -0.3663 -0.4914 -2.9457
   22SAPC  C314 2953   4.427   3.741   8.757 -0.3425 -0.1334 -0.5012
   22SAPC  H14X 2954   4.381   3.775   8.661  0.2033  0.8610 -0.4185
   22SAPC  H14Y 2955   4.398   3.634   8.769 -2.2242  0.0670 -2.7942
   22SAPC  C315 2956   4.581   3.742   8.746 -0.7336 -0.0638 -0.3959
   22SAPC  H15X 2957   4.625   3.706   8.842 -1.3274 -1.3901 -0.6186
   22SAPC  H15Y 2958   4.606   3.849   8.733  0.4139 -0.4328 -1.2581
   22SAPC  C316 2959   4.640   3.659   8.631  0.6017 -0.4489  0.1027
   22SAPC  H16X 2960   4.629   3.717   8.537 -1.5238 -1.0191 -0.0260
   22SAPC  H16Y 2961   4.579   3.569   8.607  1.3669 -0.8404 -0.4228
   22SAPC  C317 2962   4.785   3.631   8.662  0.7049 -0.5657  0.2063
   22SAPC  H17X 2963   4.817   3.560   8.582 -0.5920 -0.4630 -0.4198
   22SAPC  H17Y 2964   4.792   3.585   8.763  0.5192  0.4565  0.6901
   22SAPC  C318 2965   4.872   3.759   8.659  0.8739  0.1882  0.3380
   22SAPC  H18X 2966   4.873   3.803   8.557 -1.7820 -1.0587 -0.2739
   22SAPC  H18Y 2967   4.974   3.733   8.695  1.3130 -0.7007 -1.4438
   22SAPC  H18Z 2968   4.830   3.824   8.738 -0.3332 -1.6444  1.2557
   23SAPC     N 2969   4.709   5.792  11.093  0.0705  0.5191  0.0836
   23SAPC   C12 2970   4.680   5.883  10.968 -0.0463  0.1742  0.2599
   23SAPC  H12A 2971   4.737   5.834  10.891  1.8622 -0.1853  1.8489
   23SAPC  H12B 2972   4.733   5.973  10.993  0.2620 -0.0120  0.2788
   23SAPC   C13 2973   4.857   5.772  11.111  0.0257 -0.3149  0.5109
   23SAPC  H13A 2974   4.883   5.711  11.197  0.6950 -1.4157 -0.4660
   23SAPC  H13B 2975   4.890   5.714  11.027 -0.3068  1.7822 -1.0969
   23SAPC  H13C 2976   4.912   5.864  11.117  2.2352 -1.5781  0.2020
   23SAPC   C14 2977   4.652   5.853  11.219 -0.0687 -0.1903  0.7346
   23SAPC  H14A 2978   4.645   5.773  11.291  1.7261  0.4306  1.6391
   23SAPC  H14B 2979   4.703   5.942  11.253  0.0098 -0.2689  0.8206
   23SAPC  H14C 2980   4.549   5.884  11.211 -0.0590 -0.3577 -0.0928
   23SAPC   C15 2981   4.653   5.651  11.070 -1.2590 -0.5035 -0.1628
   23SAPC  H15A 2982   4.655   5.586  11.156  0.3203  0.1640  0.3223
   23SAPC  H15B 2983   4.549   5.654  11.040 -1.5542 -0.0225  0.9014
   23SAPC  H15C 2984   4.700   5.605  10.984 -0.5247 -0.2175  0.0829
   23SAPC   C11 2985   4.537   5.908  10.914 -0.0482 -0.5061 -0.1425
   23SAPC  H11A 2986   4.539   5.987  10.836 -0.5257  0.5544  0.8934
   23SAPC  H11B 2987   4.485   5.954  11.002 -0.9848  1.8466 -1.8586
   23SAPC     P 2988   4.508   5.690  10.758  0.0704 -0.1449  0.0188
   23SAPC   O13 2989   4.651   5.644  10.767 -0.1986  0.0769  0.3547
   23SAPC   O14 2990   4.409   5.583  10.759  0.3606 -0.4356  0.0668
   23SAPC   O12 2991   4.469   5.793  10.868  0.3680 -0.0320 -0.2598
   23SAPC   O11 2992   4.492   5.779  10.632 -0.3875 -0.0466 -0.4476
   23SAPC    C1 2993   4.589   5.871  10.582 -0.4497  1.1588  0.1959
   23SAPC    HA 2994   4.540   5.959  10.535  1.2752  3.4397  2.5355
   23SAPC    HB 2995   4.650   5.914  10.665  3.7702 -1.8388 -1.1901
   23SAPC    C2 2996   4.696   5.820  10.475  0.2078 -0.0670 -0.2101
   23SAPC    HS 2997   4.711   5.913  10.416  1.4412 -0.4106 -0.4627
   23SAPC   O21 2998   4.636   5.718  10.395 -0.0699  0.3916  0.1067
   23SAPC   C21 2999   4.682   5.697  10.276  0.3077  0.4593 -0.4584
   23SAPC   O22 3000   4.775   5.754  10.227 -0.4650 -0.2456 -0.0382
   23SAPC   C22 3001   4.612   5.569  10.217 -0.4834 -0.0656  0.5388
   23SAPC   H2R 3002   4.635   5.489  10.290  0.1022 -1.2730 -0.9221
   23SAPC   H2S 3003   4.504   5.593  10.219 -0.6982 -1.1396  2.1770
   23SAPC    C3 3004   4.825   5.773  10.539 -0.6883 -0.2521 -0.2423
   23SAPC    HX 3005   4.802   5.670  10.575  0.7430 -1.0312 -1.5298
   23SAPC    HY 3006   4.853   5.834  10.627  0.9885  0.4722 -1.2501
   23SAPC   O31 3007   4.936   5.754  10.447  0.8973 -0.3591  0.5870
   23SAPC   C31 3008   5.035   5.683  10.502 -0.0512  0.3475 -0.0564
   23SAPC   O32 3009   5.045   5.662  10.620  0.2927 -0.6184 -0.8805
   23SAPC   C32 3010   5.126   5.632  10.391 -0.0454  0.4735 -0.3804
   23SAPC   H2X 3011   5.115   5.690  10.297 -1.1108 -0.8212 -1.0611
   23SAPC   H2Y 3012   5.091   5.528  10.373  1.7356 -0.7147  2.5540
   23SAPC   C23 3013   4.668   5.526  10.084 -0.4182 -0.1671  0.0716
   23SAPC   H3R 3014   4.761   5.472  10.113 -0.7507  0.1608  1.8287
   23SAPC   H3S 3015   4.691   5.618  10.027 -0.0415 -0.6620 -0.5755
   23SAPC   C24 3016   4.569   5.442  10.006 -0.6029  0.0859  0.4104
   23SAPC   H4R 3017   4.482   5.502   9.972 -1.1227 -0.1148  1.3828
   23SAPC   H4S 3018   4.528   5.362  10.071 -0.0071 -0.0918  0.5689
   23SAPC   C25 3019   4.631   5.371   9.882  0.3077 -0.0360 -0.2190
   23SAPC   H5R 3020   4.661   5.267   9.900  1.1363  0.0385 -1.0942
   23SAPC   C26 3021   4.648   5.418   9.758  0.4185  0.2294  0.2774
   23SAPC   H6R 3022   4.710   5.360   9.687  0.3762 -2.6080  2.4654
   23SAPC   C27 3023   4.604   5.549   9.699 -0.6565  0.3608  0.3852
   23SAPC   H7R 3024   4.551   5.602   9.781  1.5098  2.0667  0.7231
   23SAPC   H7S 3025   4.524   5.536   9.622  1.3321 -0.4512 -1.6089
   23SAPC   C28 3026   4.726   5.613   9.638 -0.2131 -1.2730  0.3268
   23SAPC   H8R 3027   4.773   5.687   9.704 -0.9546 -2.2998  2.0377
   23SAPC   C29 3028   4.751   5.606   9.500  0.2586 -0.2921 -0.5558
   23SAPC   H9R 3029   4.841   5.654   9.459 -1.6465  1.5069 -2.7690
   23SAPC  C210 3030   4.676   5.529   9.396  0.0678  0.3223 -0.5520
   23SAPC  H10R 3031   4.613   5.610   9.352  2.1788  1.8956 -0.7881
   23SAPC  H10S 3032   4.613   5.450   9.441  1.1638 -0.3902 -0.2249
   23SAPC  C211 3033   4.757   5.467   9.281 -0.6025 -0.5004 -0.3897
   23SAPC  H11R 3034   4.764   5.357   9.279 -0.7523 -0.5081 -0.5528
   23SAPC  C212 3035   4.801   5.542   9.181 -0.4606 -0.0525 -0.2686
   23SAPC  H12R 3036   4.853   5.497   9.095  0.5793 -0.4022  0.5325
   23SAPC  C213 3037   4.781   5.689   9.173 -0.3106 -1.2657 -0.4125
   23SAPC  H13R 3038   4.878   5.736   9.146 -0.6683  0.7120  1.5678
   23SAPC  H13S 3039   4.758   5.742   9.268  1.1454  0.8392 -1.1824
   23SAPC  C214 3040   4.681   5.729   9.071  0.5133 -0.0181  0.3904
   23SAPC  H14R 3041   4.575   5.716   9.096  0.2818  2.8797  1.0238
   23SAPC  C215 3042   4.714   5.782   8.948 -0.2815  0.5517  0.2384
   23SAPC  H15R 3043   4.641   5.818   8.875 -2.5638 -0.8215  1.7944
   23SAPC  C216 3044   4.855   5.805   8.894  0.0060 -1.2720  0.5966
   23SAPC  H16R 3045   4.931   5.734   8.934  1.1735  0.2100  1.0716
   23SAPC  H16S 3046   4.880   5.910   8.920 -0.4665 -0.6469 -1.4010
   23SAPC  C217 3047   4.888   5.798   8.736  0.3696 -0.5878  0.1966
   23SAPC  H17R 3048   4.998   5.804   8.720  0.3605 -0.2559  0.2507
   23SAPC  H17S 3049   4.840   5.893   8.703  0.4969 -1.3027 -2.1788
   23SAPC  C218 3050   4.830   5.676   8.665  0.0960 -0.7916  0.1925
   23SAPC  H18R 3051   4.720   5.675   8.673  0.0828 -2.5810  0.0088
   23SAPC  H18S 3052   4.875   5.585   8.711 -1.7736 -1.0913  1.4351
   23SAPC  C219 3053   4.878   5.675   8.517  0.1535  0.3677 -0.2163
   23SAPC  H19R 3054   4.869   5.777   8.472  3.4420 -0.4082 -2.8767
   23SAPC  H19S 3055   4.813   5.604   8.462  0.2415  0.9970 -1.1505
   23SAPC  C220 3056   5.020   5.641   8.495 -0.3490  0.3170  0.1877
   23SAPC  H20R 3057   5.056   5.544   8.536  0.5596  0.5637 -0.0151
   23SAPC  H20S 3058   5.081   5.720   8.544  0.8582 -0.7786  0.4761
   23SAPC  H20T 3059   5.045   5.638   8.387 -1.1955  0.6328 -0.0193
   23SAPC   C33 3060   5.273   5.614  10.434 -0.4011 -0.1476  0.9355
   23SAPC   H3X 3061   5.275   5.531  10.507  0.8907  0.6121  1.7750
   23SAPC   H3Y 3062   5.314   5.704  10.485 -0.5275  1.1958 -1.2732
   23SAPC   C34 3063   5.374   5.575  10.323  0.9665  0.6278  0.1891
   23SAPC   H4X 3064   5.333   5.477  10.289  0.3718  1.2092 -0.8146
   23SAPC   H4Y 3065   5.471   5.552  10.371  0.7376  1.2604  0.9516
   23SAPC   C35 3066   5.387   5.690  10.225 -0.3082 -0.5339 -0.4646
   23SAPC   H5X 3067   5.418   5.785  10.275  1.4085 -0.8186 -0.9567
   23SAPC   H5Y 3068   5.287   5.719  10.185 -0.6645  0.3678  1.0307
   23SAPC   C36 3069   5.492   5.656  10.107 -0.4336 -0.5078 -0.2911
   23SAPC   H6X 3070   5.479   5.554  10.064 -1.0436 -1.4166  2.0025
   23SAPC   H6Y 3071   5.589   5.678  10.156 -0.8717  0.8143  0.0102
   23SAPC   C37 3072   5.482   5.749   9.987 -0.5410 -0.2785 -0.2768
   23SAPC   H7X 3073   5.525   5.846  10.020 -4.3254  0.3290  3.3834
   23SAPC   H7Y 3074   5.376   5.758   9.954 -0.4981  0.1204 -0.3059
   23SAPC   C38 3075   5.555   5.685   9.869  0.8127  0.3274  0.2719
   23SAPC   H8X 3076   5.529   5.577   9.870  1.1279  0.2526  0.5194
   23SAPC   H8Y 3077   5.664   5.705   9.865  0.3848  2.4413 -1.5342
   23SAPC   C39 3078   5.512   5.757   9.734 -0.4104 -0.1147 -0.6861
   23SAPC   H9X 3079   5.526   5.863   9.764  1.5519 -0.4446 -0.3270
   23SAPC   H9Y 3080   5.403   5.748   9.717 -0.8852 -0.2883  2.1903
   23SAPC  C310 3081   5.596   5.726   9.606 -0.5455  0.1306  0.1303
   23SAPC  H10X 3082   5.599   5.615   9.602 -0.8199  0.1549 -0.8023
   23SAPC  H10Y 3083   5.699   5.765   9.618  0.1395 -1.9694  1.3875
   23SAPC  C311 3084   5.535   5.772   9.472 -0.3777  0.3385 -0.3316
   23SAPC  H11X 3085   5.517   5.881   9.483 -0.0627  0.2910  0.7200
   23SAPC  H11Y 3086   5.439   5.718   9.461 -0.4009  0.4190 -0.5276
   23SAPC  C312 3087   5.628   5.731   9.360  0.4780  0.0672  0.6283
   23SAPC  H12X 3088   5.608   5.622   9.348  1.5421 -0.1099  0.4185
   23SAPC  H12Y 3089   5.738   5.731   9.379  0.6795 -0.2169 -0.4965
   23SAPC  C313 3090   5.614   5.809   9.231  0.1012 -0.6114 -0.5054
   23SAPC  H13X 3091   5.626   5.916   9.258 -0.1481 -0.1858 -2.0255
   23SAPC  H13Y 3092   5.517   5.783   9.183  1.8277 -1.7973 -3.4864
   23SAPC  C314 3093   5.725   5.791   9.136 -0.2967 -0.4049  0.2801
   23SAPC  H14X 3094   5.717   5.686   9.101 -1.0606 -0.3408  0.2481
   23SAPC  H14Y 3095   5.818   5.804   9.195 -1.5662  0.5206  2.1674
   23SAPC  C315 3096   5.720   5.882   9.009 -0.2957  0.2646  0.9734
   23SAPC  H15X 3097   5.730   5.990   9.035 -0.5540  0.8577 -1.2474
   23SAPC  H15Y 3098   5.612   5.891   8.981 -0.2937 -0.7773  0.6364
   23SAPC  C316 3099   5.803   5.827   8.896  0.4019 -0.5648 -0.4389
   23SAPC  H16X 3100   5.771   5.722   8.874 -3.3436  0.1835  1.0153
   23SAPC  H16Y 3101   5.904   5.800   8.932 -0.3425 -1.2707  1.1656
   23SAPC  C317 3102   5.823   5.915   8.775  0.0247  0.8564  0.0254
   23SAPC  H17X 3103   5.722   5.947   8.742 -1.2341 -1.3258  1.5898
   23SAPC  H17Y 3104   5.866   5.860   8.689  1.4740  1.8108  0.1330
   23SAPC  C318 3105   5.903   6.052   8.786 -0.0829 -0.8136  0.0070
   23SAPC  H18X 3106   5.933   6.074   8.681  0.0121 -0.8236  0.0321
   23SAPC  H18Y 3107   5.996   6.043   8.845 -0.1480 -1.5921  0.0070
   23SAPC  H18Z 3108   5.836   6.130   8.829  0.6829 -0.0240 -0.2342
   24SAPC     N 3109   2.168   6.149  11.303  0.0898 -0.0729  0.1542
   24SAPC   C12 3110   2.204   6.099  11.163 -0.0288  0.4816  0.4770
   24SAPC  H12A 3111   2.258   6.006  11.165  1.9524  1.5741 -0.3182
   24SAPC  H12B 3112   2.283   6.163  11.125  0.5960 -0.3358  0.3844
   24SAPC   C13 3113   2.096   6.046  11.381  0.0556 -0.4167 -0.0042
   24SAPC  H13A 3114   2.153   5.954  11.380  0.6628 -0.0404 -0.4083
   24SAPC  H13B 3115   2.077   6.084  11.480 -1.1635  1.1403 -0.8246
   24SAPC  H13C 3116   2.009   6.030  11.319  0.7285 -1.7627 -0.6262
   24SAPC   C14 3117   2.299   6.167  11.363 -0.8161  1.0147 -0.4402
   24SAPC  H14A 3118   2.297   6.171  11.471 -0.9791 -2.7467 -0.2237
   24SAPC  H14B 3119   2.376   6.096  11.337 -1.0841  1.0412 -1.3156
   24SAPC  H14C 3120   2.336   6.261  11.323  0.9241  0.4544 -0.1989
   24SAPC   C15 3121   2.088   6.279  11.297 -0.4916 -0.4564 -0.0954
   24SAPC  H15A 3122   2.077   6.327  11.393 -2.1634 -0.8021 -0.0976
   24SAPC  H15B 3123   2.137   6.351  11.233  0.1816 -1.1667 -0.3848
   24SAPC  H15C 3124   1.987   6.266  11.260 -1.1489  1.7798  0.8254
   24SAPC   C11 3125   2.079   6.078  11.066  0.3641  0.6058 -0.1067
   24SAPC  H11A 3126   2.115   6.056  10.963 -0.6818  0.9687 -0.5521
   24SAPC  H11B 3127   2.018   6.171  11.066 -1.3131 -0.4780 -0.1335
   24SAPC     P 3128   1.847   5.960  11.055  0.0023  0.3109  0.1490
   24SAPC   O13 3129   1.819   5.814  11.057 -0.0086  0.2085 -0.7194
   24SAPC   O14 3130   1.765   6.051  11.130 -0.0585 -0.5989 -0.1820
   24SAPC   O12 3131   1.993   5.968  11.102  0.3819 -0.8344 -0.3554
   24SAPC   O11 3132   1.863   6.008  10.910  0.0242  0.4552 -0.3082
   24SAPC    C1 3133   1.890   5.919  10.799  0.4533  0.5227 -0.5460
   24SAPC    HA 3134   1.973   5.967  10.742  0.2829  1.5191  0.0377
   24SAPC    HB 3135   1.938   5.822  10.823 -0.8200 -0.1900 -0.8219
   24SAPC    C2 3136   1.758   5.900  10.709  0.0473 -0.1511  0.5436
   24SAPC    HS 3137   1.689   5.832  10.762 -0.2151 -0.6852 -0.4739
   24SAPC   O21 3138   1.803   5.847  10.588  0.1858  0.9404  1.2530
   24SAPC   C21 3139   1.828   5.721  10.591 -0.0279  0.1136  0.1813
   24SAPC   O22 3140   1.830   5.653  10.694 -0.0364  0.2253 -0.1303
   24SAPC   C22 3141   1.873   5.664  10.453  0.0413 -0.3194  0.1092
   24SAPC   H2R 3142   1.982   5.688  10.450  0.0502  0.0316  2.4351
   24SAPC   H2S 3143   1.865   5.553  10.452 -1.1816 -0.2455 -2.2954
   24SAPC    C3 3144   1.686   6.034  10.691 -0.3008 -0.4126  0.0066
   24SAPC    HX 3145   1.764   6.109  10.669 -0.2547 -0.7548 -1.0527
   24SAPC    HY 3146   1.640   6.060  10.789 -0.0294 -0.5778  0.1798
   24SAPC   O31 3147   1.586   6.030  10.590  0.4916 -0.0304 -0.3274
   24SAPC   C31 3148   1.462   5.998  10.630 -0.3359 -0.7230  0.1979
   24SAPC   O32 3149   1.425   5.982  10.743  0.2502  0.0451 -0.4747
   24SAPC   C32 3150   1.388   5.978  10.497  0.4293 -0.0104 -0.5696
   24SAPC   H2X 3151   1.370   6.080  10.456  1.0507  0.2608 -0.1759
   24SAPC   H2Y 3152   1.292   5.927  10.519  1.0588 -0.1492  1.9795
   24SAPC   C23 3153   1.783   5.713  10.332  0.4227  0.3491 -0.6401
   24SAPC   H3R 3154   1.766   5.821  10.352 -0.0713  0.2859 -0.7250
   24SAPC   H3S 3155   1.679   5.676  10.334 -0.0879  1.7551 -0.6852
   24SAPC   C24 3156   1.844   5.708  10.189 -0.3557  1.0893 -0.8789
   24SAPC   H4R 3157   1.941   5.760  10.206  0.5439 -1.0529  0.9106
   24SAPC   H4S 3158   1.782   5.764  10.116 -0.6415  1.6307 -0.2304
   24SAPC   C25 3159   1.874   5.568  10.137 -0.3935 -0.3230  0.2737
   24SAPC   H5R 3160   1.916   5.501  10.215  0.6408  0.6394  0.5603
   24SAPC   C26 3161   1.864   5.516  10.009 -0.6060 -0.1644 -0.1279
   24SAPC   H6R 3162   1.874   5.411   9.979 -2.0130 -0.6437  1.0157
   24SAPC   C27 3163   1.819   5.589   9.888  0.3787 -0.3523  0.8717
   24SAPC   H7R 3164   1.900   5.665   9.883 -0.1747  0.1641 -0.6768
   24SAPC   H7S 3165   1.727   5.647   9.909 -0.0143  0.7317 -3.2866
   24SAPC   C28 3166   1.785   5.515   9.759 -0.5624 -0.6434 -0.2114
   24SAPC   H8R 3167   1.713   5.433   9.770 -0.6186 -0.7510 -1.2579
   24SAPC   C29 3168   1.834   5.547   9.634  0.2697  0.0421 -0.0380
   24SAPC   H9R 3169   1.812   5.484   9.547 -1.4962 -1.0480  1.1537
   24SAPC  C210 3170   1.927   5.661   9.600  0.0101  0.4094  0.7784
   24SAPC  H10R 3171   2.030   5.622   9.587 -0.6536 -1.1705  0.1181
   24SAPC  H10S 3172   1.940   5.719   9.694  1.4353 -3.9604  3.4371
   24SAPC  C211 3173   1.894   5.748   9.479  0.1058  0.0340 -0.6424
   24SAPC  H11R 3174   1.880   5.854   9.507  2.2279  0.1412  0.1594
   24SAPC  C212 3175   1.897   5.701   9.353 -0.0183 -0.0659 -0.4105
   24SAPC  H12R 3176   1.867   5.764   9.268 -0.8402  2.1703  1.4592
   24SAPC  C213 3177   1.941   5.562   9.316  0.1671 -0.3158 -0.0046
   24SAPC  H13R 3178   1.853   5.496   9.300 -0.4976  0.6886 -0.4744
   24SAPC  H13S 3179   2.008   5.510   9.388 -0.5634  1.0866  1.7304
   24SAPC  C214 3180   2.019   5.574   9.186 -0.0235  0.2054  0.5492
   24SAPC  H14R 3181   2.128   5.573   9.197  0.1199 -4.3498 -0.1142
   24SAPC  C215 3182   1.972   5.579   9.058  0.5613  0.9542 -0.1329
   24SAPC  H15R 3183   2.042   5.593   8.975 -1.2376  1.6498 -1.5475
   24SAPC  C216 3184   1.819   5.586   9.034  0.6309  0.9703 -0.0125
   24SAPC  H16R 3185   1.766   5.552   9.125  0.2157 -1.6074 -1.1711
   24SAPC  H16S 3186   1.783   5.520   8.951  1.3408  0.8315 -0.2130
   24SAPC  C217 3187   1.780   5.736   9.011 -0.7452 -0.7149  0.5757
   24SAPC  H17R 3188   1.831   5.797   9.089  3.5102 -1.0647 -1.7691
   24SAPC  H17S 3189   1.669   5.741   9.005 -0.7442 -1.4385 -0.1440
   24SAPC  C218 3190   1.820   5.785   8.870 -0.7042 -0.0189  0.3102
   24SAPC  H18R 3191   1.753   5.730   8.801 -1.2428  0.5427  0.3807
   24SAPC  H18S 3192   1.923   5.755   8.839 -0.0244  0.4458  2.0626
   24SAPC  C219 3193   1.812   5.928   8.845 -0.2861  0.2103  0.0812
   24SAPC  H19R 3194   1.877   5.983   8.916 -0.3675  0.6433 -0.1773
   24SAPC  H19S 3195   1.708   5.963   8.863 -0.9965 -1.3562 -0.8547
   24SAPC  C220 3196   1.847   5.962   8.702 -0.1069  0.6654 -0.1959
   24SAPC  H20R 3197   1.948   5.926   8.674  0.2402  0.8614  0.8044
   24SAPC  H20S 3198   1.836   6.070   8.679 -1.2713  0.8602  1.1637
   24SAPC  H20T 3199   1.774   5.901   8.644 -1.0216  1.0105  0.5765
   24SAPC   C33 3200   1.469   5.907  10.390  0.0853  0.1461  0.9607
   24SAPC   H3X 3201   1.504   5.809  10.429  0.2718 -1.1002 -2.1675
   24SAPC   H3Y 3202   1.552   5.976  10.365 -1.3689  2.0231  1.2099
   24SAPC   C34 3203   1.391   5.865  10.261 -0.3892 -0.1322  0.2385
   24SAPC   H4X 3204   1.335   5.955  10.228 -1.4832 -1.1858 -0.8268
   24SAPC   H4Y 3205   1.313   5.789  10.284 -0.4479 -0.0137  0.4244
   24SAPC   C35 3206   1.482   5.814  10.150 -0.1743 -0.4115  0.0682
   24SAPC   H5X 3207   1.523   5.718  10.188 -0.7464 -1.2471 -1.3797
   24SAPC   H5Y 3208   1.575   5.873  10.133 -0.0004 -0.4979  0.7153
   24SAPC   C36 3209   1.408   5.803  10.020  0.2807  0.0534  0.2936
   24SAPC   H6X 3210   1.365   5.902   9.992 -0.0691  0.0247  0.7333
   24SAPC   H6Y 3211   1.324   5.734  10.041 -0.3001  1.1556  1.6691
   24SAPC   C37 3212   1.487   5.751   9.909 -0.4329  0.5548  0.3441
   24SAPC   H7X 3213   1.519   5.648   9.934 -1.9831  0.6762  3.0537
   24SAPC   H7Y 3214   1.575   5.807   9.869  0.8791 -3.1224 -2.1466
   24SAPC   C38 3215   1.383   5.727   9.788 -0.0759  0.0470  0.0637
   24SAPC   H8X 3216   1.317   5.815   9.773  0.6824  1.1008  2.6694
   24SAPC   H8Y 3217   1.311   5.645   9.807 -2.5034  2.0331 -0.2559
   24SAPC   C39 3218   1.467   5.703   9.662 -0.4520 -0.2121 -0.4813
   24SAPC   H9X 3219   1.535   5.618   9.687 -0.2435  0.6211  1.9052
   24SAPC   H9Y 3220   1.538   5.787   9.646 -2.1600  1.3376 -0.0043
   24SAPC  C310 3221   1.387   5.668   9.541  0.0125 -0.0584  0.7241
   24SAPC  H10X 3222   1.321   5.755   9.520 -1.2889 -1.6043 -1.7770
   24SAPC  H10Y 3223   1.319   5.582   9.557 -1.0530  0.7141  0.3994
   24SAPC  C311 3224   1.472   5.640   9.410  0.4282 -0.0000 -0.2029
   24SAPC  H11X 3225   1.548   5.561   9.428 -0.4805 -0.8924 -0.2640
   24SAPC  H11Y 3226   1.515   5.742   9.397  0.7262  0.0392  0.9412
   24SAPC  C312 3227   1.396   5.605   9.279 -0.2184  0.4048  0.2756
   24SAPC  H12X 3228   1.463   5.654   9.205 -0.6317 -0.8054 -0.9204
   24SAPC  H12Y 3229   1.295   5.651   9.276 -2.1702 -3.6867  0.4328
   24SAPC  C313 3230   1.389   5.459   9.249 -0.3858  0.1634 -0.3157
   24SAPC  H13X 3231   1.311   5.419   9.317 -0.1275  0.9158  0.4444
   24SAPC  H13Y 3232   1.486   5.412   9.273  0.2998  1.6870 -0.0196
   24SAPC  C314 3233   1.361   5.413   9.105 -0.2605 -0.2283 -0.1427
   24SAPC  H14X 3234   1.269   5.458   9.062 -1.4710 -2.2036  0.3260
   24SAPC  H14Y 3235   1.331   5.306   9.102  0.2494 -0.3911  0.3549
   24SAPC  C315 3236   1.463   5.434   8.994  0.5148 -0.0519 -0.3219
   24SAPC  H15X 3237   1.555   5.374   9.013 -0.0710 -0.4987  1.1507
   24SAPC  H15Y 3238   1.496   5.540   8.996 -0.3566  0.2015  1.5467
   24SAPC  C316 3239   1.422   5.396   8.846  0.6251  0.1914  0.1931
   24SAPC  H16X 3240   1.341   5.468   8.822 -0.9558 -1.0486  1.6602
   24SAPC  H16Y 3241   1.374   5.296   8.854  2.7701 -1.0092 -1.4531
   24SAPC  C317 3242   1.536   5.409   8.751 -0.3141 -0.5275 -0.2482
   24SAPC  H17X 3243   1.586   5.503   8.782 -1.0232 -0.0182 -0.6334
   24SAPC  H17Y 3244   1.500   5.418   8.646 -0.5841 -0.2157 -0.1286
   24SAPC  C318 3245   1.627   5.288   8.754  0.1035  0.6983  0.1035
   24SAPC  H18X 3246   1.672   5.268   8.654  0.1596 -3.6721  0.8979
   24SAPC  H18Y 3247   1.558   5.204   8.780  1.4000  0.2818  2.3183
   24SAPC  H18Z 3248   1.718   5.292   8.818  0.4145 -2.4822 -0.0530
   25SAPC     N 3249   4.381   4.608   6.106  0.5520 -0.2738 -0.0308
   25SAPC   C12 3250   4.243   4.592   6.170 -0.6466  0.2870 -0.3050
   25SAPC  H12A 3251   4.168   4.624   6.099 -1.5426  0.0881  0.5488
   25SAPC  H12B 3252   4.233   4.657   6.255 -0.4987  0.9125 -0.7594
   25SAPC   C13 3253   4.376   4.542   5.966  0.7098  0.4243  0.6787
   25SAPC  H13A 3254   4.477   4.510   5.945  0.1569  0.2253 -1.8236
   25SAPC  H13B 3255   4.308   4.458   5.961  0.0432  1.0475 -1.7697
   25SAPC  H13C 3256   4.344   4.621   5.900 -0.3250  1.3533  2.2737
   25SAPC   C14 3257   4.408   4.755   6.072  0.2555  0.1177 -0.2475
   25SAPC  H14A 3258   4.504   4.761   6.022 -1.2190  0.5750 -3.1863
   25SAPC  H14B 3259   4.339   4.794   5.998 -0.6145 -0.7818  0.0825
   25SAPC  H14C 3260   4.395   4.825   6.153  2.2955  2.3215 -1.7176
   25SAPC   C15 3261   4.484   4.553   6.188 -0.1795  0.5496  0.0211
   25SAPC  H15A 3262   4.584   4.589   6.167  0.0715 -0.3856 -0.3942
   25SAPC  H15B 3263   4.463   4.586   6.289  0.9376  3.0843 -0.5289
   25SAPC  H15C 3264   4.480   4.445   6.186  1.7457  0.4652 -0.7078
   25SAPC   C11 3265   4.198   4.452   6.201  0.3622 -0.4325 -0.3161
   25SAPC  H11A 3266   4.119   4.464   6.278 -1.1567 -0.6782 -1.8016
   25SAPC  H11B 3267   4.279   4.388   6.243 -0.7620  0.3222  3.1733
   25SAPC     P 3268   4.100   4.238   6.090 -0.2204  0.1375  0.3383
   25SAPC   O13 3269   3.980   4.227   6.005 -0.3786  0.4668  0.3056
   25SAPC   O14 3270   4.228   4.165   6.055 -0.0113  0.5585  0.0208
   25SAPC   O12 3271   4.139   4.394   6.087  0.5809 -0.0363  0.3002
   25SAPC   O11 3272   4.069   4.197   6.234  0.2196  0.2015  0.4824
   25SAPC    C1 3273   3.939   4.203   6.286 -0.1210  0.4454  0.5159
   25SAPC    HA 3274   3.907   4.308   6.302 -0.8905  0.4622 -1.0607
   25SAPC    HB 3275   3.865   4.140   6.232  0.5440 -0.2156  0.3606
   25SAPC    C2 3276   3.932   4.136   6.430  0.2061 -0.0133 -0.0634
   25SAPC    HS 3277   4.000   4.187   6.501  0.2120  0.4867 -0.4256
   25SAPC   O21 3278   3.957   3.988   6.424 -0.0617  0.3084 -0.1344
   25SAPC   C21 3279   4.038   3.952   6.513 -0.5785  0.5920 -0.4432
   25SAPC   O22 3280   4.108   4.014   6.589 -0.3155  0.2174  0.2245
   25SAPC   C22 3281   4.016   3.791   6.525  0.9485 -0.5527  0.7726
   25SAPC   H2R 3282   3.941   3.749   6.454  1.4540  0.8785 -0.6567
   25SAPC   H2S 3283   4.114   3.742   6.509 -1.3307 -5.0805 -0.1894
   25SAPC    C3 3284   3.785   4.151   6.481  0.4949 -0.9766  0.3969
   25SAPC    HX 3285   3.720   4.100   6.406  0.1927  2.4025 -1.7376
   25SAPC    HY 3286   3.742   4.253   6.471 -1.1254 -1.6482  0.3574
   25SAPC   O31 3287   3.756   4.087   6.607 -0.5076  0.5086 -0.4371
   25SAPC   C31 3288   3.794   4.163   6.711  0.5176 -0.2085  0.3794
   25SAPC   O32 3289   3.847   4.271   6.704  0.2242  0.2334  0.8323
   25SAPC   C32 3290   3.769   4.084   6.841  0.5891 -0.2402  0.0182
   25SAPC   H2X 3291   3.850   4.008   6.853  0.1543 -0.5423  1.0824
   25SAPC   H2Y 3292   3.677   4.025   6.826 -0.2341  0.4987  1.9407
   25SAPC   C23 3293   3.960   3.756   6.665 -0.1135  0.0276  0.1744
   25SAPC   H3R 3294   3.871   3.820   6.685  0.0653 -0.3140  2.1513
   25SAPC   H3S 3295   4.041   3.795   6.731 -0.5154  0.9211  0.1510
   25SAPC   C24 3296   3.962   3.609   6.702 -0.2134  0.0013 -1.0248
   25SAPC   H4R 3297   3.954   3.600   6.812 -3.3424 -0.4160 -1.2333
   25SAPC   H4S 3298   4.060   3.564   6.678 -0.9943 -1.8953 -0.7217
   25SAPC   C25 3299   3.845   3.550   6.629  0.3019 -0.5014 -0.4866
   25SAPC   H5R 3300   3.866   3.487   6.542  2.9489 -0.3066 -0.0300
   25SAPC   C26 3301   3.718   3.549   6.678  0.4436  0.4826  0.4581
   25SAPC   H6R 3302   3.641   3.509   6.610 -0.2796  0.0194  1.5504
   25SAPC   C27 3303   3.660   3.611   6.805 -0.3983 -0.5680 -0.0597
   25SAPC   H7R 3304   3.567   3.665   6.776  0.4942  2.0247  1.6760
   25SAPC   H7S 3305   3.730   3.691   6.840 -0.4190 -1.7308  2.6834
   25SAPC   C28 3306   3.627   3.518   6.919  0.3099  0.4434 -0.7756
   25SAPC   H8R 3307   3.574   3.425   6.894  1.8214 -0.1834 -1.7166
   25SAPC   C29 3308   3.657   3.537   7.049  0.5770  0.2832  0.2498
   25SAPC   H9R 3309   3.614   3.467   7.123  0.0869  0.1448 -0.1662
   25SAPC  C210 3310   3.736   3.642   7.121 -0.7236  0.0751 -0.1248
   25SAPC  H10R 3311   3.666   3.726   7.142  0.1482  0.7132  0.2777
   25SAPC  H10S 3312   3.812   3.694   7.058 -1.1206  1.2240  0.3415
   25SAPC  C211 3313   3.809   3.585   7.239 -0.2555 -0.0954 -0.2778
   25SAPC  H11R 3314   3.909   3.544   7.215 -1.2999 -1.8427 -1.8378
   25SAPC  C212 3315   3.758   3.575   7.366 -0.2933 -0.2360 -0.3773
   25SAPC  H12R 3316   3.825   3.546   7.448 -0.5970  0.1285  0.0031
   25SAPC  C213 3317   3.622   3.625   7.408  0.3807 -0.5749 -0.8358
   25SAPC  H13R 3318   3.572   3.529   7.434 -0.7944 -0.1855 -1.6173
   25SAPC  H13S 3319   3.567   3.667   7.321  0.6313  0.8475 -0.3168
   25SAPC  C214 3320   3.648   3.722   7.520 -0.4031  0.0929  0.6966
   25SAPC  H14R 3321   3.669   3.825   7.486 -0.9186 -0.3186 -0.8900
   25SAPC  C215 3322   3.659   3.690   7.647 -0.2753  0.0566  0.3601
   25SAPC  H15R 3323   3.679   3.777   7.711  1.4924 -0.0015 -0.1034
   25SAPC  C216 3324   3.641   3.554   7.710 -0.7855  0.0927  0.1596
   25SAPC  H16R 3325   3.740   3.510   7.735 -0.3403  1.1868  0.3844
   25SAPC  H16S 3326   3.596   3.487   7.634  1.6528  1.1946 -2.3366
   25SAPC  C217 3327   3.544   3.558   7.824 -0.5316 -0.1868  0.0005
   25SAPC  H17R 3328   3.456   3.616   7.792  0.6433  0.5713 -1.8986
   25SAPC  H17S 3329   3.586   3.619   7.907 -0.4887  0.5183 -0.5352
   25SAPC  C218 3330   3.490   3.422   7.873  0.5182 -0.6402  0.1973
   25SAPC  H18R 3331   3.572   3.359   7.914  0.4707  0.0550  1.3698
   25SAPC  H18S 3332   3.452   3.372   7.781 -1.7069  1.8699 -0.3007
   25SAPC  C219 3333   3.374   3.439   7.977  0.5213  0.0260  0.2179
   25SAPC  H19R 3334   3.337   3.334   7.976 -0.3258  0.2984 -2.3425
   25SAPC  H19S 3335   3.297   3.512   7.944  0.2269 -0.2842  0.2173
   25SAPC  C220 3336   3.415   3.478   8.120  0.3630 -0.6695  0.2058
   25SAPC  H20R 3337   3.495   3.414   8.162  0.4805 -0.7552 -0.1436
   25SAPC  H20S 3338   3.329   3.478   8.190  1.4967 -2.6549  1.6297
   25SAPC  H20T 3339   3.461   3.579   8.127  1.8125 -1.2861 -0.1290
   25SAPC   C33 3340   3.763   4.174   6.968 -0.3889 -0.4790 -0.3417
   25SAPC   H3X 3341   3.675   4.239   6.948  1.0610  1.5372 -0.3110
   25SAPC   H3Y 3342   3.857   4.232   6.982 -0.9303  0.7666 -1.7474
   25SAPC   C34 3343   3.739   4.095   7.102 -0.0114  0.5602  0.4251
   25SAPC   H4X 3344   3.797   4.000   7.099 -1.5561 -0.3501 -1.8072
   25SAPC   H4Y 3345   3.635   4.066   7.126 -0.6597  0.5570 -2.2117
   25SAPC   C35 3346   3.794   4.173   7.234 -0.4479  0.8069 -0.0478
   25SAPC   H5X 3347   3.736   4.267   7.246 -1.2979  0.1284  1.3094
   25SAPC   H5Y 3348   3.901   4.198   7.219  0.0586 -2.1075 -1.4920
   25SAPC   C36 3349   3.784   4.080   7.354 -0.6347  0.4064 -0.2304
   25SAPC   H6X 3350   3.844   3.988   7.335 -1.9451 -1.0577  2.4751
   25SAPC   H6Y 3351   3.678   4.053   7.370 -1.0118  1.9407 -0.0718
   25SAPC   C37 3352   3.852   4.141   7.481  0.3192 -0.3097  0.5158
   25SAPC   H7X 3353   3.853   4.251   7.465  0.5559 -0.1980  1.2670
   25SAPC   H7Y 3354   3.951   4.096   7.502  0.0207 -1.4199 -0.4212
   25SAPC   C38 3355   3.772   4.099   7.604  0.7709 -0.5638  0.4885
   25SAPC   H8X 3356   3.782   3.990   7.622 -1.3011 -0.7144  0.8539
   25SAPC   H8Y 3357   3.662   4.107   7.586  0.9633  1.1613  0.0213
   25SAPC   C39 3358   3.794   4.189   7.729  0.4604  0.0919 -0.8689
   25SAPC   H9X 3359   3.723   4.163   7.810  0.7259  2.1583  0.0533
   25SAPC   H9Y 3360   3.777   4.294   7.698 -1.9227 -0.0316 -0.0920
   25SAPC  C310 3361   3.938   4.181   7.774  0.2454 -0.8603  0.3100
   25SAPC  H10X 3362   4.019   4.207   7.703 -0.1467  0.8092  0.4463
   25SAPC  H10Y 3363   3.958   4.074   7.793 -2.4585 -1.4225  0.1825
   25SAPC  C311 3364   3.966   4.255   7.908 -0.5498 -0.5262  0.0453
   25SAPC  H11X 3365   3.901   4.345   7.900 -0.4889 -0.4996 -0.1561
   25SAPC  H11Y 3366   4.074   4.279   7.907 -0.5281 -0.6246  0.0446
   25SAPC  C312 3367   3.925   4.174   8.040  0.5361 -0.1513 -0.2372
   25SAPC  H12X 3368   3.995   4.088   8.050  2.4614  1.3279 -0.7568
   25SAPC  H12Y 3369   3.821   4.138   8.022  0.4076 -0.0664  0.3128
   25SAPC  C313 3370   3.927   4.263   8.164  0.1677 -0.0942 -0.1996
   25SAPC  H13X 3371   3.847   4.338   8.148  0.7264  0.5956  0.2287
   25SAPC  H13Y 3372   4.029   4.307   8.172  0.3564 -0.7579  1.0945
   25SAPC  C314 3373   3.889   4.189   8.290  0.3958  0.7881  0.5494
   25SAPC  H14X 3374   3.963   4.108   8.309 -0.8767 -0.8171 -1.0890
   25SAPC  H14Y 3375   3.793   4.136   8.280  0.4892  0.3359  1.9106
   25SAPC  C315 3376   3.891   4.279   8.414 -0.7970 -0.3661  0.5735
   25SAPC  H15X 3377   3.827   4.367   8.390 -0.9684 -0.0647  2.0606
   25SAPC  H15Y 3378   3.994   4.312   8.436 -0.4277 -2.0342  1.4996
   25SAPC  C316 3379   3.824   4.226   8.544  0.0050  0.0120  0.1348
   25SAPC  H16X 3380   3.876   4.133   8.578  1.9121  0.2931 -1.8628
   25SAPC  H16Y 3381   3.722   4.196   8.513  1.3588 -1.0002 -3.7027
   25SAPC  C317 3382   3.808   4.313   8.663  0.1036  0.2233  0.4341
   25SAPC  H17X 3383   3.745   4.401   8.637  2.3705  1.8088  0.2139
   25SAPC  H17Y 3384   3.903   4.365   8.685  1.3771 -0.8929 -2.1578
   25SAPC  C318 3385   3.765   4.238   8.789 -0.5088 -0.3675  1.0596
   25SAPC  H18X 3386   3.771   4.300   8.880 -1.2792  1.3942 -0.0672
   25SAPC  H18Y 3387   3.820   4.143   8.807  1.2220  0.1940 -1.1797
   25SAPC  H18Z 3388   3.658   4.212   8.774 -0.3201 -0.3652 -0.3401
   26SAPC     N 3389   3.312   6.210   6.307 -0.1658 -0.0012  0.1486
   26SAPC   C12 3390   3.351   6.130   6.436  0.3830  0.0405  0.2415
   26SAPC  H12A 3391   3.391   6.186   6.520  1.0826  0.6290 -0.4818
   26SAPC  H12B 3392   3.431   6.064   6.406  1.7326  2.3706 -1.4525
   26SAPC   C13 3393   3.219   6.319   6.355 -0.0567 -0.1916 -0.4616
   26SAPC  H13A 3394   3.130   6.288   6.410  0.1541 -0.6923 -0.3991
   26SAPC  H13B 3395   3.272   6.383   6.423  0.7188 -1.4760  0.1581
   26SAPC  H13C 3396   3.186   6.389   6.280 -1.8865 -1.0100 -0.4509
   26SAPC   C14 3397   3.433   6.273   6.251 -0.2559  0.3083 -0.3286
   26SAPC  H14A 3398   3.407   6.325   6.160 -1.0016  2.3265  1.0072
   26SAPC  H14B 3399   3.465   6.353   6.315  0.0680  0.2335 -0.3936
   26SAPC  H14C 3400   3.516   6.205   6.237  0.9602  1.8377 -0.6912
   26SAPC   C15 3401   3.242   6.125   6.195 -0.2971  0.1804 -0.1947
   26SAPC  H15A 3402   3.314   6.097   6.120 -0.8070  0.9469 -0.9653
   26SAPC  H15B 3403   3.205   6.033   6.241 -0.4182 -1.0425 -2.6771
   26SAPC  H15C 3404   3.158   6.174   6.149 -0.8835 -0.0081  0.6499
   26SAPC   C11 3405   3.241   6.046   6.496 -0.0247  0.4522 -0.4869
   26SAPC  H11A 3406   3.156   6.114   6.515  0.2905  0.1273  2.3708
   26SAPC  H11B 3407   3.272   6.002   6.593 -0.8083  1.0825  0.0558
   26SAPC     P 3408   3.270   5.797   6.422 -0.3359 -0.3687  0.4483
   26SAPC   O13 3409   3.208   5.731   6.538 -0.2496  0.1311  1.0982
   26SAPC   O14 3410   3.240   5.741   6.286 -0.5327 -0.6923  0.5237
   26SAPC   O12 3411   3.206   5.941   6.405 -0.1744  0.3750  0.1612
   26SAPC   O11 3412   3.427   5.810   6.427  0.1475  0.4577 -0.4554
   26SAPC    C1 3413   3.492   5.685   6.455 -1.3599 -0.0438  0.9183
   26SAPC    HA 3414   3.440   5.586   6.460 -1.0610 -0.1483  2.1293
   26SAPC    HB 3415   3.559   5.657   6.371 -0.8474 -2.5824  2.1305
   26SAPC    C2 3416   3.570   5.703   6.583  0.7850 -0.2967 -0.0174
   26SAPC    HS 3417   3.632   5.612   6.597 -0.7126 -1.5150 -1.2024
   26SAPC   O21 3418   3.477   5.729   6.693  0.3120  0.0149  0.1372
   26SAPC   C21 3419   3.422   5.622   6.735  0.2353  0.3129  0.6999
   26SAPC   O22 3420   3.446   5.509   6.701  0.2545 -0.3824 -0.4005
   26SAPC   C22 3421   3.309   5.657   6.843  0.0205 -0.0442  0.7707
   26SAPC   H2R 3422   3.252   5.742   6.798 -1.3361 -1.9626 -1.2353
   26SAPC   H2S 3423   3.252   5.562   6.842  0.7390 -0.4760  0.1592
   26SAPC    C3 3424   3.657   5.834   6.567 -0.1464  0.0238 -0.1637
   26SAPC    HX 3425   3.603   5.914   6.514 -0.3433  0.6623  0.9825
   26SAPC    HY 3426   3.738   5.808   6.496 -0.4776 -0.7066 -0.2852
   26SAPC   O31 3427   3.715   5.869   6.692 -0.0564 -0.3318 -0.9551
   26SAPC   C31 3428   3.652   5.968   6.763  0.6066  0.3710 -0.0384
   26SAPC   O32 3429   3.568   6.045   6.714 -0.5652 -0.1981  0.4578
   26SAPC   C32 3430   3.700   5.968   6.907  0.1641 -0.4002 -0.1625
   26SAPC   H2X 3431   3.810   5.950   6.910 -0.0161 -1.3809  1.1182
   26SAPC   H2Y 3432   3.655   5.883   6.962 -1.8591  0.4628 -0.4612
   26SAPC   C23 3433   3.372   5.704   6.979 -0.5255 -0.3409  0.1998
   26SAPC   H3R 3434   3.297   5.728   7.058 -1.0394  0.2313 -0.4503
   26SAPC   H3S 3435   3.409   5.809   6.972 -1.0392 -0.2007 -0.4683
   26SAPC   C24 3436   3.477   5.614   7.044  0.2861 -0.2647  0.2237
   26SAPC   H4R 3437   3.499   5.655   7.145  0.1796 -0.2565  0.2439
   26SAPC   H4S 3438   3.573   5.608   6.988  1.2130 -0.6947  1.8092
   26SAPC   C25 3439   3.424   5.476   7.058  0.0359  0.2454  0.0168
   26SAPC   H5R 3440   3.400   5.435   6.959  0.0886  1.9551 -0.7166
   26SAPC   C26 3441   3.424   5.393   7.171  0.3054 -0.0962  0.4262
   26SAPC   H6R 3442   3.385   5.290   7.168 -0.2834  0.1414 -0.6666
   26SAPC   C27 3443   3.476   5.435   7.304  0.1584 -0.0313  0.1045
   26SAPC   H7R 3444   3.467   5.545   7.317 -1.2595 -0.0679 -0.5263
   26SAPC   H7S 3445   3.585   5.418   7.319  0.8033  2.8172 -1.0768
   26SAPC   C28 3446   3.394   5.369   7.412 -0.4101  0.4418 -1.5604
   26SAPC   H8R 3447   3.319   5.295   7.382  0.0427 -1.5947  2.1063
   26SAPC   C29 3448   3.424   5.396   7.545 -0.0785 -1.2196  0.2772
   26SAPC   H9R 3449   3.372   5.342   7.625 -1.8845 -0.0570 -0.0718
   26SAPC  C210 3450   3.524   5.494   7.591  0.2970  0.1861  0.1519
   26SAPC  H10R 3451   3.487   5.561   7.672  0.0468 -0.8729  0.9333
   26SAPC  H10S 3452   3.554   5.574   7.520  4.2641 -1.5369 -0.2473
   26SAPC  C211 3453   3.649   5.417   7.635 -0.6980 -0.1234 -0.2127
   26SAPC  H11R 3454   3.689   5.342   7.565 -1.3104  0.9326 -1.7313
   26SAPC  C212 3455   3.699   5.431   7.758  0.1169 -0.8439 -0.6021
   26SAPC  H12R 3456   3.792   5.379   7.785  2.0271  2.6043 -0.2694
   26SAPC  C213 3457   3.652   5.510   7.879  0.0772 -0.0478  0.4951
   26SAPC  H13R 3458   3.580   5.452   7.941 -1.4696  0.8028 -0.4800
   26SAPC  H13S 3459   3.594   5.597   7.844 -2.8951 -2.4979 -0.8626
   26SAPC  C214 3460   3.762   5.559   7.972 -0.9771  0.3528 -0.2188
   26SAPC  H14R 3461   3.864   5.526   7.945 -1.2448  0.9150 -1.9401
   26SAPC  C215 3462   3.740   5.641   8.079  0.2106  0.4903 -0.3241
   26SAPC  H15R 3463   3.829   5.679   8.132 -0.9046  1.4861  0.8634
   26SAPC  C216 3464   3.606   5.679   8.131 -0.3179  0.7416 -0.4604
   26SAPC  H16R 3465   3.592   5.640   8.234 -2.8395  1.9307 -0.3105
   26SAPC  H16S 3466   3.524   5.646   8.063  0.9703 -1.2242 -1.0989
   26SAPC  C217 3467   3.592   5.833   8.137  0.5151  0.0529 -0.6175
   26SAPC  H17R 3468   3.602   5.883   8.039  2.2403  0.7250 -0.1073
   26SAPC  H17S 3469   3.679   5.881   8.186 -0.8058  0.2581  1.6081
   26SAPC  C218 3470   3.466   5.876   8.216  0.1747  0.4992 -0.0319
   26SAPC  H18R 3471   3.457   5.818   8.310 -2.0877 -0.8834 -1.0542
   26SAPC  H18S 3472   3.378   5.854   8.152  0.9622  0.0177 -0.9609
   26SAPC  C219 3473   3.464   6.029   8.249 -0.6640 -0.2171 -0.3573
   26SAPC  H19R 3474   3.493   6.088   8.159 -1.5645  2.8133  1.2506
   26SAPC  H19S 3475   3.525   6.045   8.340 -2.9783 -0.3085  1.2630
   26SAPC  C220 3476   3.327   6.095   8.287  0.3370  0.0515  0.0042
   26SAPC  H20R 3477   3.344   6.200   8.319 -2.0644 -0.1054  1.8642
   26SAPC  H20S 3478   3.290   6.029   8.368  0.0251  0.4202  0.1613
   26SAPC  H20T 3479   3.249   6.086   8.208  0.5971  3.3359 -0.7243
   26SAPC   C33 3480   3.658   6.095   6.982  0.2210 -0.4366  0.6903
   26SAPC   H3X 3481   3.552   6.116   6.957  0.3449  1.2920  1.4982
   26SAPC   H3Y 3482   3.714   6.188   6.957 -3.2674  1.6346  0.3072
   26SAPC   C34 3483   3.666   6.079   7.131 -0.4644 -0.1722 -0.3491
   26SAPC   H4X 3484   3.771   6.092   7.164 -0.1916 -0.7907 -0.9654
   26SAPC   H4Y 3485   3.631   5.980   7.166 -0.5647  0.2078  0.6319
   26SAPC   C35 3486   3.590   6.185   7.207 -0.2588  0.2652  0.4133
   26SAPC   H5X 3487   3.481   6.172   7.186  0.0280  0.0378 -0.9697
   26SAPC   H5Y 3488   3.613   6.291   7.181 -0.6129 -0.4030 -2.8359
   26SAPC   C36 3489   3.602   6.158   7.367 -0.1977 -0.3741  0.0374
   26SAPC   H6X 3490   3.703   6.179   7.409  0.2038 -2.8229  0.3871
   26SAPC   H6Y 3491   3.585   6.053   7.399 -0.3497  0.5112  3.0146
   26SAPC   C37 3492   3.511   6.255   7.446 -0.3249  0.0740  0.0315
   26SAPC   H7X 3493   3.403   6.231   7.432 -0.3182 -1.3253  2.1423
   26SAPC   H7Y 3494   3.528   6.356   7.403  3.7840  0.1993  1.7580
   26SAPC   C38 3495   3.556   6.267   7.593  0.8148  0.1097 -0.2555
   26SAPC   H8X 3496   3.654   6.319   7.587  0.4243  0.6219 -2.7406
   26SAPC   H8Y 3497   3.551   6.165   7.636 -1.4610  0.9312  1.5091
   26SAPC   C39 3498   3.460   6.340   7.682 -0.1274 -0.1669  0.2600
   26SAPC   H9X 3499   3.354   6.318   7.657  0.0923 -0.7813 -0.1528
   26SAPC   H9Y 3500   3.478   6.449   7.672 -0.1384 -0.3328 -1.7496
   26SAPC  C310 3501   3.489   6.315   7.828 -0.1503  0.3347  0.3561
   26SAPC  H10X 3502   3.595   6.343   7.845  0.1085  0.0559 -0.7427
   26SAPC  H10Y 3503   3.476   6.206   7.842 -1.7170  0.4830  0.1815
   26SAPC  C311 3504   3.392   6.394   7.920 -0.4519  0.1328 -0.3937
   26SAPC  H11X 3505   3.284   6.369   7.911 -0.2816 -1.5067  1.7308
   26SAPC  H11Y 3506   3.389   6.500   7.887 -0.8576 -0.0609 -0.9921
   26SAPC  C312 3507   3.416   6.375   8.075 -0.6305  0.0546  0.0733
   26SAPC  H12X 3508   3.386   6.272   8.104 -1.3417 -0.0232 -0.9117
   26SAPC  H12Y 3509   3.336   6.442   8.111 -0.8701 -0.7805  1.1096
   26SAPC  C313 3510   3.546   6.423   8.127  1.1114  0.3861 -0.1406
   26SAPC  H13X 3511   3.577   6.517   8.077 -1.3959  1.6686  0.6500
   26SAPC  H13Y 3512   3.628   6.353   8.096  0.0242 -1.0267  0.1101
   26SAPC  C314 3513   3.545   6.442   8.275  0.2180 -0.3904  0.1810
   26SAPC  H14X 3514   3.485   6.368   8.331 -1.7336  0.6209 -0.5323
   26SAPC  H14Y 3515   3.491   6.536   8.297 -2.0073 -1.9263  1.4445
   26SAPC  C315 3516   3.691   6.453   8.330  0.0882  0.0100  0.3371
   26SAPC  H15X 3517   3.699   6.508   8.426  1.1446 -1.5755  1.1691
   26SAPC  H15Y 3518   3.744   6.519   8.257  1.1404 -0.5054  0.6168
   26SAPC  C316 3519   3.758   6.311   8.337  0.1723 -0.9177 -0.0605
   26SAPC  H16X 3520   3.737   6.253   8.244  0.6326  0.2483 -0.9117
   26SAPC  H16Y 3521   3.699   6.257   8.414 -1.7063  0.8694 -0.1858
   26SAPC  C317 3522   3.905   6.313   8.374 -0.4508 -0.8360 -0.0638
   26SAPC  H17X 3523   3.962   6.372   8.300 -0.8151 -0.9251 -0.4183
   26SAPC  H17Y 3524   3.940   6.208   8.379  0.1004 -0.6787 -0.6453
   26SAPC  C318 3525   3.929   6.367   8.518 -0.2029  0.6485  0.3818
   26SAPC  H18X 3526   3.885   6.467   8.539 -3.1371 -0.1029 -1.8488
   26SAPC  H18Y 3527   4.037   6.365   8.544 -0.0705  0.6396 -0.1465
   26SAPC  H18Z 3528   3.885   6.298   8.592  0.6874  0.6418  0.9142
   27SAPC     N 3529   1.338   6.312   6.570 -0.3112 -0.2721  0.1164
   27SAPC   C12 3530   1.401   6.255   6.687  0.0382  1.0273 -0.2764
   27SAPC  H12A 3531   1.323   6.250   6.762 -1.5401  0.4976 -1.9332
   27SAPC  H12B 3532   1.476   6.321   6.728 -0.8919 -0.3902  3.9706
   27SAPC   C13 3533   1.430   6.311   6.449  0.5685 -0.3637 -0.1680
   27SAPC  H13A 3534   1.516   6.375   6.467 -1.0685  1.8820 -0.0529
   27SAPC  H13B 3535   1.455   6.211   6.417 -1.6990 -1.0052  0.0027
   27SAPC  H13C 3536   1.383   6.356   6.362 -0.3056  0.4510  0.7203
   27SAPC   C14 3537   1.208   6.246   6.533  0.6959 -0.0803  0.1899
   27SAPC  H14A 3538   1.162   6.297   6.449  0.2721  1.8275  1.5397
   27SAPC  H14B 3539   1.224   6.145   6.498  2.1566  0.3463 -0.4360
   27SAPC  H14C 3540   1.141   6.253   6.617 -2.8959 -2.6075 -2.3134
   27SAPC   C15 3541   1.306   6.455   6.596  0.9994  0.2370 -0.0115
   27SAPC  H15A 3542   1.390   6.517   6.624  2.1191 -1.7830  1.2032
   27SAPC  H15B 3543   1.257   6.497   6.510  0.1255  0.5077  0.6137
   27SAPC  H15C 3544   1.229   6.480   6.668  0.5118  3.4068 -1.5246
   27SAPC   C11 3545   1.462   6.109   6.673 -0.2917 -0.3216 -1.0300
   27SAPC  H11A 3546   1.491   6.075   6.774  1.5416 -1.5935 -1.9793
   27SAPC  H11B 3547   1.556   6.119   6.616  0.9589 -1.2493  0.8016
   27SAPC     P 3548   1.296   5.915   6.689  0.0300 -0.1872 -0.4131
   27SAPC   O13 3549   1.244   5.807   6.603  0.1351 -0.0462  0.1236
   27SAPC   O14 3550   1.376   5.866   6.801  0.9262 -0.3306 -0.0498
   27SAPC   O12 3551   1.374   6.022   6.610  0.1480  0.3475 -0.2650
   27SAPC   O11 3552   1.174   5.987   6.755 -1.0289 -0.2750  0.2607
   27SAPC    C1 3553   1.056   5.913   6.796  0.5833  0.2638  0.1650
   27SAPC    HA 3554   0.974   5.985   6.771  0.3356 -0.1656 -0.2559
   27SAPC    HB 3555   1.031   5.820   6.741 -3.9058  1.3420  0.1909
   27SAPC    C2 3556   1.048   5.885   6.951  0.2366  0.2616  0.5892
   27SAPC    HS 3557   0.948   5.842   6.973 -1.1952  2.2074 -1.7621
   27SAPC   O21 3558   1.068   5.997   7.031 -0.2749  0.0878 -0.0606
   27SAPC   C21 3559   0.966   6.072   7.069  0.2071 -0.1706 -0.0026
   27SAPC   O22 3560   0.851   6.047   7.038  0.1266 -0.4697  0.4870
   27SAPC   C22 3561   1.005   6.180   7.169  0.0923 -0.2237  0.5117
   27SAPC   H2R 3562   1.095   6.141   7.222  0.4823 -2.4937 -1.7692
   27SAPC   H2S 3563   1.049   6.266   7.114 -0.2926  0.8674  1.8606
   27SAPC    C3 3564   1.142   5.769   6.993 -0.5035  0.0111 -0.1527
   27SAPC    HX 3565   1.249   5.801   6.988  0.0126 -1.4169  1.5847
   27SAPC    HY 3566   1.125   5.683   6.924 -2.0561 -1.7877  2.4097
   27SAPC   O31 3567   1.116   5.727   7.130 -0.6066 -0.4653  0.1257
   27SAPC   C31 3568   1.167   5.788   7.232 -1.2425 -0.0621 -0.3059
   27SAPC   O32 3569   1.241   5.884   7.221 -0.2212 -0.0738 -0.3283
   27SAPC   C32 3570   1.117   5.725   7.363 -0.2336  0.2989 -0.3349
   27SAPC   H2X 3571   1.105   5.617   7.337 -1.8615  0.2663  0.5275
   27SAPC   H2Y 3572   1.013   5.760   7.377  0.7073  2.1654  2.4168
   27SAPC   C23 3573   0.885   6.209   7.262 -0.3867  0.0144  0.8866
   27SAPC   H3R 3574   0.793   6.226   7.202  0.7208 -0.4733 -1.0068
   27SAPC   H3S 3575   0.902   6.298   7.326 -0.8780 -0.4749  1.7034
   27SAPC   C24 3576   0.850   6.096   7.370  0.0018 -0.5537  0.0033
   27SAPC   H4R 3577   0.797   6.013   7.318 -0.9462  1.4349 -2.2851
   27SAPC   H4S 3578   0.764   6.126   7.433  1.6172 -0.6296  2.3163
   27SAPC   C25 3579   0.973   6.072   7.449 -0.3937 -0.3647  0.8550
   27SAPC   H5R 3580   1.047   6.018   7.388 -0.6899  0.6058 -0.3945
   27SAPC   C26 3581   0.998   6.111   7.576 -0.8185  0.1909  0.2992
   27SAPC   H6R 3582   1.103   6.100   7.607  0.6639  2.1832 -3.6670
   27SAPC   C27 3583   0.913   6.185   7.675 -0.4471 -0.1847 -0.0153
   27SAPC   H7R 3584   0.817   6.210   7.626  0.0269 -1.2592 -1.5144
   27SAPC   H7S 3585   0.969   6.275   7.708  0.3786 -0.5502 -0.3935
   27SAPC   C28 3586   0.901   6.095   7.795 -0.3408 -0.4246 -0.6427
   27SAPC   H8R 3587   0.923   5.989   7.778  0.9569 -0.1022 -0.9788
   27SAPC   C29 3588   0.857   6.135   7.913 -0.6479 -0.2113 -0.1182
   27SAPC   H9R 3589   0.866   6.060   7.993  0.3036 -0.5886 -0.5713
   27SAPC  C210 3590   0.815   6.277   7.954 -0.0159 -0.3192 -0.4538
   27SAPC  H10R 3591   0.742   6.314   7.879  0.8535 -0.3304 -1.3067
   27SAPC  H10S 3592   0.901   6.340   7.924  0.9427 -1.3908  0.0081
   27SAPC  C211 3593   0.774   6.286   8.100  0.2829 -1.1477  0.5430
   27SAPC  H11R 3594   0.850   6.249   8.171  0.5315 -2.2173 -0.2674
   27SAPC  C212 3595   0.651   6.335   8.139 -0.3349 -0.3776  0.1001
   27SAPC  H12R 3596   0.627   6.345   8.246  2.1301  0.7707  0.5644
   27SAPC  C213 3597   0.549   6.392   8.050 -0.5370  0.0537 -0.5708
   27SAPC  H13R 3598   0.446   6.385   8.091 -0.3588  0.7131 -0.0133
   27SAPC  H13S 3599   0.545   6.335   7.954  1.3612  0.8195 -1.1365
   27SAPC  C214 3600   0.563   6.541   8.017  0.0634 -0.8585 -0.7413
   27SAPC  H14R 3601   0.592   6.605   8.102 -1.8444 -0.3712 -0.4242
   27SAPC  C215 3602   0.526   6.603   7.900  0.3914 -0.0917  0.5710
   27SAPC  H15R 3603   0.544   6.711   7.891 -0.3430 -0.0014  0.1187
   27SAPC  C216 3604   0.473   6.541   7.772  0.1369  0.0774  0.2830
   27SAPC  H16R 3605   0.395   6.608   7.732 -0.6875  0.4577  2.4653
   27SAPC  H16S 3606   0.437   6.438   7.795  0.1917  0.0118  0.0715
   27SAPC  C217 3607   0.583   6.528   7.664 -0.7140  0.3647  0.7879
   27SAPC  H17R 3608   0.654   6.452   7.704 -0.7551  0.8486  1.7800
   27SAPC  H17S 3609   0.634   6.626   7.657 -2.1335  0.9286 -3.8624
   27SAPC  C218 3610   0.524   6.488   7.528  0.0559 -0.4334 -0.1325
   27SAPC  H18R 3611   0.451   6.569   7.506  0.6595  0.4261  0.9904
   27SAPC  H18S 3612   0.477   6.388   7.525  0.2231 -0.4875 -1.8108
   27SAPC  C219 3613   0.631   6.495   7.411  0.1657 -0.1691 -0.5292
   27SAPC  H19R 3614   0.604   6.428   7.328 -0.1567 -1.7885  0.8613
   27SAPC  H19S 3615   0.727   6.459   7.455 -0.7187 -0.9457  0.7962
   27SAPC  C220 3616   0.650   6.641   7.370 -0.3124  0.0414 -0.0134
   27SAPC  H20R 3617   0.724   6.646   7.288  0.7214  0.3198  0.9216
   27SAPC  H20S 3618   0.669   6.717   7.449  1.5919  1.0147 -1.3723
   27SAPC  H20T 3619   0.550   6.674   7.335 -0.6671  1.0609  1.8801
   27SAPC   C33 3620   1.220   5.742   7.475  0.4103 -0.0140 -0.0494
   27SAPC   H3X 3621   1.254   5.847   7.491  0.5686  0.0649 -0.9288
   27SAPC   H3Y 3622   1.316   5.687   7.463  0.2087  0.0994 -2.4020
   27SAPC   C34 3623   1.164   5.699   7.617  0.3623  0.5000 -0.1757
   27SAPC   H4X 3624   1.153   5.589   7.623 -0.1581  0.4962 -1.1850
   27SAPC   H4Y 3625   1.059   5.734   7.628  0.3628  0.2330  0.7195
   27SAPC   C35 3626   1.249   5.743   7.737 -0.8644 -0.5934  0.0850
   27SAPC   H5X 3627   1.237   5.853   7.732 -2.2196 -0.6542  1.4917
   27SAPC   H5Y 3628   1.355   5.720   7.715 -0.9467  0.2076 -1.2006
   27SAPC   C36 3629   1.203   5.678   7.869  0.5121 -0.0618  0.3586
   27SAPC   H6X 3630   1.285   5.636   7.930  0.0266 -0.0490  1.0271
   27SAPC   H6Y 3631   1.125   5.601   7.846 -1.0823  1.1436  1.5830
   27SAPC   C37 3632   1.133   5.783   7.960  0.0702 -0.1610  0.2158
   27SAPC   H7X 3633   1.043   5.821   7.906  0.3649 -0.5511 -0.5683
   27SAPC   H7Y 3634   1.203   5.864   7.986  1.3304 -1.6534  1.5419
   27SAPC   C38 3635   1.097   5.709   8.096 -0.2934 -0.3842 -0.6775
   27SAPC   H8X 3636   1.183   5.666   8.152 -0.3748  2.1891  1.5267
   27SAPC   H8Y 3637   1.024   5.632   8.063 -1.0038  0.3161 -0.7608
   27SAPC   C39 3638   1.036   5.805   8.193 -0.2628 -0.1847 -0.9083
   27SAPC   H9X 3639   0.962   5.867   8.137  1.2911  1.6103 -1.0457
   27SAPC   H9Y 3640   1.108   5.880   8.232 -0.1515  1.0804 -3.4256
   27SAPC  C310 3641   0.975   5.730   8.315  0.9447 -0.1424  0.5386
   27SAPC  H10X 3642   1.053   5.663   8.357  1.0558  0.9185  2.0666
   27SAPC  H10Y 3643   0.891   5.667   8.279  1.7458 -0.3189 -1.0890
   27SAPC  C311 3644   0.937   5.833   8.422 -0.0453 -0.0882 -0.3365
   27SAPC  H11X 3645   0.848   5.892   8.394  1.0765  1.5910 -0.4516
   27SAPC  H11Y 3646   1.017   5.910   8.434 -0.2843  0.3341 -1.4191
   27SAPC  C312 3647   0.920   5.757   8.553 -0.0771  0.5858  0.0855
   27SAPC  H12X 3648   1.014   5.700   8.567  0.5308  1.1618 -1.5307
   27SAPC  H12Y 3649   0.848   5.677   8.525  2.0702 -0.7754 -1.6671
   27SAPC  C313 3650   0.886   5.840   8.674 -0.5942  0.2538 -1.0032
   27SAPC  H13X 3651   0.801   5.909   8.656 -0.4785  0.7458  0.2720
   27SAPC  H13Y 3652   0.974   5.899   8.706  0.3041 -1.7527  0.3336
   27SAPC  C314 3653   0.835   5.734   8.780 -0.2009  0.0729 -0.5715
   27SAPC  H14X 3654   0.904   5.649   8.799 -1.8824 -1.5114 -1.4177
   27SAPC  H14Y 3655   0.747   5.678   8.742 -0.0072 -1.3758  1.0093
   27SAPC  C315 3656   0.806   5.801   8.915 -0.8053  0.6339  0.4457
   27SAPC  H15X 3657   0.722   5.865   8.881 -0.1560  2.4840  2.2234
   27SAPC  H15Y 3658   0.893   5.866   8.939 -0.5402  0.8087 -0.9557
   27SAPC  C316 3659   0.777   5.710   9.034  0.7322  0.4105 -0.0866
   27SAPC  H16X 3660   0.680   5.662   9.011  2.2446 -1.9013 -2.0129
   27SAPC  H16Y 3661   0.768   5.758   9.133  0.0058  0.4267 -0.1649
   27SAPC  C317 3662   0.870   5.595   9.059 -0.5267 -0.5017 -0.0332
   27SAPC  H17X 3663   0.886   5.536   8.966 -0.1534  1.1771 -1.0662
   27SAPC  H17Y 3664   0.827   5.527   9.136 -0.4388 -2.1002 -1.3621
   27SAPC  C318 3665   1.007   5.643   9.113  0.0011 -0.0375  0.9079
   27SAPC  H18X 3666   1.068   5.671   9.025 -2.7540 -1.7418 -1.6667
   27SAPC  H18Y 3667   1.058   5.558   9.165 -0.7361 -0.8253  0.3636
   27SAPC  H18Z 3668   0.992   5.729   9.182 -1.0537  1.7410 -1.4850
   28SAPC     N 3669   0.918   2.460   6.140 -0.0950 -0.2163  0.6837
   28SAPC   C12 3670   0.945   2.416   6.279  0.2733  0.1949  0.0168
   28SAPC  H12A 3671   1.049   2.435   6.301  0.0001 -1.4698  2.9507
   28SAPC  H12B 3672   0.926   2.311   6.289  1.4545 -0.0491 -0.2074
   28SAPC   C13 3673   0.771   2.445   6.110 -0.0407  0.0555  0.6187
   28SAPC  H13A 3674   0.733   2.345   6.123  0.7373 -0.6281 -2.1121
   28SAPC  H13B 3675   0.717   2.515   6.172  0.3838 -0.4886  1.6084
   28SAPC  H13C 3676   0.756   2.478   6.008  1.3504  1.0703  0.7210
   28SAPC   C14 3677   0.951   2.603   6.118 -1.2001 -0.6008  0.7295
   28SAPC  H14A 3678   0.923   2.635   6.018  1.9995  1.2955  0.3752
   28SAPC  H14B 3679   0.895   2.664   6.187 -0.4636  1.3686 -0.3559
   28SAPC  H14C 3680   1.054   2.630   6.134 -0.7819 -1.5097 -0.4158
   28SAPC   C15 3681   0.994   2.391   6.029  0.5678  0.3202 -1.0698
   28SAPC  H15A 3682   0.959   2.422   5.931 -1.0321  0.0047 -0.6021
   28SAPC  H15B 3683   1.100   2.409   6.025  0.6387  0.2613  0.3981
   28SAPC  H15C 3684   0.973   2.286   6.036  1.2638 -0.0740 -3.9805
   28SAPC   C11 3685   0.878   2.487   6.394  0.6244  0.0703 -0.2701
   28SAPC  H11A 3686   0.910   2.423   6.479 -1.0381 -0.2992  0.0925
   28SAPC  H11B 3687   0.768   2.502   6.394  0.9224  2.4014 -0.7431
   28SAPC     P 3688   0.857   2.754   6.456  0.1038 -0.3648 -0.1845
   28SAPC   O13 3689   0.952   2.854   6.520  0.2860 -0.5949  0.1581
   28SAPC   O14 3690   0.769   2.801   6.352  0.3132  0.1062 -0.1882
   28SAPC   O12 3691   0.934   2.618   6.411 -0.5889 -0.6678 -0.5855
   28SAPC   O11 3692   0.767   2.696   6.569  0.5557 -0.0568 -0.1113
   28SAPC    C1 3693   0.818   2.659   6.702 -0.2897  0.6246  0.0748
   28SAPC    HA 3694   0.924   2.626   6.691 -0.8484 -1.1501 -0.1909
   28SAPC    HB 3695   0.814   2.754   6.760  0.4943  1.5949 -1.4514
   28SAPC    C2 3696   0.736   2.538   6.758  0.9497 -0.3577  0.4528
   28SAPC    HS 3697   0.740   2.462   6.678 -0.2695 -0.0838  0.1213
   28SAPC   O21 3698   0.603   2.586   6.770  0.4559 -0.0361  0.0070
   28SAPC   C21 3699   0.517   2.556   6.680  1.0150 -0.4810 -0.1765
   28SAPC   O22 3700   0.531   2.487   6.582  0.7774 -0.2366  0.3226
   28SAPC   C22 3701   0.390   2.636   6.705  0.2560  0.3481  0.5955
   28SAPC   H2R 3702   0.422   2.742   6.714 -0.3555  0.6334 -0.4454
   28SAPC   H2S 3703   0.332   2.605   6.615  0.9361  1.1812 -0.1432
   28SAPC    C3 3704   0.786   2.492   6.892  0.0209  0.0156 -0.0134
   28SAPC    HX 3705   0.786   2.577   6.963  1.0035  1.8797 -2.1378
   28SAPC    HY 3706   0.893   2.460   6.886  1.1810  3.4041  1.2443
   28SAPC   O31 3707   0.711   2.379   6.932 -0.1584  0.3428 -0.4319
   28SAPC   C31 3708   0.698   2.342   7.056 -0.1689  0.1126  0.2822
   28SAPC   O32 3709   0.768   2.382   7.149 -0.1236 -0.1785 -0.1815
   28SAPC   C32 3710   0.613   2.221   7.062 -0.2754 -0.3927 -1.0197
   28SAPC   H2X 3711   0.681   2.141   7.025  2.5838  1.1581  0.6667
   28SAPC   H2Y 3712   0.520   2.233   7.002 -0.6035 -0.8636 -0.6095
   28SAPC   C23 3713   0.306   2.590   6.820  1.1087 -0.5429 -0.6251
   28SAPC   H3R 3714   0.369   2.574   6.910  2.4074  3.4441 -0.7091
   28SAPC   H3S 3715   0.255   2.495   6.791 -0.4985  0.7426 -2.1096
   28SAPC   C24 3716   0.186   2.682   6.866  0.3830 -0.5434  0.2305
   28SAPC   H4R 3717   0.113   2.693   6.784  0.5023  1.3518  0.3485
   28SAPC   H4S 3718   0.136   2.628   6.949  0.0721  2.4203  2.0384
   28SAPC   C25 3719   0.232   2.822   6.906  0.1730  0.4893 -0.0267
   28SAPC   H5R 3720   0.309   2.854   6.833 -0.9495 -0.7557 -1.8076
   28SAPC   C26 3721   0.209   2.902   7.015  0.3059 -0.2731 -0.8615
   28SAPC   H6R 3722   0.268   2.994   7.031  2.6061 -1.8130 -0.2153
   28SAPC   C27 3723   0.132   2.867   7.136  0.6952  0.5378  0.1035
   28SAPC   H7R 3724   0.081   2.771   7.112  2.5707 -0.2728 -0.7618
   28SAPC   H7S 3725   0.061   2.950   7.155 -0.1359  0.6941 -3.4135
   28SAPC   C28 3726   0.242   2.836   7.242  1.1155  0.6163 -0.3049
   28SAPC   H8R 3727   0.336   2.793   7.205  0.9395  0.7119 -0.8684
   28SAPC   C29 3728   0.232   2.866   7.374  0.6062 -0.4975 -0.3392
   28SAPC   H9R 3729   0.319   2.832   7.432 -0.1861 -0.7632  0.7244
   28SAPC  C210 3730   0.123   2.930   7.453 -0.4578  0.4338  0.3214
   28SAPC  H10R 3731   0.086   2.858   7.529 -3.0735  0.5304 -0.7966
   28SAPC  H10S 3732   0.042   2.944   7.379 -0.6146 -3.0636 -0.2543
   28SAPC  C211 3733   0.179   3.059   7.498 -0.2398  0.7484  0.4649
   28SAPC  H11R 3734   0.223   3.132   7.428  0.3934 -0.3512 -0.2922
   28SAPC  C212 3735   0.146   3.095   7.619 -0.5242  0.3437 -0.0316
   28SAPC  H12R 3736   0.194   3.189   7.652  0.7788  0.0178 -0.9532
   28SAPC  C213 3737   0.070   3.026   7.728 -0.1199 -0.6156  0.2091
   28SAPC  H13R 3738  -0.013   2.969   7.681 -0.7720 -0.2828  0.9573
   28SAPC  H13S 3739   0.025   3.092   7.805  0.1853  1.5971 -1.4412
   28SAPC  C214 3740   0.157   2.920   7.784  0.3945  0.1348 -0.5997
   28SAPC  H14R 3741   0.123   2.817   7.765 -2.6644  0.6733  1.6067
   28SAPC  C215 3742   0.271   2.935   7.857  0.4859  0.7429 -0.1607
   28SAPC  H15R 3743   0.325   2.846   7.891  0.6950 -0.2677 -2.9999
   28SAPC  C216 3744   0.329   3.058   7.905 -0.6149  0.6941  0.7019
   28SAPC  H16R 3745   0.265   3.149   7.904 -2.6136 -0.6745 -2.2245
   28SAPC  H16S 3746   0.414   3.094   7.842 -0.1442  1.3749  1.7026
   28SAPC  C217 3747   0.386   3.055   8.049 -0.3874  0.2745  0.4444
   28SAPC  H17R 3748   0.481   2.999   8.040 -0.7875 -0.3107 -0.1602
   28SAPC  H17S 3749   0.310   3.000   8.109 -0.4685 -0.9894 -0.7898
   28SAPC  C218 3750   0.409   3.187   8.117  0.0204 -0.7797  0.4773
   28SAPC  H18R 3751   0.445   3.174   8.221  3.7403 -1.4155 -0.8145
   28SAPC  H18S 3752   0.317   3.244   8.139 -0.0431 -1.4844  2.1445
   28SAPC  C219 3753   0.513   3.275   8.039 -0.0027  0.1946 -0.4098
   28SAPC  H19R 3754   0.569   3.209   7.970 -0.8851 -2.8278  1.6904
   28SAPC  H19S 3755   0.585   3.312   8.116 -0.9071  2.4806 -0.6141
   28SAPC  C220 3756   0.452   3.388   7.951  0.6581  0.0178  0.3084
   28SAPC  H20R 3757   0.397   3.464   8.010 -1.1122 -0.5557 -0.5759
   28SAPC  H20S 3758   0.382   3.344   7.878 -0.6852  0.9037  1.0337
   28SAPC  H20T 3759   0.538   3.441   7.903  0.9823  1.8299  2.7550
   28SAPC   C33 3760   0.565   2.188   7.205  0.5308 -0.2705 -0.4760
   28SAPC   H3X 3761   0.655   2.184   7.270  1.0124  3.3100 -0.7789
   28SAPC   H3Y 3762   0.521   2.087   7.204  0.9994 -0.4836 -0.0418
   28SAPC   C34 3763   0.455   2.281   7.259  0.2715 -0.0839 -0.0169
   28SAPC   H4X 3764   0.501   2.380   7.283 -0.8787 -0.0048  1.9930
   28SAPC   H4Y 3765   0.418   2.234   7.352  2.5808 -0.4972  0.7357
   28SAPC   C35 3766   0.338   2.302   7.156 -0.1754  0.3469  0.4416
   28SAPC   H5X 3767   0.304   2.201   7.124 -0.5419  1.1229 -1.7713
   28SAPC   H5Y 3768   0.374   2.359   7.067 -1.4051  0.6519  0.1270
   28SAPC   C36 3769   0.218   2.378   7.216 -0.2454 -0.0168 -0.3592
   28SAPC   H6X 3770   0.243   2.486   7.225  2.3838 -0.6668  0.6903
   28SAPC   H6Y 3771   0.195   2.335   7.315 -1.9385 -0.1311 -0.7957
   28SAPC   C37 3772   0.091   2.360   7.135  0.6718 -0.3868  0.4023
   28SAPC   H7X 3773   0.060   2.253   7.139 -1.8016  0.2806 -0.0290
   28SAPC   H7Y 3774   0.104   2.386   7.028 -0.6838  1.6647  0.7056
   28SAPC   C38 3775  -0.030   2.440   7.206  0.1656 -0.8251 -0.1613
   28SAPC   H8X 3776  -0.128   2.423   7.158 -0.3205 -0.5057  0.7105
   28SAPC   H8Y 3777  -0.003   2.547   7.193 -2.6571 -0.2414 -1.3935
   28SAPC   C39 3778  -0.046   2.416   7.358  0.1045 -0.7261  0.0944
   28SAPC   H9X 3779   0.047   2.447   7.410  0.0342  1.1543 -0.8215
   28SAPC   H9Y 3780  -0.071   2.309   7.373  0.3191 -0.6530  0.9917
   28SAPC  C310 3781  -0.162   2.505   7.413  0.0524 -0.3033  0.8062
   28SAPC  H10X 3782  -0.247   2.478   7.347  1.7469  0.2588 -1.6629
   28SAPC  H10Y 3783  -0.147   2.615   7.408 -1.8156  0.0118  1.6539
   28SAPC  C311 3784  -0.195   2.477   7.558 -0.0324  0.3424 -0.1268
   28SAPC  H11X 3785  -0.115   2.494   7.633  1.3154  0.5080 -1.5782
   28SAPC  H11Y 3786  -0.216   2.368   7.552  3.2815 -0.3828  0.5273
   28SAPC  C312 3787  -0.313   2.553   7.615 -0.5049 -0.1817  0.2724
   28SAPC  H12X 3788  -0.395   2.565   7.542 -0.8883  0.0526  0.7362
   28SAPC  H12Y 3789  -0.282   2.659   7.632 -0.1450 -0.2377 -0.0121
   28SAPC  C313 3790  -0.375   2.483   7.742  0.0389 -0.8428 -0.3094
   28SAPC  H13X 3791  -0.392   2.377   7.713  1.3360 -1.1844  0.1328
   28SAPC  H13Y 3792  -0.476   2.527   7.757  1.5948  1.8691  2.9550
   28SAPC  C314 3793  -0.272   2.470   7.857 -0.1470  0.0850 -0.2924
   28SAPC  H14X 3794  -0.192   2.402   7.820  0.1327  0.1134  0.2622
   28SAPC  H14Y 3795  -0.329   2.414   7.934  1.4382 -0.0558  0.7913
   28SAPC  C315 3796  -0.215   2.603   7.910 -0.1160  0.3119  0.4257
   28SAPC  H15X 3797  -0.301   2.671   7.926 -1.6271 -1.2916 -0.6678
   28SAPC  H15Y 3798  -0.146   2.648   7.835  0.1693 -0.5707  0.1439
   28SAPC  C316 3799  -0.141   2.599   8.042 -0.7874 -0.1272 -0.7053
   28SAPC  H16X 3800  -0.185   2.544   8.128  0.9564 -1.7326 -0.8131
   28SAPC  H16Y 3801  -0.119   2.704   8.068  0.4483 -0.0723 -1.9556
   28SAPC  C317 3802  -0.005   2.531   8.028  0.0201  0.0392 -0.0826
   28SAPC  H17X 3803  -0.027   2.435   7.976 -0.6107 -0.1119  0.4520
   28SAPC  H17Y 3804   0.036   2.498   8.125  0.8642 -0.9881 -0.7756
   28SAPC  C318 3805   0.100   2.613   7.962  0.0563  0.5782 -1.3031
   28SAPC  H18X 3806   0.072   2.638   7.857  1.2824 -0.4635 -1.8911
   28SAPC  H18Y 3807   0.189   2.547   7.968  1.0971  1.9877 -1.1062
   28SAPC  H18Z 3808   0.128   2.702   8.022 -0.4951 -0.8673  1.1558
   29SAPC     N 3809   4.250   6.649   6.224  0.1395 -0.0381  0.1714
   29SAPC   C12 3810   4.158   6.524   6.246 -0.3515  0.9130  0.2863
   29SAPC  H12A 3811   4.132   6.516   6.350  1.2536  0.2685  0.6522
   29SAPC  H12B 3812   4.207   6.434   6.210 -1.4104 -0.0177  1.1269
   29SAPC   C13 3813   4.189   6.762   6.297 -0.4027  0.4407  1.0278
   29SAPC  H13A 3814   4.237   6.857   6.283 -2.4309  1.1670 -1.3784
   29SAPC  H13B 3815   4.091   6.783   6.258  0.0375  0.3033 -0.1633
   29SAPC  H13C 3816   4.185   6.746   6.404  0.2560  1.5576  1.2307
   29SAPC   C14 3817   4.388   6.623   6.270 -0.2293 -0.5940 -0.5300
   29SAPC  H14A 3818   4.405   6.625   6.377  1.8629  1.0549 -0.8582
   29SAPC  H14B 3819   4.420   6.526   6.237 -2.4126 -1.6616  0.4237
   29SAPC  H14C 3820   4.453   6.698   6.226 -1.4697  0.2245 -1.0031
   29SAPC   C15 3821   4.251   6.682   6.074  0.1962 -0.0754  0.4468
   29SAPC  H15A 3822   4.307   6.774   6.063  0.9048 -0.2748  2.1880
   29SAPC  H15B 3823   4.310   6.609   6.022 -0.2600 -0.5019  0.5200
   29SAPC  H15C 3824   4.154   6.699   6.030  0.6323 -0.3831 -0.6432
   29SAPC   C11 3825   4.024   6.501   6.165 -0.6533  0.1227  0.0087
   29SAPC  H11A 3826   3.981   6.399   6.172  3.7041 -1.7572  1.1483
   29SAPC  H11B 3827   4.036   6.503   6.055 -0.2027 -3.2128 -0.0296
   29SAPC     P 3828   3.842   6.637   6.317  0.0291 -0.1073 -0.0325
   29SAPC   O13 3829   3.871   6.779   6.347  0.1456 -0.0508 -0.3477
   29SAPC   O14 3830   3.702   6.599   6.296  0.3164 -0.2780  0.3740
   29SAPC   O12 3831   3.932   6.599   6.190  0.4238  0.1248  0.4402
   29SAPC   O11 3832   3.911   6.566   6.442 -0.2266  0.3669 -0.4355
   29SAPC    C1 3833   3.882   6.445   6.498  0.3869  0.3742  0.1732
   29SAPC    HA 3834   3.874   6.367   6.421 -0.4707 -1.9382  2.5315
   29SAPC    HB 3835   3.965   6.406   6.561  0.0103  1.2207  1.2234
   29SAPC    C2 3836   3.761   6.455   6.590 -0.0288  0.5447  0.2090
   29SAPC    HS 3837   3.671   6.481   6.530 -0.2199  0.7000  0.5651
   29SAPC   O21 3838   3.793   6.551   6.697  0.1893  0.4285  0.0077
   29SAPC   C21 3839   3.715   6.657   6.699  0.8452  0.2827  0.3365
   29SAPC   O22 3840   3.609   6.663   6.644 -0.2773 -0.0053  0.1769
   29SAPC   C22 3841   3.786   6.771   6.778  0.6081 -0.0946 -0.0863
   29SAPC   H2R 3842   3.872   6.787   6.710 -0.4537 -0.7047 -1.5858
   29SAPC   H2S 3843   3.732   6.867   6.784  0.7416  0.0404 -1.0033
   29SAPC    C3 3844   3.730   6.328   6.654 -0.6024  0.4779  0.0187
   29SAPC    HX 3845   3.822   6.298   6.709 -0.2232  0.6595 -0.5108
   29SAPC    HY 3846   3.715   6.243   6.585  2.1182 -0.5235  0.5855
   29SAPC   O31 3847   3.634   6.337   6.759  1.2494  0.3741 -0.1289
   29SAPC   C31 3848   3.507   6.361   6.725 -0.4086  0.0724 -0.6505
   29SAPC   O32 3849   3.466   6.348   6.614  0.2088 -0.0664  0.0112
   29SAPC   C32 3850   3.438   6.421   6.848  0.3210  0.1057  0.2575
   29SAPC   H2X 3851   3.444   6.531   6.836 -0.4739  0.2218  0.8725
   29SAPC   H2Y 3852   3.490   6.383   6.938  1.3809  1.1799  0.1027
   29SAPC   C23 3853   3.828   6.734   6.928  0.4841  0.4451  0.1427
   29SAPC   H3R 3854   3.861   6.823   6.985  1.7627  0.7232 -1.0114
   29SAPC   H3S 3855   3.911   6.660   6.937  0.7525  0.6707 -0.4338
   29SAPC   C24 3856   3.717   6.659   7.011  0.5216 -0.6159  0.1084
   29SAPC   H4R 3857   3.753   6.635   7.113  0.1537  4.0160  1.4649
   29SAPC   H4S 3858   3.695   6.560   6.966  0.7719 -0.9428  0.7038
   29SAPC   C25 3859   3.585   6.733   7.029  0.6291  0.0825  0.2610
   29SAPC   H5R 3860   3.524   6.722   6.938  0.7768  1.2269  0.0176
   29SAPC   C26 3861   3.538   6.810   7.123  0.1813 -0.2791 -0.6775
   29SAPC   H6R 3862   3.433   6.842   7.125  0.8459  2.0369 -0.9481
   29SAPC   C27 3863   3.620   6.845   7.241  0.7965  0.9578 -0.5170
   29SAPC   H7R 3864   3.707   6.910   7.219  1.6213  1.4514  3.8072
   29SAPC   H7S 3865   3.666   6.751   7.280  1.8034  1.3511 -0.7243
   29SAPC   C28 3866   3.533   6.888   7.358 -0.7276 -0.4810 -0.1230
   29SAPC   H8R 3867   3.443   6.937   7.318  0.2628 -0.0345 -1.8554
   29SAPC   C29 3868   3.561   6.875   7.493  0.2112  0.1449  0.1468
   29SAPC   H9R 3869   3.495   6.910   7.574  0.6253  0.8716  0.1681
   29SAPC  C210 3870   3.688   6.804   7.542  0.2948 -0.5027 -0.0481
   29SAPC  H10R 3871   3.746   6.887   7.588 -1.4115  0.4461  0.4309
   29SAPC  H10S 3872   3.748   6.764   7.457  1.7866  0.1594  0.6693
   29SAPC  C211 3873   3.667   6.682   7.634  0.2195  0.1021 -0.4370
   29SAPC  H11R 3874   3.708   6.585   7.605 -0.5161  0.2833 -2.1611
   29SAPC  C212 3875   3.607   6.691   7.756  0.5435 -0.6452  0.2865
   29SAPC  H12R 3876   3.594   6.597   7.811  1.4057 -2.4818 -2.5306
   29SAPC  C213 3877   3.546   6.804   7.833  0.1865  0.5889  0.6686
   29SAPC  H13R 3878   3.474   6.766   7.908  2.1771 -2.4452  1.1338
   29SAPC  H13S 3879   3.487   6.870   7.766  0.9693  2.0072  1.3379
   29SAPC  C214 3880   3.646   6.889   7.900 -0.0653 -0.0849 -0.2002
   29SAPC  H14R 3881   3.724   6.913   7.827 -2.5498 -1.9203 -3.5992
   29SAPC  C215 3882   3.651   6.932   8.027 -0.3152  0.3269 -0.0937
   29SAPC  H15R 3883   3.740   6.988   8.058 -0.9908  2.1286 -1.3010
   29SAPC  C216 3884   3.550   6.909   8.136 -0.4109  0.1648 -0.1490
   29SAPC  H16R 3885   3.460   6.857   8.098 -0.0731 -0.4663 -0.0994
   29SAPC  H16S 3886   3.521   7.013   8.163 -0.3724  0.6019 -1.7588
   29SAPC  C217 3887   3.613   6.820   8.253  0.4214  0.3418  0.7295
   29SAPC  H17R 3888   3.706   6.871   8.286  0.9150 -0.7633  1.0573
   29SAPC  H17S 3889   3.634   6.719   8.213  0.2228 -0.1048  1.7388
   29SAPC  C218 3890   3.518   6.800   8.366 -0.1026  0.0613  0.3027
   29SAPC  H18R 3891   3.567   6.720   8.426  2.9727  0.7283 -1.1828
   29SAPC  H18S 3892   3.423   6.755   8.329 -0.0391  0.1333  0.0523
   29SAPC  C219 3893   3.490   6.919   8.456 -0.0896 -0.1060  0.1307
   29SAPC  H19R 3894   3.441   6.997   8.393  0.4311 -1.8443 -2.5161
   29SAPC  H19S 3895   3.588   6.966   8.477 -1.1326  2.7550 -1.0677
   29SAPC  C220 3896   3.434   6.891   8.591  1.4041  0.7894 -0.0174
   29SAPC  H20R 3897   3.504   6.827   8.650 -1.0005 -1.1761  0.7783
   29SAPC  H20S 3898   3.337   6.843   8.568  1.6636 -1.0045  2.4449
   29SAPC  H20T 3899   3.410   6.986   8.643 -1.2725  0.2080 -0.1323
   29SAPC   C33 3900   3.293   6.361   6.839 -0.1049 -1.2213 -0.3545
   29SAPC   H3X 3901   3.288   6.258   6.798  0.1770 -1.1692 -0.5193
   29SAPC   H3Y 3902   3.230   6.430   6.779  2.1524 -1.3640 -2.9719
   29SAPC   C34 3903   3.234   6.346   6.981  0.2566 -0.3080 -0.0661
   29SAPC   H4X 3904   3.280   6.269   7.046  0.3037  0.2933  0.6255
   29SAPC   H4Y 3905   3.130   6.310   6.970  0.8786 -1.1737 -3.6648
   29SAPC   C35 3906   3.237   6.480   7.053 -0.7472 -0.1692 -0.1058
   29SAPC   H5X 3907   3.183   6.560   6.997 -0.9493  0.4663  0.9870
   29SAPC   H5Y 3908   3.341   6.518   7.061 -0.2881 -1.0626 -1.6006
   29SAPC   C36 3909   3.178   6.475   7.194  0.0905  0.2248  0.2711
   29SAPC   H6X 3910   3.227   6.402   7.261  0.0229 -0.0333  0.0404
   29SAPC   H6Y 3911   3.069   6.457   7.182  0.2219 -1.5699  1.5880
   29SAPC   C37 3912   3.204   6.604   7.279 -0.2185  0.4195  0.9547
   29SAPC   H7X 3913   3.128   6.675   7.240 -1.2380 -1.1500  0.0095
   29SAPC   H7Y 3914   3.307   6.642   7.264  0.2999 -1.2669  0.1210
   29SAPC   C38 3915   3.187   6.567   7.427  0.6376 -0.2286 -0.5634
   29SAPC   H8X 3916   3.261   6.489   7.457  2.0300  1.3568  0.2037
   29SAPC   H8Y 3917   3.089   6.515   7.431 -0.4965  1.6268 -3.1340
   29SAPC   C39 3918   3.186   6.692   7.520  0.0216  0.3037  0.2244
   29SAPC   H9X 3919   3.107   6.759   7.480  0.0156  0.0907 -0.1244
   29SAPC   H9Y 3920   3.284   6.744   7.513  0.0018  0.4053  0.6527
   29SAPC  C310 3921   3.165   6.649   7.665  0.7705  0.7395  0.7982
   29SAPC  H10X 3922   3.240   6.572   7.694 -0.2898 -0.6329  0.0291
   29SAPC  H10Y 3923   3.069   6.593   7.678  0.7447  0.0011 -2.1222
   29SAPC  C311 3924   3.177   6.760   7.765  0.8349  0.1588  0.6316
   29SAPC  H11X 3925   3.082   6.815   7.748  1.1471  0.4949 -0.0313
   29SAPC  H11Y 3926   3.262   6.828   7.741  0.0255  0.9923  0.0888
   29SAPC  C312 3927   3.178   6.717   7.907  0.0195  0.1667  0.6455
   29SAPC  H12X 3928   3.265   6.649   7.914  0.1480  0.2896  0.2204
   29SAPC  H12Y 3929   3.078   6.672   7.928 -1.7332  3.2081 -0.7150
   29SAPC  C313 3930   3.187   6.832   8.014 -0.1129  0.9662  0.7190
   29SAPC  H13X 3931   3.102   6.903   8.002  0.2961  1.3915  0.3520
   29SAPC  H13Y 3932   3.278   6.889   7.988  0.3511 -0.6625 -1.4610
   29SAPC  C314 3933   3.177   6.779   8.155 -0.1621 -0.5161  0.2869
   29SAPC  H14X 3934   3.261   6.712   8.184  0.8842  0.0963 -1.2335
   29SAPC  H14Y 3935   3.089   6.713   8.142  0.3349 -1.2423  0.5839
   29SAPC  C315 3936   3.150   6.883   8.273  0.0580  0.9971 -0.9201
   29SAPC  H15X 3937   3.237   6.951   8.282 -0.1584  1.1322  0.2349
   29SAPC  H15Y 3938   3.132   6.822   8.364  0.6258 -0.1538 -1.5679
   29SAPC  C316 3939   3.018   6.955   8.251 -0.5359 -0.0586  0.1505
   29SAPC  H16X 3940   2.948   6.900   8.184 -1.0144 -0.4346  0.9492
   29SAPC  H16Y 3941   3.036   7.050   8.196 -0.7442  0.6025  1.2065
   29SAPC  C317 3942   2.947   6.975   8.384 -0.5755 -0.2205 -0.8300
   29SAPC  H17X 3943   2.919   6.882   8.437 -1.3460  1.3636  1.6151
   29SAPC  H17Y 3944   2.857   7.039   8.373  0.9712  2.0774 -0.3732
   29SAPC  C318 3945   3.043   7.048   8.473 -0.3600 -0.6463  0.0339
   29SAPC  H18X 3946   3.114   7.111   8.417  0.6939 -2.2061 -0.3980
   29SAPC  H18Y 3947   3.108   6.977   8.527  2.8562  1.8536 -0.3854
   29SAPC  H18Z 3948   2.992   7.117   8.545  0.0166  0.8481 -1.1108
   30SAPC     N 3949   5.014   6.479   5.911 -0.4419 -0.1226 -0.2308
   30SAPC   C12 3950   4.963   6.447   6.052  0.1290  0.1010  0.0204
   30SAPC  H12A 3951   5.033   6.375   6.092  1.1057  1.9608  1.7474
   30SAPC  H12B 3952   4.861   6.416   6.043 -0.9036  3.1600  0.5360
   30SAPC   C13 3953   5.076   6.361   5.845  0.7392  0.2911 -0.1246
   30SAPC  H13A 3954   5.132   6.311   5.923  1.0047 -0.0182 -0.5117
   30SAPC  H13B 3955   5.004   6.288   5.810  2.4058 -1.2065 -0.4985
   30SAPC  H13C 3956   5.139   6.386   5.761  0.9644 -1.3955 -0.4877
   30SAPC   C14 3957   4.908   6.538   5.825  0.2866 -0.1229 -0.1405
   30SAPC  H14A 3958   4.945   6.553   5.725 -1.5022  0.5060 -0.7239
   30SAPC  H14B 3959   4.814   6.491   5.799 -1.1402  2.6478 -0.2290
   30SAPC  H14C 3960   4.884   6.637   5.862 -1.8691 -0.1046 -1.5038
   30SAPC   C15 3961   5.128   6.579   5.916  0.0167 -0.1790 -0.4680
   30SAPC  H15A 3962   5.190   6.548   5.999 -1.1233 -1.9658 -0.2657
   30SAPC  H15B 3963   5.163   6.580   5.814  0.8655 -1.3367 -0.1957
   30SAPC  H15C 3964   5.089   6.676   5.942  0.3305  0.0815 -0.9631
   30SAPC   C11 3965   4.963   6.568   6.159 -0.6654  0.6157  0.2861
   30SAPC  H11A 3966   5.064   6.608   6.179  0.6435 -2.9522  1.1142
   30SAPC  H11B 3967   4.931   6.521   6.254  1.6727  0.2429  0.9122
   30SAPC     P 3968   4.716   6.653   6.150  0.0588 -0.2620 -0.1801
   30SAPC   O13 3969   4.633   6.753   6.080  0.1276  0.2514 -0.3078
   30SAPC   O14 3970   4.674   6.512   6.120  0.2296  0.3187 -0.5484
   30SAPC   O12 3971   4.866   6.663   6.117  0.7025  0.2844  0.8882
   30SAPC   O11 3972   4.716   6.690   6.308  0.2433  0.5927 -0.3812
   30SAPC    C1 3973   4.755   6.821   6.352  0.1444 -0.4392 -0.5383
   30SAPC    HA 3974   4.753   6.901   6.275  0.9615  0.9341  0.8375
   30SAPC    HB 3975   4.682   6.847   6.431  1.4565 -0.7504  0.8000
   30SAPC    C2 3976   4.897   6.826   6.420 -1.0953  0.7797  0.1367
   30SAPC    HS 3977   4.975   6.791   6.349 -0.1377 -2.5338  2.6807
   30SAPC   O21 3978   4.887   6.745   6.537  0.4648 -0.2518 -0.2861
   30SAPC   C21 3979   4.977   6.733   6.623 -0.3161 -0.1319  0.3951
   30SAPC   O22 3980   5.097   6.757   6.602  0.8073  0.5439  0.2728
   30SAPC   C22 3981   4.915   6.684   6.754  0.1587 -0.2538  0.2274
   30SAPC   H2R 3982   4.855   6.767   6.798  2.2874  1.6580 -0.3309
   30SAPC   H2S 3983   4.853   6.595   6.730 -0.6849 -0.0778  1.6763
   30SAPC    C3 3984   4.940   6.965   6.459  0.6989  0.1233 -0.3993
   30SAPC    HX 3985   4.947   7.018   6.362  2.6907  0.0805 -0.2919
   30SAPC    HY 3986   5.038   6.970   6.512  1.0834 -0.0862 -1.0874
   30SAPC   O31 3987   4.834   7.018   6.535 -0.1258 -0.2885 -0.2757
   30SAPC   C31 3988   4.860   7.119   6.609 -0.8174 -0.7310  0.0613
   30SAPC   O32 3989   4.971   7.171   6.615  0.3051 -0.2407  0.5976
   30SAPC   C32 3990   4.739   7.152   6.697 -0.3056 -0.2365  0.2037
   30SAPC   H2X 3991   4.737   7.072   6.774 -2.0895 -2.7860 -2.4245
   30SAPC   H2Y 3992   4.648   7.152   6.634  1.4550 -0.4404 -2.4019
   30SAPC   C23 3993   5.028   6.642   6.854  1.2461 -0.0764 -0.1932
   30SAPC   H3R 3994   5.088   6.729   6.888  1.5113 -1.2796  2.5659
   30SAPC   H3S 3995   5.103   6.570   6.816  1.4558  1.0420 -1.9202
   30SAPC   C24 3996   4.960   6.561   6.971  0.2690  0.1894  0.1533
   30SAPC   H4R 3997   4.924   6.464   6.930 -1.8447  0.5145  1.1519
   30SAPC   H4S 3998   4.882   6.621   7.023  0.6028 -0.6502  1.6718
   30SAPC   C25 3999   5.063   6.504   7.070  0.2971  0.6084 -0.1480
   30SAPC   H5R 4000   5.116   6.413   7.037  1.1464  0.4860  1.5251
   30SAPC   C26 4001   5.091   6.554   7.192 -0.1377  0.4004  0.2882
   30SAPC   H6R 4002   5.156   6.493   7.256 -1.4232 -1.2901  0.0119
   30SAPC   C27 4003   5.034   6.678   7.243 -0.2933  0.2352 -0.3101
   30SAPC   H7R 4004   5.010   6.745   7.158 -2.7768  1.0148  0.9615
   30SAPC   H7S 4005   5.128   6.728   7.277 -0.1646 -0.2520  0.0600
   30SAPC   C28 4006   4.914   6.674   7.338  0.3575  0.5906  0.1993
   30SAPC   H8R 4007   4.832   6.639   7.274  1.9599  1.0689 -2.2146
   30SAPC   C29 4008   4.910   6.693   7.471 -0.1717 -0.4738 -0.5377
   30SAPC   H9R 4009   4.812   6.696   7.521  0.9819 -0.1917  1.7291
   30SAPC  C210 4010   5.038   6.724   7.551 -0.6370 -0.2113 -0.1782
   30SAPC  H10R 4011   5.038   6.830   7.585 -0.7116 -1.6366  4.5551
   30SAPC  H10S 4012   5.131   6.701   7.495 -0.7324 -0.5469 -0.1989
   30SAPC  C211 4013   5.034   6.629   7.667 -0.4410 -0.0392 -0.3356
   30SAPC  H11R 4014   5.018   6.521   7.651 -0.3563 -0.1315  0.1924
   30SAPC  C212 4015   5.052   6.669   7.793  0.6826  0.2017  0.5321
   30SAPC  H12R 4016   5.046   6.590   7.869 -1.9062  0.8745  1.0604
   30SAPC  C213 4017   5.090   6.804   7.839 -0.2580 -0.4629 -0.6386
   30SAPC  H13R 4018   4.997   6.862   7.824  0.8084  0.9812 -1.8287
   30SAPC  H13S 4019   5.161   6.846   7.765 -0.1002 -0.0650 -0.2650
   30SAPC  C214 4020   5.140   6.818   7.984 -0.2043 -0.2091  0.5805
   30SAPC  H14R 4021   5.235   6.768   8.009  1.0357  0.8694 -1.8287
   30SAPC  C215 4022   5.077   6.858   8.092  0.2679 -0.5957  0.1656
   30SAPC  H15R 4023   5.124   6.863   8.191 -0.0525 -2.0627  0.4053
   30SAPC  C216 4024   4.932   6.914   8.094  0.5680 -0.5728 -0.1018
   30SAPC  H16R 4025   4.892   6.941   7.994 -0.4123  0.2310  0.4995
   30SAPC  H16S 4026   4.932   7.001   8.163  0.0496 -0.8519  0.2560
   30SAPC  C217 4027   4.833   6.817   8.160 -0.4902 -0.4458 -0.4701
   30SAPC  H17R 4028   4.819   6.730   8.092 -0.5928 -1.6860  1.1100
   30SAPC  H17S 4029   4.732   6.863   8.169  0.3660  1.5400 -0.8490
   30SAPC  C218 4030   4.881   6.766   8.302 -0.1333 -0.5625 -0.0089
   30SAPC  H18R 4031   4.880   6.856   8.367  0.7498 -0.2538 -0.4173
   30SAPC  H18S 4032   4.987   6.733   8.296  0.1683  0.0261  1.8450
   30SAPC  C219 4033   4.791   6.657   8.364  0.5193  0.4859  0.2127
   30SAPC  H19R 4034   4.810   6.569   8.299 -0.6048 -0.0551  0.6128
   30SAPC  H19S 4035   4.685   6.689   8.353  0.5262  0.6065  0.5002
   30SAPC  C220 4036   4.829   6.636   8.511 -0.3435 -0.9031 -0.4844
   30SAPC  H20R 4037   4.823   6.730   8.570  1.6493 -0.1870 -1.3721
   30SAPC  H20S 4038   4.933   6.597   8.520  0.3404  0.9268 -0.2920
   30SAPC  H20T 4039   4.762   6.561   8.559 -0.1208  1.2585  3.3664
   30SAPC   C33 4040   4.754   7.298   6.757 -0.2267 -0.1514 -0.1167
   30SAPC   H3X 4041   4.691   7.363   6.692 -1.5401 -2.4922 -1.2534
   30SAPC   H3Y 4042   4.861   7.325   6.765 -0.8594  2.1447  0.9396
   30SAPC   C34 4043   4.685   7.309   6.897 -0.4265 -0.1058  0.7713
   30SAPC   H4X 4044   4.586   7.259   6.891  0.2677 -1.2662 -1.6034
   30SAPC   H4Y 4045   4.662   7.413   6.930  1.2453 -0.6926  3.9506
   30SAPC   C35 4046   4.763   7.231   7.008  0.1338 -0.1703  0.0597
   30SAPC   H5X 4047   4.865   7.274   7.021  0.3153 -0.4946 -0.2873
   30SAPC   H5Y 4048   4.796   7.131   6.973  0.4599 -0.7819  2.0608
   30SAPC   C36 4049   4.694   7.214   7.142 -0.0630 -0.2407  0.0801
   30SAPC   H6X 4050   4.747   7.131   7.193 -2.6785 -2.2659 -0.3959
   30SAPC   H6Y 4051   4.592   7.175   7.123 -0.7519  0.9412  1.3357
   30SAPC   C37 4052   4.696   7.335   7.235  0.1552 -0.4232 -0.6392
   30SAPC   H7X 4053   4.642   7.410   7.173  2.0793 -0.9670 -3.0165
   30SAPC   H7Y 4054   4.795   7.372   7.269  0.3811 -1.6802  0.0968
   30SAPC   C38 4055   4.623   7.305   7.364  0.2707  0.3045  0.3864
   30SAPC   H8X 4056   4.680   7.237   7.431  0.5816 -0.1285 -0.3054
   30SAPC   H8Y 4057   4.526   7.255   7.346  0.0584  0.8522  0.0006
   30SAPC   C39 4058   4.611   7.435   7.445 -0.0557 -0.9173  0.4832
   30SAPC   H9X 4059   4.575   7.516   7.378  1.5762 -1.0817 -0.6378
   30SAPC   H9Y 4060   4.718   7.463   7.460  0.0900 -0.1870 -1.6804
   30SAPC  C310 4061   4.536   7.438   7.572  0.4270  0.0616  0.1045
   30SAPC  H10X 4062   4.430   7.426   7.543 -0.1886  2.8965  0.9891
   30SAPC  H10Y 4063   4.550   7.541   7.612  0.0696  0.2718 -0.3030
   30SAPC  C311 4064   4.596   7.340   7.677 -0.1039  0.1812 -0.6551
   30SAPC  H11X 4065   4.706   7.353   7.682 -0.0526 -0.5115  0.0831
   30SAPC  H11Y 4066   4.574   7.234   7.651 -0.4042  0.0160  0.2564
   30SAPC  C312 4067   4.549   7.370   7.819 -0.9389 -0.6092 -0.5723
   30SAPC  H12X 4068   4.613   7.452   7.858  0.0684 -1.0594 -1.2396
   30SAPC  H12Y 4069   4.575   7.279   7.879  0.9119  0.0406 -0.3363
   30SAPC  C313 4070   4.404   7.402   7.843 -0.0495  0.7672  0.3632
   30SAPC  H13X 4071   4.338   7.316   7.818  0.0598  0.1809  2.0378
   30SAPC  H13Y 4072   4.374   7.483   7.773 -0.8416  0.0899 -0.0920
   30SAPC  C314 4073   4.384   7.440   7.992  0.2450 -0.4448  0.0145
   30SAPC  H14X 4074   4.278   7.472   8.001  0.9449  2.1081 -0.5110
   30SAPC  H14Y 4075   4.448   7.524   8.027  0.7670 -0.6062 -0.5478
   30SAPC  C315 4076   4.404   7.327   8.091 -0.7568 -0.1419 -0.0871
   30SAPC  H15X 4077   4.511   7.317   8.118 -0.6716 -1.3659 -0.8485
   30SAPC  H15Y 4078   4.380   7.228   8.046  0.4804 -0.4723 -0.0425
   30SAPC  C316 4079   4.321   7.343   8.222 -0.5135 -0.3921 -0.0070
   30SAPC  H16X 4080   4.214   7.324   8.199 -1.4940  0.3761  3.6362
   30SAPC  H16Y 4081   4.345   7.443   8.264  1.2002 -0.7121 -0.1843
   30SAPC  C317 4082   4.374   7.241   8.318  0.0218  0.4346 -0.1406
   30SAPC  H17X 4083   4.472   7.277   8.356 -0.0463 -0.0496  0.5059
   30SAPC  H17Y 4084   4.384   7.141   8.270 -0.3319 -0.5333  1.7528
   30SAPC  C318 4085   4.291   7.221   8.440  0.2137  0.1107  0.3647
   30SAPC  H18X 4086   4.248   7.319   8.470 -0.5277 -0.2862  0.6056
   30SAPC  H18Y 4087   4.338   7.189   8.535 -1.2466 -0.3312  0.9595
   30SAPC  H18Z 4088   4.211   7.145   8.426 -0.5055  0.6141  1.6596
   31SAPC     N 4089   5.821   0.408   6.135 -0.0582 -0.4524 -0.0536
   31SAPC   C12 4090   5.819   0.404   6.286  0.4643 -0.3032  0.0318
   31SAPC  H12A 4091   5.893   0.335   6.324 -0.1636  0.3762  2.6555
   31SAPC  H12B 4092   5.720   0.373   6.316 -0.1139  0.0815 -1.4526
   31SAPC   C13 4093   5.768   0.279   6.074  0.2894 -0.7743 -0.0583
   31SAPC  H13A 4094   5.808   0.265   5.975 -2.3783  1.2771 -1.4646
   31SAPC  H13B 4095   5.803   0.189   6.122  0.8398  0.1788  1.3612
   31SAPC  H13C 4096   5.660   0.272   6.071  0.0518  1.9311  1.0844
   31SAPC   C14 4097   5.744   0.527   6.091  0.5623 -0.4783 -0.3741
   31SAPC  H14A 4098   5.753   0.531   5.984  2.1102 -1.9439 -0.3197
   31SAPC  H14B 4099   5.637   0.521   6.106  0.5281 -2.6584 -1.3163
   31SAPC  H14C 4100   5.779   0.612   6.148 -3.2094  0.4815  0.6908
   31SAPC   C15 4101   5.967   0.428   6.110  0.3566 -0.6170 -0.0405
   31SAPC  H15A 4102   6.007   0.527   6.124 -2.4981  0.6107 -0.1787
   31SAPC  H15B 4103   6.024   0.353   6.162  1.3862  0.2784  0.1436
   31SAPC  H15C 4104   5.980   0.405   6.005 -1.7779 -0.0087 -0.4568
   31SAPC   C11 4105   5.846   0.532   6.369  0.8417 -0.5016 -0.4083
   31SAPC  H11A 4106   5.938   0.578   6.328  1.2634  0.5162  1.5832
   31SAPC  H11B 4107   5.874   0.493   6.469  0.9408  3.0025  1.0198
   31SAPC     P 4108   5.617   0.592   6.458  0.3947 -0.0567  0.0991
   31SAPC   O13 4109   5.512   0.695   6.448  0.3537  0.3536 -0.0189
   31SAPC   O14 4110   5.573   0.451   6.427  0.5176  0.5613  0.0433
   31SAPC   O12 4111   5.740   0.623   6.367 -0.2482 -0.0150  0.0956
   31SAPC   O11 4112   5.693   0.597   6.600 -0.2379  0.8652 -0.0732
   31SAPC    C1 4113   5.781   0.701   6.636  0.2123 -0.0154 -0.0981
   31SAPC    HA 4114   5.879   0.702   6.583 -0.7775  1.3507 -1.9648
   31SAPC    HB 4115   5.724   0.794   6.619 -1.5032 -1.2115 -1.0003
   31SAPC    C2 4116   5.806   0.698   6.787 -0.9033  0.1817  0.7892
   31SAPC    HS 4117   5.878   0.775   6.821 -0.5636  0.4077 -0.4332
   31SAPC   O21 4118   5.852   0.567   6.828  0.0126  0.1347  0.2876
   31SAPC   C21 4119   5.971   0.530   6.776 -0.2541 -0.8396  0.5965
   31SAPC   O22 4120   6.056   0.598   6.722 -0.0878 -0.0413  0.3834
   31SAPC   C22 4121   6.001   0.383   6.795 -0.2803  0.4360 -0.7792
   31SAPC   H2R 4122   5.955   0.354   6.892 -0.7076 -1.9923 -1.6783
   31SAPC   H2S 4123   5.947   0.326   6.717 -0.7753  0.5663 -0.5317
   31SAPC    C3 4124   5.668   0.736   6.858 -0.3936  0.5054 -0.0223
   31SAPC    HX 4125   5.590   0.676   6.807  0.8719  2.2037 -4.1798
   31SAPC    HY 4126   5.637   0.842   6.843 -3.6215 -0.3151  0.5736
   31SAPC   O31 4127   5.665   0.705   7.003 -0.1177  0.0399  0.5302
   31SAPC   C31 4128   5.760   0.769   7.075  0.2886  0.3649  0.6967
   31SAPC   O32 4129   5.825   0.862   7.040  0.3069  0.0788  0.6049
   31SAPC   C32 4130   5.776   0.705   7.211 -0.6142 -0.1752  0.1002
   31SAPC   H2X 4131   5.812   0.602   7.188  1.7221  0.8573 -1.0079
   31SAPC   H2Y 4132   5.675   0.692   7.255  0.6132  0.5177  3.2717
   31SAPC   C23 4133   6.149   0.336   6.768  0.2365 -0.2375 -0.4191
   31SAPC   H3R 4134   6.179   0.345   6.661  0.4644 -0.6683 -0.3916
   31SAPC   H3S 4135   6.142   0.226   6.782  0.6990  0.0897  2.8385
   31SAPC   C24 4136   6.255   0.394   6.864  0.2489 -0.1388  0.7666
   31SAPC   H4R 4137   6.276   0.501   6.845 -0.3828 -0.0954  0.3039
   31SAPC   H4S 4138   6.347   0.337   6.837  0.7273  0.2818  1.4890
   31SAPC   C25 4139   6.209   0.370   7.011 -0.4302 -0.3384 -0.2515
   31SAPC   H5R 4140   6.143   0.283   7.026 -0.8139 -0.1261 -0.6761
   31SAPC   C26 4141   6.239   0.441   7.122 -0.4867 -1.2172  0.3243
   31SAPC   H6R 4142   6.202   0.412   7.222 -0.4613  1.2778  1.0925
   31SAPC   C27 4143   6.322   0.575   7.127 -0.1011  0.3557 -0.1079
   31SAPC   H7R 4144   6.264   0.648   7.188 -0.0487  0.3767 -0.0833
   31SAPC   H7S 4145   6.343   0.617   7.027 -0.8650 -3.0133 -1.7331
   31SAPC   C28 4146   6.455   0.536   7.188 -0.7931 -0.7883 -0.2262
   31SAPC   H8R 4147   6.542   0.530   7.121 -0.0648 -1.8176  0.7963
   31SAPC   C29 4148   6.488   0.519   7.317  0.3206  0.6570 -0.7629
   31SAPC   H9R 4149   6.594   0.516   7.343 -0.0652  1.1841  0.9080
   31SAPC  C210 4150   6.397   0.512   7.438  0.2096 -0.3521 -0.1567
   31SAPC  H10R 4151   6.453   0.443   7.505  1.0008  2.2436  1.9570
   31SAPC  H10S 4152   6.299   0.469   7.407 -0.3561 -1.3271  2.7957
   31SAPC  C211 4153   6.380   0.638   7.523  0.2753 -0.3878  0.2356
   31SAPC  H11R 4154   6.383   0.735   7.472 -1.5186  0.0169  0.8719
   31SAPC  C212 4155   6.390   0.643   7.655  0.6563  0.0647  0.5293
   31SAPC  H12R 4156   6.390   0.745   7.698 -0.5775  0.6844 -0.9104
   31SAPC  C213 4157   6.406   0.529   7.757 -0.0923  0.5340  0.1005
   31SAPC  H13R 4158   6.513   0.500   7.761 -0.0002  1.0121  1.5157
   31SAPC  H13S 4159   6.352   0.440   7.719  0.3778  0.0668  0.5160
   31SAPC  C214 4160   6.353   0.571   7.894  0.0626  0.2455 -0.0358
   31SAPC  H14R 4161   6.251   0.533   7.908 -0.4363  0.5684 -2.5301
   31SAPC  C215 4162   6.417   0.638   7.990  0.7199 -0.2493  0.7895
   31SAPC  H15R 4163   6.363   0.645   8.085  0.8664  1.7158  0.7533
   31SAPC  C216 4164   6.552   0.693   7.982 -0.4389 -0.0055 -0.1208
   31SAPC  H16R 4165   6.547   0.800   8.012  0.5666 -0.1621  0.6472
   31SAPC  H16S 4166   6.603   0.680   7.884 -0.3632  0.9911 -0.2220
   31SAPC  C217 4167   6.660   0.645   8.090  0.8261  0.4682 -0.1913
   31SAPC  H17R 4168   6.756   0.699   8.076  1.5712 -0.4598  1.3242
   31SAPC  H17S 4169   6.674   0.536   8.073  0.3835  0.1810  1.2666
   31SAPC  C218 4170   6.632   0.683   8.238  0.5375  0.1907  0.1950
   31SAPC  H18R 4171   6.539   0.635   8.275 -0.5886  1.3180 -1.1377
   31SAPC  H18S 4172   6.607   0.791   8.243  0.3612  0.1262  0.6935
   31SAPC  C219 4173   6.746   0.660   8.330  0.1641  0.2344 -0.0193
   31SAPC  H19R 4174   6.837   0.723   8.317 -1.6728  3.3639  1.6748
   31SAPC  H19S 4175   6.783   0.556   8.314 -0.9194 -0.3267  0.9996
   31SAPC  C220 4176   6.710   0.680   8.472 -0.0360 -0.0015  0.1750
   31SAPC  H20R 4177   6.784   0.651   8.550  0.1955  2.6164  0.9730
   31SAPC  H20S 4178   6.614   0.634   8.502  0.3436  0.5480  2.3528
   31SAPC  H20T 4179   6.684   0.787   8.491  0.4472 -0.2413  2.3863
   31SAPC   C33 4180   5.869   0.787   7.305 -0.7203 -0.4346 -1.7116
   31SAPC   H3X 4181   5.817   0.882   7.328 -0.6909 -0.8650  0.2455
   31SAPC   H3Y 4182   5.963   0.818   7.254 -0.8596  1.7059 -0.6753
   31SAPC   C34 4183   5.908   0.717   7.431 -0.1782 -0.2402  1.1196
   31SAPC   H4X 4184   5.956   0.618   7.414  1.0134  0.5175 -0.0037
   31SAPC   H4Y 4185   5.816   0.702   7.492 -0.0734  0.8716  1.5580
   31SAPC   C35 4186   6.017   0.787   7.510 -0.3231  0.1828 -0.9644
   31SAPC   H5X 4187   5.994   0.895   7.528  1.0096  0.4750 -0.9431
   31SAPC   H5Y 4188   6.115   0.800   7.460  1.4212  0.0028  2.2476
   31SAPC   C36 4189   6.051   0.723   7.652 -0.0416 -0.1983 -0.2135
   31SAPC   H6X 4190   6.151   0.755   7.688  1.4094 -3.7498 -0.8345
   31SAPC   H6Y 4191   6.064   0.613   7.641  1.4494 -0.0697  0.1632
   31SAPC   C37 4192   5.947   0.744   7.759  0.0653  0.1509 -0.6427
   31SAPC   H7X 4193   5.856   0.699   7.714  0.3645 -2.3153  1.1481
   31SAPC   H7Y 4194   5.909   0.847   7.778 -4.3545 -1.4341 -0.5358
   31SAPC   C38 4195   5.992   0.677   7.892 -0.1815 -0.5083 -0.1273
   31SAPC   H8X 4196   6.089   0.724   7.922 -1.6080  0.6332  2.8861
   31SAPC   H8Y 4197   6.003   0.571   7.861 -2.9190  0.2405 -4.0761
   31SAPC   C39 4198   5.889   0.689   8.003  0.0132 -0.5094 -0.8463
   31SAPC   H9X 4199   5.898   0.611   8.082  1.4967  1.5769  1.1230
   31SAPC   H9Y 4200   5.789   0.670   7.958  0.3064 -2.3552 -0.7258
   31SAPC  C310 4201   5.899   0.831   8.064 -0.7447 -0.2921  0.5006
   31SAPC  H10X 4202   5.888   0.901   7.979 -0.1646 -0.1709  0.5290
   31SAPC  H10Y 4203   5.997   0.848   8.112 -0.5482 -2.6893  1.0082
   31SAPC  C311 4204   5.784   0.862   8.165 -0.7322 -0.3275 -0.7257
   31SAPC  H11X 4205   5.681   0.854   8.124 -0.6233  1.3803 -1.3660
   31SAPC  H11Y 4206   5.805   0.965   8.203  0.2446 -0.0622 -1.9695
   31SAPC  C312 4207   5.800   0.765   8.288  0.0591 -0.2922 -0.6355
   31SAPC  H12X 4208   5.901   0.720   8.279  1.1122  2.2719 -2.1393
   31SAPC  H12Y 4209   5.717   0.691   8.282  0.0863 -0.3420 -0.4249
   31SAPC  C313 4210   5.786   0.838   8.426 -0.8957 -0.0137  0.1479
   31SAPC  H13X 4211   5.853   0.926   8.434  1.4083 -1.7958  0.8357
   31SAPC  H13Y 4212   5.804   0.783   8.520 -0.7393  0.2652  0.2812
   31SAPC  C314 4213   5.642   0.894   8.446  0.6527  0.2511 -0.0876
   31SAPC  H14X 4214   5.574   0.805   8.446  2.8263 -1.4545  0.5029
   31SAPC  H14Y 4215   5.597   0.955   8.365 -2.2112 -0.2831  1.0041
   31SAPC  C315 4216   5.630   0.965   8.582  0.0367  0.0894  0.8948
   31SAPC  H15X 4217   5.724   1.017   8.608  0.3165  0.5205 -0.9267
   31SAPC  H15Y 4218   5.621   0.887   8.661 -2.6547 -1.1770 -0.5719
   31SAPC  C316 4219   5.510   1.053   8.595  0.6114  0.2469  0.5511
   31SAPC  H16X 4220   5.414   1.003   8.569 -0.2575  0.2495  3.5354
   31SAPC  H16Y 4221   5.516   1.142   8.529  0.2728 -0.4910 -0.4758
   31SAPC  C317 4222   5.494   1.110   8.743  0.0975 -0.1829 -0.1216
   31SAPC  H17X 4223   5.493   1.019   8.805 -1.8625 -1.1321 -1.4684
   31SAPC  H17Y 4224   5.395   1.161   8.749  1.8530  3.3559  0.1840
   31SAPC  C318 4225   5.595   1.206   8.790  0.3956  0.1258 -0.3877
   31SAPC  H18X 4226   5.602   1.280   8.707 -0.5076 -2.7335 -3.1300
   31SAPC  H18Y 4227   5.696   1.170   8.818  1.4339  3.3633  0.2160
   31SAPC  H18Z 4228   5.569   1.243   8.891  0.2469  0.4284 -0.5365
   32SAPC     N 4229   6.539   1.393   6.403 -0.4427 -0.3732 -0.0689
   32SAPC   C12 4230   6.413   1.470   6.389 -0.1129 -0.2412  0.0793
   32SAPC  H12A 4231   6.332   1.421   6.443  0.1508  1.4081  2.0402
   32SAPC  H12B 4232   6.377   1.476   6.287  0.8847  4.5521 -0.1015
   32SAPC   C13 4233   6.656   1.465   6.336 -0.0767 -0.6065 -0.1092
   32SAPC  H13A 4234   6.647   1.471   6.228  0.3863  1.6138 -0.0432
   32SAPC  H13B 4235   6.668   1.565   6.376  1.3939 -0.1828 -1.5473
   32SAPC  H13C 4236   6.743   1.405   6.357  1.4634  1.8028  0.5926
   32SAPC   C14 4237   6.585   1.374   6.546 -0.2805  0.2043  0.0155
   32SAPC  H14A 4238   6.614   1.469   6.588  0.9085  0.2482 -0.8778
   32SAPC  H14B 4239   6.507   1.334   6.610  0.5352 -0.1279  0.8158
   32SAPC  H14C 4240   6.669   1.307   6.556 -0.4378  0.0517  0.3289
   32SAPC   C15 4241   6.518   1.253   6.339  0.7403 -0.6502  0.6100
   32SAPC  H15A 4242   6.464   1.182   6.400 -1.3845  0.7853  0.4453
   32SAPC  H15B 4243   6.479   1.254   6.238  0.7483 -0.6156  0.6068
   32SAPC  H15C 4244   6.616   1.212   6.317  0.4756 -0.2098 -1.5405
   32SAPC   C11 4245   6.407   1.622   6.429 -0.0224 -0.0503  0.6053
   32SAPC  H11A 4246   6.426   1.642   6.536  2.2682  1.3992 -0.0199
   32SAPC  H11B 4247   6.298   1.641   6.420 -0.5069 -2.0449  2.0871
   32SAPC     P 4248   6.561   1.833   6.388  0.0133  0.3403  0.0865
   32SAPC   O13 4249   6.569   1.932   6.278 -0.3693 -0.0401  0.2493
   32SAPC   O14 4250   6.497   1.873   6.518 -0.6028 -0.6048  0.4685
   32SAPC   O12 4251   6.485   1.705   6.336  0.1277  0.1780 -0.3342
   32SAPC   O11 4252   6.704   1.771   6.421  0.0718 -0.6107 -0.3509
   32SAPC    C1 4253   6.812   1.847   6.483  0.5302  0.2013 -0.1299
   32SAPC    HA 4254   6.866   1.903   6.403 -0.4918  0.6402 -0.5315
   32SAPC    HB 4255   6.776   1.918   6.560  0.9513 -0.4927  0.7046
   32SAPC    C2 4256   6.908   1.751   6.552  0.1254 -0.5692 -0.2257
   32SAPC    HS 4257   6.990   1.817   6.589 -1.6289  1.2872  0.4353
   32SAPC   O21 4258   6.952   1.655   6.454  0.0560 -0.1531 -0.0583
   32SAPC   C21 4259   7.038   1.690   6.370  0.0519 -0.9150 -0.3521
   32SAPC   O22 4260   7.100   1.795   6.372 -0.2291  0.1825 -0.1286
   32SAPC   C22 4261   7.061   1.583   6.263  0.5356 -0.0014 -0.2701
   32SAPC   H2R 4262   6.969   1.542   6.216  1.5615 -0.8253 -1.5985
   32SAPC   H2S 4263   7.124   1.640   6.191  1.2081  1.4861  1.4545
   32SAPC    C3 4264   6.843   1.674   6.676 -0.3453 -0.4439  0.3264
   32SAPC    HX 4265   6.751   1.631   6.631 -1.8187  2.1647  0.7594
   32SAPC    HY 4266   6.802   1.741   6.755  0.6710  1.5145 -0.7752
   32SAPC   O31 4267   6.929   1.565   6.715 -0.0381 -0.1025  0.1522
   32SAPC   C31 4268   7.008   1.599   6.813  0.3841 -0.3123 -0.2777
   32SAPC   O32 4269   7.029   1.714   6.854  0.1356  0.2536 -0.0085
   32SAPC   C32 4270   7.077   1.475   6.867 -0.6250  0.4828 -0.1562
   32SAPC   H2X 4271   7.121   1.421   6.781 -0.1001  2.5884 -1.2367
   32SAPC   H2Y 4272   7.000   1.409   6.913  1.4152 -2.0656 -0.3028
   32SAPC   C23 4273   7.137   1.458   6.316  0.1059 -0.0600 -0.0725
   32SAPC   H3R 4274   7.128   1.379   6.239  0.4159  0.2429 -0.4235
   32SAPC   H3S 4275   7.092   1.420   6.410 -1.6328  2.7655  0.3058
   32SAPC   C24 4276   7.292   1.487   6.329 -0.6136 -0.0993  0.1798
   32SAPC   H4R 4277   7.295   1.553   6.418  0.7748  0.7532 -0.4855
   32SAPC   H4S 4278   7.335   1.543   6.244  0.2774  0.8893  1.2745
   32SAPC   C25 4279   7.357   1.352   6.353  0.2100 -1.2867  0.1039
   32SAPC   H5R 4280   7.359   1.302   6.255 -1.2498  0.5341 -0.8800
   32SAPC   C26 4281   7.410   1.301   6.462 -0.0643  0.1179  0.1428
   32SAPC   H6R 4282   7.451   1.199   6.452  1.4548  0.4583  2.5326
   32SAPC   C27 4283   7.411   1.362   6.595 -0.7439  0.2810 -0.8630
   32SAPC   H7R 4284   7.451   1.286   6.666  0.0161  1.3049 -0.1764
   32SAPC   H7S 4285   7.309   1.386   6.633 -0.9491 -1.9233  0.0797
   32SAPC   C28 4286   7.498   1.486   6.607 -0.0477 -0.0203 -1.6703
   32SAPC   H8R 4287   7.464   1.585   6.572 -0.9756 -0.0270 -0.7907
   32SAPC   C29 4288   7.618   1.503   6.667 -0.0985  0.5869 -0.3928
   32SAPC   H9R 4289   7.657   1.606   6.665  1.0552  0.1588 -0.5084
   32SAPC  C210 4290   7.705   1.396   6.739  0.1919 -0.3597  0.7287
   32SAPC  H10R 4291   7.813   1.419   6.724 -0.2577  1.7098  0.5396
   32SAPC  H10S 4292   7.695   1.309   6.671  1.2041 -0.6780  0.9824
   32SAPC  C211 4293   7.658   1.349   6.875  0.0695 -0.4291  0.8280
   32SAPC  H11R 4294   7.552   1.368   6.898 -0.2102 -0.4051 -0.4357
   32SAPC  C212 4295   7.731   1.289   6.972 -0.8455 -0.2890  0.0333
   32SAPC  H12R 4296   7.679   1.238   7.054 -0.3956 -2.0860 -0.7664
   32SAPC  C213 4297   7.879   1.258   6.964  0.8408 -0.5379 -0.1157
   32SAPC  H13R 4298   7.927   1.265   7.064  3.3541 -0.0240 -1.3105
   32SAPC  H13S 4299   7.929   1.340   6.907  0.4247 -0.7021 -0.7181
   32SAPC  C214 4300   7.921   1.129   6.901 -0.0979  0.3068  0.1916
   32SAPC  H14R 4301   7.892   1.119   6.796  0.7286 -0.3644  0.0230
   32SAPC  C215 4302   7.981   1.028   6.970  0.0179  0.2087 -0.5406
   32SAPC  H15R 4303   8.004   0.941   6.907  1.0593  0.6844 -0.8316
   32SAPC  C216 4304   8.013   1.020   7.114  0.2228 -0.4613  0.0753
   32SAPC  H16R 4305   7.971   0.921   7.141  0.8651 -0.5090  0.9120
   32SAPC  H16S 4306   7.958   1.085   7.185 -1.1910 -1.5154 -0.0170
   32SAPC  C217 4307   8.165   1.030   7.150  0.9492 -0.3832  0.5246
   32SAPC  H17R 4308   8.188   1.138   7.153 -1.6605  0.2321 -0.4145
   32SAPC  H17S 4309   8.234   0.994   7.070 -0.5552  0.8955 -1.4136
   32SAPC  C218 4310   8.204   0.977   7.292  0.3085 -0.1074  0.0258
   32SAPC  H18R 4311   8.205   0.866   7.299  0.5968 -0.0944  0.1895
   32SAPC  H18S 4312   8.133   1.009   7.370  0.1810 -0.7044  0.1583
   32SAPC  C219 4313   8.340   1.030   7.346  0.8306 -0.7242 -0.0473
   32SAPC  H19R 4314   8.379   0.975   7.435  1.0397  0.6915  0.7627
   32SAPC  H19S 4315   8.322   1.139   7.361 -0.6011 -0.8523 -0.7562
   32SAPC  C220 4316   8.453   1.023   7.239  0.2508  0.1345 -0.4154
   32SAPC  H20R 4317   8.443   0.945   7.160  0.4038 -1.1076  0.7848
   32SAPC  H20S 4318   8.546   1.002   7.296 -0.1538  1.7964  0.8852
   32SAPC  H20T 4319   8.461   1.124   7.193 -2.8373  0.2148 -0.8521
   32SAPC   C33 4320   7.190   1.510   6.964  0.2816 -0.2360  0.3404
   32SAPC   H3X 4321   7.255   1.595   6.936  1.6830 -0.2578  3.3683
   32SAPC   H3Y 4322   7.264   1.427   6.965 -1.0253 -1.4624 -1.0794
   32SAPC   C34 4323   7.144   1.542   7.099  0.3592 -1.0070  0.9646
   32SAPC   H4X 4324   7.117   1.450   7.155 -0.0228  0.7436  3.7540
   32SAPC   H4Y 4325   7.053   1.606   7.089  0.2485 -1.3896 -0.7565
   32SAPC   C35 4326   7.242   1.617   7.187  0.8067 -0.3405 -0.7350
   32SAPC   H5X 4327   7.290   1.686   7.115 -1.1850  0.9295 -0.8929
   32SAPC   H5Y 4328   7.318   1.548   7.229  0.8451  0.7579  1.0703
   32SAPC   C36 4329   7.177   1.687   7.309  0.0430  0.5728 -0.8711
   32SAPC   H6X 4330   7.122   1.606   7.361  1.4154 -0.3030 -0.7613
   32SAPC   H6Y 4331   7.109   1.769   7.280 -0.7590  0.1748 -0.1354
   32SAPC   C37 4332   7.294   1.748   7.402 -0.1013  0.2601 -0.2631
   32SAPC   H7X 4333   7.369   1.788   7.330 -2.0935  0.7233 -2.1734
   32SAPC   H7Y 4334   7.330   1.663   7.463  0.2053 -0.1733 -1.0332
   32SAPC   C38 4335   7.236   1.847   7.499 -0.9386  0.3522 -0.3876
   32SAPC   H8X 4336   7.136   1.809   7.527 -0.0765 -1.2030  0.6704
   32SAPC   H8Y 4337   7.227   1.944   7.446  1.1798 -0.3607 -2.1777
   32SAPC   C39 4338   7.314   1.874   7.631 -0.0935 -0.2377  0.4685
   32SAPC   H9X 4339   7.270   1.958   7.688 -1.9301 -0.1860 -0.9750
   32SAPC   H9Y 4340   7.412   1.917   7.600 -0.9271  0.1437 -1.6912
   32SAPC  C310 4341   7.340   1.749   7.718 -0.1803  0.9687 -0.0399
   32SAPC  H10X 4342   7.403   1.677   7.661 -0.4962  1.7094 -1.3171
   32SAPC  H10Y 4343   7.240   1.703   7.734  0.8643 -1.0747  0.8022
   32SAPC  C311 4344   7.414   1.779   7.847  1.0584 -0.2586  0.1572
   32SAPC  H11X 4345   7.372   1.869   7.898  0.0386  0.0682 -1.2426
   32SAPC  H11Y 4346   7.521   1.803   7.827  1.4842 -0.4574  2.0509
   32SAPC  C312 4347   7.421   1.655   7.929  0.3120 -0.0132 -0.1089
   32SAPC  H12X 4348   7.517   1.647   7.984  0.4794  0.2236 -0.3698
   32SAPC  H12Y 4349   7.427   1.570   7.857  0.6084  0.2978 -0.4518
   32SAPC  C313 4350   7.309   1.654   8.031  0.1815 -0.0572  0.2563
   32SAPC  H13X 4351   7.212   1.645   7.979  0.5837  0.0931 -0.5313
   32SAPC  H13Y 4352   7.296   1.748   8.089  0.0972 -0.3895  0.7813
   32SAPC  C314 4353   7.320   1.534   8.131 -0.1489  0.3561 -1.0324
   32SAPC  H14X 4354   7.405   1.555   8.199 -0.3561 -2.0410  0.0135
   32SAPC  H14Y 4355   7.344   1.446   8.067  1.1149 -1.4146  1.7795
   32SAPC  C315 4356   7.196   1.510   8.213  0.0266 -0.0818  0.5547
   32SAPC  H15X 4357   7.114   1.457   8.159  0.1496  0.4820 -0.1822
   32SAPC  H15Y 4358   7.162   1.605   8.258  0.0394  0.6353 -0.9295
   32SAPC  C316 4359   7.238   1.415   8.327  0.0419 -0.0467  0.6181
   32SAPC  H16X 4360   7.317   1.466   8.385 -0.6448  1.0162  0.6214
   32SAPC  H16Y 4361   7.285   1.335   8.265  2.4819  1.4101  0.5320
   32SAPC  C317 4362   7.128   1.361   8.412  0.4843  0.2456 -0.9265
   32SAPC  H17X 4363   7.168   1.299   8.495  0.4193  0.7566 -0.5054
   32SAPC  H17Y 4364   7.062   1.303   8.345 -0.4091  1.5040 -1.1672
   32SAPC  C318 4365   7.038   1.472   8.467  0.3099 -0.6904 -0.7576
   32SAPC  H18X 4366   6.984   1.425   8.552  1.0935 -0.6536 -0.2307
   32SAPC  H18Y 4367   6.979   1.517   8.385 -0.2787  1.4928  0.8199
   32SAPC  H18Z 4368   7.102   1.555   8.505  0.5235 -0.8442 -0.7757
   33POPC     N 4369   3.205   2.721  10.900 -0.0484 -0.5062  0.7647
   33POPC   C12 4370   3.238   2.696  10.752 -0.1298  0.1787  0.3084
   33POPC  H12A 4371   3.344   2.716  10.751 -0.1724  0.4378  0.6414
   33POPC  H12B 4372   3.186   2.769  10.692  0.9959 -0.7717 -1.8616
   33POPC   C13 4373   3.168   2.863  10.927 -0.0391 -0.3467  0.2197
   33POPC  H13A 4374   3.234   2.923  10.866  0.5219 -1.8502 -0.6865
   33POPC  H13B 4375   3.069   2.886  10.890 -0.1784 -0.4733  0.5072
   33POPC  H13C 4376   3.171   2.900  11.029 -3.2122  0.1782  0.1644
   33POPC   C14 4377   3.091   2.640  10.956  0.0533 -0.7578  0.0583
   33POPC  H14A 4378   3.058   2.684  11.049 -0.0824  2.4945 -1.4637
   33POPC  H14B 4379   3.006   2.645  10.890  0.6273  1.5054 -0.5687
   33POPC  H14C 4380   3.119   2.536  10.963 -1.6646 -1.3647 -1.8988
   33POPC   C15 4381   3.322   2.687  10.991  0.0428 -0.4955 -0.0393
   33POPC  H15A 4382   3.408   2.746  10.960 -0.4960 -0.1081 -0.8215
   33POPC  H15B 4383   3.360   2.586  10.985  1.9070  0.1662  0.4070
   33POPC  H15C 4384   3.298   2.706  11.094 -1.9717  2.0234 -0.9064
   33POPC   C11 4385   3.207   2.559  10.691  0.1932  0.0117  0.9350
   33POPC  H11A 4386   3.210   2.560  10.580 -1.3525 -0.3513  0.8887
   33POPC  H11B 4387   3.108   2.521  10.726 -0.2508  1.7550  1.6002
   33POPC     P 4388   3.428   2.439  10.665 -0.0837 -0.1636 -0.2552
   33POPC   O13 4389   3.491   2.312  10.703 -0.0661 -1.0345  0.0152
   33POPC   O14 4390   3.522   2.557  10.668 -0.0373  0.0153  0.1029
   33POPC   O12 4391   3.298   2.455  10.747 -0.3870 -0.3838 -0.5071
   33POPC   O11 4392   3.374   2.422  10.522 -0.5729  0.6295 -0.0526
   33POPC    C1 4393   3.290   2.300  10.488  0.3116  0.1217 -0.1524
   33POPC    HA 4394   3.336   2.207  10.527  1.7151  1.1779  0.7917
   33POPC    HB 4395   3.193   2.316  10.539 -0.9068 -1.2289 -2.0119
   33POPC    C2 4396   3.249   2.299  10.344  0.7103 -0.0937  0.4452
   33POPC    HS 4397   3.170   2.223  10.324  1.4676 -0.8535  0.2933
   33POPC   O21 4398   3.367   2.282  10.260  0.3262 -0.1716  0.2429
   33POPC   C21 4399   3.384   2.152  10.234  0.2815 -0.4134  0.1378
   33POPC   O22 4400   3.320   2.061  10.275 -0.2134  0.0790 -0.3263
   33POPC   C22 4401   3.515   2.134  10.151 -0.3547 -0.1886  0.3232
   33POPC   H2R 4402   3.599   2.141  10.223 -0.7040 -0.0691  0.7278
   33POPC   H2S 4403   3.510   2.203  10.064  2.0080 -1.7600 -1.1153
   33POPC    C3 4404   3.179   2.429  10.302 -0.5468 -0.0969 -0.1291
   33POPC    HX 4405   3.252   2.512  10.318 -0.1753 -0.5300  0.4371
   33POPC    HY 4406   3.089   2.443  10.365 -0.6606 -0.0479 -0.3028
   33POPC   O31 4407   3.140   2.410  10.163  0.5282  0.4802 -0.0489
   33POPC   C31 4408   3.204   2.475  10.062 -0.1989  0.0006 -0.0199
   33POPC   O32 4409   3.290   2.560  10.079  0.7972 -0.7342  0.2677
   33POPC   C32 4410   3.134   2.437   9.930  0.2032  0.3526 -0.4193
   33POPC   H2X 4411   3.036   2.490   9.934  0.9220  1.7060 -0.3953
   33POPC   H2Y 4412   3.123   2.327   9.921 -1.2393  0.3124  1.4509
   33POPC   C23 4413   3.519   1.989  10.087 -0.4332  0.4385  0.2672
   33POPC   H3R 4414   3.498   1.915  10.167 -0.5700 -0.4007 -0.5294
   33POPC   H3S 4415   3.624   1.974  10.055  0.0686  1.4968  1.3892
   33POPC   C24 4416   3.419   1.976   9.974 -0.2825  0.3397 -0.5834
   33POPC   H4R 4417   3.317   1.995  10.013 -0.6353 -0.4024 -1.1303
   33POPC   H4S 4418   3.403   1.868   9.952  0.3649 -0.5332  2.9451
   33POPC   C25 4419   3.460   2.034   9.839  0.6914 -0.8195  0.0333
   33POPC   H5R 4420   3.556   1.989   9.805  0.9392 -0.7997  0.6979
   33POPC   H5S 4421   3.484   2.142   9.855 -0.4499 -0.6802  0.8298
   33POPC   C26 4422   3.350   2.018   9.737  0.1930 -0.6142 -0.4071
   33POPC   H6R 4423   3.254   2.064   9.771  1.2784  0.4305  1.3297
   33POPC   H6S 4424   3.350   1.910   9.710  2.6241 -0.5291 -0.8224
   33POPC   C27 4425   3.374   2.094   9.604  0.2717  0.6866  0.1538
   33POPC   H7R 4426   3.475   2.068   9.563 -0.2459  0.5994 -1.0897
   33POPC   H7S 4427   3.371   2.204   9.616 -3.0662  0.8098 -1.2465
   33POPC   C28 4428   3.278   2.077   9.484  0.4792 -0.6785 -0.8474
   33POPC   H8R 4429   3.293   2.146   9.398 -0.8037  1.3550  0.5246
   33POPC   H8S 4430   3.185   2.115   9.530  0.2000 -1.7881 -0.4806
   33POPC   C29 4431   3.262   1.943   9.423 -0.8050 -0.1047 -0.5477
   33POPC   H91 4432   3.275   1.865   9.499  0.5597  1.3283  0.7344
   33POPC  C210 4433   3.226   1.915   9.301 -0.5609  0.6108 -0.4010
   33POPC  H101 4434   3.222   1.812   9.263 -0.1770  1.0713 -1.7174
   33POPC  C211 4435   3.195   2.005   9.186 -0.1536  0.3159  0.5335
   33POPC  H11R 4436   3.224   2.109   9.210  1.0935  0.5591 -1.8922
   33POPC  H11S 4437   3.084   2.001   9.173 -0.0118 -1.3786 -0.3171
   33POPC  C212 4438   3.251   1.980   9.047 -1.0351 -0.5241  0.5189
   33POPC  H12R 4439   3.361   1.962   9.044 -1.0981 -0.6181 -1.2299
   33POPC  H12S 4440   3.241   2.070   8.983 -0.1313 -0.0389  1.0379
   33POPC  C213 4441   3.180   1.861   8.979 -0.7243 -0.3664 -0.5093
   33POPC  H13R 4442   3.073   1.884   9.000 -0.2063  1.5215  0.1076
   33POPC  H13S 4443   3.203   1.766   9.033  0.9041  0.7117  0.7337
   33POPC  C214 4444   3.220   1.834   8.831 -0.0392  0.4928  0.2091
   33POPC  H14R 4445   3.186   1.924   8.775 -1.7701  0.5456  1.2825
   33POPC  H14S 4446   3.160   1.751   8.789  2.3564 -2.4584  2.4729
   33POPC  C215 4447   3.369   1.808   8.805 -0.0528 -0.1278 -0.2362
   33POPC  H15R 4448   3.434   1.891   8.841  0.5455 -1.3256  1.4681
   33POPC  H15S 4449   3.388   1.812   8.695 -1.1246  0.5949 -0.4080
   33POPC  C216 4450   3.414   1.671   8.866  0.3153  0.4724 -0.6187
   33POPC  H16R 4451   3.347   1.589   8.833 -0.2744  0.8664 -0.4101
   33POPC  H16S 4452   3.406   1.675   8.976  0.8621  1.2412 -0.5971
   33POPC  C217 4453   3.555   1.633   8.813  0.0801 -0.4937  0.6315
   33POPC  H17R 4454   3.552   1.611   8.704 -3.2647 -0.6797  0.7170
   33POPC  H17S 4455   3.582   1.542   8.870 -1.8177 -1.8848 -0.6350
   33POPC  C218 4456   3.661   1.736   8.850  0.3733  0.5553 -0.0734
   33POPC  H18R 4457   3.765   1.702   8.831 -0.0691 -1.5440  1.1204
   33POPC  H18S 4458   3.651   1.757   8.958  1.8927  1.6700 -0.1358
   33POPC  H18T 4459   3.630   1.827   8.794  0.4479  0.8980  0.4423
   33POPC   C33 4460   3.217   2.493   9.816 -0.6759  0.2920  0.3338
   33POPC   H3X 4461   3.313   2.437   9.810 -0.3629  1.0307 -2.2125
   33POPC   H3Y 4462   3.246   2.596   9.844 -0.6881  0.2419  0.5295
   33POPC   C34 4463   3.151   2.489   9.671  0.6994 -0.1630 -0.7825
   33POPC   H4X 4464   3.057   2.548   9.676  1.7734  1.3619  3.0413
   33POPC   H4Y 4465   3.128   2.381   9.661  0.7226 -0.2951  0.4463
   33POPC   C35 4466   3.242   2.544   9.563  0.3540  0.1096 -0.1119
   33POPC   H5X 4467   3.344   2.506   9.583 -0.7253 -1.6012  2.4943
   33POPC   H5Y 4468   3.245   2.655   9.567  0.0595  0.0739  1.4632
   33POPC   C36 4469   3.183   2.500   9.428 -0.1333  0.1655 -0.5798
   33POPC   H6X 4470   3.077   2.530   9.418  0.0111  1.0656  0.4114
   33POPC   H6Y 4471   3.181   2.389   9.430  0.9404  0.1105 -1.6513
   33POPC   C37 4472   3.269   2.540   9.309  0.0462  0.7527 -0.6017
   33POPC   H7X 4473   3.375   2.559   9.336 -0.5421  1.3746  1.3773
   33POPC   H7Y 4474   3.231   2.643   9.288  0.6732  1.2229  0.5584
   33POPC   C38 4475   3.242   2.452   9.187  0.4394 -0.0560  0.3360
   33POPC   H8X 4476   3.131   2.447   9.179  0.0703  3.7164  1.9160
   33POPC   H8Y 4477   3.276   2.353   9.224 -0.6810 -1.4604 -2.3116
   33POPC   C39 4478   3.328   2.495   9.072 -0.1757  0.2943  0.3937
   33POPC   H9X 4479   3.328   2.421   8.989  1.0402 -1.5185  1.9848
   33POPC   H9Y 4480   3.435   2.509   9.098  0.0806  0.3673 -0.6495
   33POPC  C310 4481   3.289   2.629   9.010  0.1178 -0.2271 -0.3134
   33POPC  H10X 4482   3.282   2.705   9.091  0.1317 -0.5583 -0.0010
   33POPC  H10Y 4483   3.188   2.636   8.963 -0.5691 -0.2098  1.1447
   33POPC  C311 4484   3.384   2.695   8.897  0.1610 -0.2355  0.2140
   33POPC  H11X 4485   3.359   2.639   8.803  0.5431  1.0559 -0.6727
   33POPC  H11Y 4486   3.491   2.675   8.915  0.2459  0.5145  0.5221
   33POPC  C312 4487   3.343   2.841   8.864  0.3649  0.6249 -0.3743
   33POPC  H12X 4488   3.371   2.920   8.937  2.0946 -0.3035 -0.0052
   33POPC  H12Y 4489   3.236   2.844   8.833  0.4953  0.4849 -0.8444
   33POPC  C313 4490   3.422   2.889   8.740 -0.0284  0.1872 -0.0326
   33POPC  H13X 4491   3.456   2.801   8.681  0.5751  1.5112 -1.7283
   33POPC  H13Y 4492   3.514   2.942   8.772  0.1751 -1.1347  1.6006
   33POPC  C314 4493   3.349   2.989   8.654 -0.1060 -0.7679  0.3140
   33POPC  H14X 4494   3.304   3.066   8.721  4.7147  2.6086 -0.1547
   33POPC  H14Y 4495   3.279   2.935   8.586  1.1214 -1.3241 -0.5077
   33POPC  C315 4496   3.452   3.067   8.574  0.2219  0.1875  0.7446
   33POPC  H15X 4497   3.518   3.007   8.508  0.9033  0.1460  1.4478
   33POPC  H15Y 4498   3.517   3.131   8.638  0.8879  0.9303 -0.6345
   33POPC  C316 4499   3.377   3.170   8.493  0.1974 -0.1702  0.6124
   33POPC  H16X 4500   3.313   3.126   8.413 -1.3983 -0.4221  2.0001
   33POPC  H16Y 4501   3.451   3.234   8.440 -0.2370  1.3608  1.7902
   33POPC  H16Z 4502   3.318   3.241   8.555  0.7470 -0.2009  1.1727
   34POPC     N 4503   2.396   3.575  10.702 -0.3297  0.2351  0.2594
   34POPC   C12 4504   2.422   3.422  10.694 -0.0163 -0.9992  0.4409
   34POPC  H12A 4505   2.411   3.396  10.590  3.2136 -1.6222  0.1933
   34POPC  H12B 4506   2.355   3.364  10.755 -0.8260  1.3580  1.8717
   34POPC   C13 4507   2.495   3.660  10.627 -0.2443 -0.0572 -0.3332
   34POPC  H13A 4508   2.591   3.611  10.625 -0.1438  0.1582 -2.9596
   34POPC  H13B 4509   2.459   3.656  10.525 -0.2760 -0.4170 -0.3118
   34POPC  H13C 4510   2.517   3.760  10.661 -0.2921  0.1309 -0.8535
   34POPC   C14 4511   2.262   3.612  10.651 -0.3504 -0.2207 -0.2230
   34POPC  H14A 4512   2.238   3.574  10.552  0.2206  0.0628 -0.4719
   34POPC  H14B 4513   2.190   3.589  10.728  0.5605  3.7732  1.9874
   34POPC  H14C 4514   2.264   3.719  10.633 -0.8472 -0.1961 -0.1406
   34POPC   C15 4515   2.412   3.624  10.845  0.1322  0.1192  0.2657
   34POPC  H15A 4516   2.509   3.597  10.885 -1.1210 -0.0322  3.3521
   34POPC  H15B 4517   2.337   3.578  10.908 -1.5436 -1.7682 -2.9486
   34POPC  H15C 4518   2.401   3.730  10.863 -0.4189  0.2044 -0.5499
   34POPC   C11 4519   2.567   3.369  10.704 -0.2897 -0.3688  0.1479
   34POPC  H11A 4520   2.575   3.259  10.695 -0.4660 -0.3844  0.1796
   34POPC  H11B 4521   2.603   3.391  10.807  0.3001 -1.4511  0.1805
   34POPC     P 4522   2.801   3.439  10.612 -0.0479 -0.2359  0.0873
   34POPC   O13 4523   2.831   3.462  10.756 -0.6029  0.5525  0.2220
   34POPC   O14 4524   2.829   3.548  10.519 -0.1422  0.0700  0.2753
   34POPC   O12 4525   2.643   3.422  10.600  0.4238 -0.2752 -0.1819
   34POPC   O11 4526   2.865   3.311  10.564 -0.4740  0.5711  0.9547
   34POPC    C1 4527   2.805   3.230  10.456  0.2882 -0.3853  0.3436
   34POPC    HA 4528   2.694   3.233  10.459  0.3128  0.0774  0.8990
   34POPC    HB 4529   2.823   3.122  10.478 -0.1590  0.0121  2.7878
   34POPC    C2 4530   2.852   3.277  10.314  0.1678 -0.4921 -0.0540
   34POPC    HS 4531   2.821   3.382  10.296  0.0454 -0.6685 -0.8963
   34POPC   O21 4532   2.778   3.192  10.222 -0.0896 -0.1715  0.0227
   34POPC   C21 4533   2.754   3.249  10.106 -0.4177 -0.0638 -0.6475
   34POPC   O22 4534   2.778   3.365  10.075 -0.3003  0.1604  0.0943
   34POPC   C22 4535   2.716   3.147   9.998 -0.5304  0.3749  0.3828
   34POPC   H2R 4536   2.609   3.168   9.974 -0.3999  1.8804  1.0631
   34POPC   H2S 4537   2.718   3.048  10.049  0.0814  0.2753  0.1652
   34POPC    C3 4538   3.007   3.272  10.304 -0.6221  0.4673  1.1135
   34POPC    HX 4539   3.043   3.167  10.310  0.9431  0.9467  0.2612
   34POPC    HY 4540   3.044   3.323  10.395 -1.0127 -0.3384  1.7326
   34POPC   O31 4541   3.049   3.321  10.171 -0.7638  0.0803  0.1680
   34POPC   C31 4542   3.039   3.458  10.169 -0.3451 -0.7623 -0.4349
   34POPC   O32 4543   3.016   3.531  10.260  0.0780 -1.4059  0.0152
   34POPC   C32 4544   3.054   3.509  10.030  0.2344 -0.1484 -0.3140
   34POPC   H2X 4545   3.130   3.590  10.034 -0.1181  0.3313 -2.2987
   34POPC   H2Y 4546   2.949   3.536  10.005 -0.4967 -2.1475  0.4990
   34POPC   C23 4547   2.810   3.140   9.873 -0.4009  0.4979  0.3355
   34POPC   H3R 4548   2.786   3.043   9.826  1.6282  0.7951 -1.3595
   34POPC   H3S 4549   2.917   3.149   9.903  0.1452  0.3469 -1.5465
   34POPC   C24 4550   2.766   3.257   9.787  0.2654  0.1215 -0.1071
   34POPC   H4R 4551   2.758   3.356   9.837 -1.5545 -1.0916  2.1207
   34POPC   H4S 4552   2.661   3.244   9.752  0.8765  0.4885 -2.1877
   34POPC   C25 4553   2.854   3.259   9.660 -0.2577  0.0673  0.1607
   34POPC   H5R 4554   2.838   3.165   9.602  1.0228 -0.8387  1.2582
   34POPC   H5S 4555   2.957   3.251   9.701 -0.4140 -0.3987  0.4596
   34POPC   C26 4556   2.825   3.381   9.573  0.1309  1.2433 -0.6078
   34POPC   H6R 4557   2.836   3.476   9.630 -1.6381 -0.1740  2.2473
   34POPC   H6S 4558   2.721   3.377   9.535  0.2569  2.0775 -1.0621
   34POPC   C27 4559   2.924   3.386   9.459  0.3777  0.0264 -0.0084
   34POPC   H7R 4560   2.933   3.287   9.410 -1.5635  0.1138 -0.5678
   34POPC   H7S 4561   3.024   3.400   9.505  0.9830  0.5854 -1.4576
   34POPC   C28 4562   2.902   3.500   9.353 -0.0240  0.1046  0.4779
   34POPC   H8R 4563   2.800   3.515   9.311  0.0766 -0.5023  0.0224
   34POPC   H8S 4564   2.958   3.466   9.263 -2.3162  1.3666 -1.4935
   34POPC   C29 4565   2.935   3.637   9.403 -0.2616  0.4147 -0.3831
   34POPC   H91 4566   2.863   3.668   9.480  0.7419  1.6597  0.0655
   34POPC  C210 4567   3.041   3.717   9.373  0.0881 -0.3457 -0.8438
   34POPC  H101 4568   3.054   3.812   9.427  0.5054 -0.8985  0.0418
   34POPC  C211 4569   3.148   3.690   9.272 -0.3586  0.5227 -0.2380
   34POPC  H11R 4570   3.145   3.591   9.221  2.5559  0.6885 -0.7882
   34POPC  H11S 4571   3.244   3.686   9.326 -0.1815  1.0066 -0.5040
   34POPC  C212 4572   3.151   3.794   9.155  0.6393  0.0084 -0.3713
   34POPC  H12R 4573   3.235   3.765   9.089 -0.6534 -0.1878 -1.9573
   34POPC  H12S 4574   3.165   3.898   9.190 -1.2385 -0.2679  1.3053
   34POPC  C213 4575   3.022   3.781   9.074  0.3557  0.8029  0.0960
   34POPC  H13R 4576   2.929   3.779   9.135  0.7196 -0.8657  0.6265
   34POPC  H13S 4577   3.026   3.675   9.043  0.2948  0.7161  0.3844
   34POPC  C214 4578   3.002   3.875   8.959  0.5188 -0.3626  0.1397
   34POPC  H14R 4579   3.075   3.842   8.882  1.3471  0.5369  0.5151
   34POPC  H14S 4580   3.022   3.983   8.969  0.1525 -0.1342 -1.5291
   34POPC  C215 4581   2.863   3.869   8.895 -0.2234 -0.0377  0.2726
   34POPC  H15R 4582   2.848   3.940   8.811 -1.6532  2.6085  2.6777
   34POPC  H15S 4583   2.789   3.892   8.974 -1.8166 -1.1443 -0.8633
   34POPC  C216 4584   2.838   3.739   8.826  0.4255  0.2181 -0.1870
   34POPC  H16R 4585   2.822   3.662   8.904  1.1096  1.8532  1.6167
   34POPC  H16S 4586   2.927   3.702   8.770  1.8161  0.0391  2.0970
   34POPC  C217 4587   2.703   3.743   8.748 -0.4512  0.1915 -0.1309
   34POPC  H17R 4588   2.621   3.780   8.813 -0.0872  0.4683  0.1793
   34POPC  H17S 4589   2.676   3.639   8.720 -0.0387  0.0032  0.1628
   34POPC  C218 4590   2.708   3.819   8.617  0.2810  0.2579  0.1140
   34POPC  H18R 4591   2.723   3.929   8.622 -1.4128  0.4953  0.2380
   34POPC  H18S 4592   2.622   3.806   8.548  0.9928  0.5103 -0.8325
   34POPC  H18T 4593   2.799   3.786   8.562  0.8629 -1.4570  2.0775
   34POPC   C33 4594   3.108   3.404   9.928  0.2910 -1.0810  0.0461
   34POPC   H3X 4595   3.034   3.322   9.915 -2.0180  0.5013  2.6539
   34POPC   H3Y 4596   3.207   3.363   9.956  0.3754 -2.0585 -1.6242
   34POPC   C34 4597   3.129   3.471   9.792 -0.0222  0.2545  0.2331
   34POPC   H4X 4598   3.054   3.548   9.765  1.1033  1.5869  0.8096
   34POPC   H4Y 4599   3.129   3.399   9.708  0.1393 -0.6446  1.0001
   34POPC   C35 4600   3.264   3.540   9.804  0.1093  0.0550  0.0317
   34POPC   H5X 4601   3.344   3.467   9.830 -0.0896 -0.0032  0.4832
   34POPC   H5Y 4602   3.269   3.616   9.885 -0.7868  0.2022 -0.0548
   34POPC   C36 4603   3.302   3.619   9.682  0.3269  0.3419  0.0612
   34POPC   H6X 4604   3.227   3.699   9.665 -0.7796 -0.8875 -0.9188
   34POPC   H6Y 4605   3.310   3.558   9.590 -0.2346  1.9476 -1.0807
   34POPC   C37 4606   3.446   3.681   9.692 -0.0764  0.4725  0.0446
   34POPC   H7X 4607   3.517   3.600   9.720 -2.2046 -1.7137 -0.7691
   34POPC   H7Y 4608   3.453   3.742   9.784 -0.1552 -1.2806  1.2298
   34POPC   C38 4609   3.503   3.755   9.571 -0.0420  0.0676 -0.3588
   34POPC   H8X 4610   3.501   3.679   9.490  0.6950 -0.3583  0.0257
   34POPC   H8Y 4611   3.610   3.782   9.579  0.0255 -0.2928 -0.0457
   34POPC   C39 4612   3.427   3.883   9.528  0.4187 -0.0687 -0.1707
   34POPC   H9X 4613   3.445   3.967   9.598 -0.1220  0.0266 -0.1431
   34POPC   H9Y 4614   3.316   3.875   9.534  0.1915  1.4182 -2.1401
   34POPC  C310 4615   3.460   3.920   9.387  0.3286 -0.1404 -0.1618
   34POPC  H10X 4616   3.396   3.852   9.327 -0.3567  1.0784 -0.8256
   34POPC  H10Y 4617   3.568   3.915   9.360  0.2883  0.6165 -0.4582
   34POPC  C311 4618   3.421   4.067   9.353 -0.1009 -0.5389 -0.2440
   34POPC  H11X 4619   3.492   4.121   9.419 -1.3880 -0.6929  1.2934
   34POPC  H11Y 4620   3.321   4.101   9.387  0.3799  0.7877 -0.1328
   34POPC  C312 4621   3.449   4.092   9.211  0.6639 -0.2056  1.0737
   34POPC  H12X 4622   3.404   4.012   9.149  0.7723  2.1301 -2.1542
   34POPC  H12Y 4623   3.559   4.077   9.205  0.7628  1.0802 -0.9292
   34POPC  C313 4624   3.425   4.238   9.169 -0.0719 -0.0107 -0.0383
   34POPC  H13X 4625   3.501   4.307   9.212  0.8830 -0.8347 -0.3850
   34POPC  H13Y 4626   3.325   4.280   9.193 -1.3842 -1.7263 -2.2583
   34POPC  C314 4627   3.442   4.258   9.014 -0.0707 -0.2566  0.1530
   34POPC  H14X 4628   3.371   4.188   8.964  0.3641 -0.3382 -0.3547
   34POPC  H14Y 4629   3.550   4.237   8.994  0.1782  1.4178 -0.3443
   34POPC  C315 4630   3.402   4.397   8.974  0.1698  0.4976 -0.6212
   34POPC  H15X 4631   3.462   4.471   9.032 -0.0949  0.3732 -0.1809
   34POPC  H15Y 4632   3.294   4.403   9.001  0.0591  0.0022 -0.9439
   34POPC  C316 4633   3.403   4.415   8.826  0.2765 -1.2380 -0.6425
   34POPC  H16X 4634   3.364   4.329   8.768 -0.4758 -0.6787 -0.9667
   34POPC  H16Y 4635   3.506   4.428   8.785  0.4471  0.2894  0.2330
   34POPC  H16Z 4636   3.341   4.504   8.804  1.1160 -0.2178  0.9496
   35POPC     N 4637   3.147   6.687  10.837 -0.5171  0.2977  0.7443
   35POPC   C12 4638   3.089   6.790  10.930  0.9339  0.0696  0.1237
   35POPC  H12A 4639   3.026   6.745  11.005  3.0661  1.2457  2.6908
   35POPC  H12B 4640   3.032   6.869  10.882  1.0344  0.1218  0.0914
   35POPC   C13 4641   3.238   6.744  10.733 -0.3314 -0.2348 -1.0179
   35POPC  H13A 4642   3.284   6.661  10.681 -2.1061 -0.6587 -1.9654
   35POPC  H13B 4643   3.183   6.803  10.662  0.5534  2.1453  0.2146
   35POPC  H13C 4644   3.318   6.810  10.763 -0.8339 -0.2030  0.3272
   35POPC   C14 4645   3.233   6.596  10.913 -0.0308  0.2168  0.3660
   35POPC  H14A 4646   3.304   6.655  10.969  0.1212 -0.1928  0.6090
   35POPC  H14B 4647   3.174   6.537  10.981  0.1767  1.1493  1.3588
   35POPC  H14C 4648   3.302   6.539  10.852  0.7805  0.3960  1.1174
   35POPC   C15 4649   3.036   6.606  10.767  1.3279 -0.2350 -0.3922
   35POPC  H15A 4650   2.991   6.535  10.835 -3.4220  3.2019  0.2927
   35POPC  H15B 4651   3.085   6.548  10.690  2.8754 -1.0988  1.1869
   35POPC  H15C 4652   2.952   6.663  10.731  0.1808 -1.5822  0.0896
   35POPC   C11 4653   3.191   6.862  11.014 -0.2635 -0.3461  0.5150
   35POPC  H11A 4654   3.271   6.901  10.947 -2.0721 -0.8510 -2.0599
   35POPC  H11B 4655   3.235   6.784  11.079 -1.6814 -0.8488  0.8886
   35POPC     P 4656   3.190   7.110  11.116  0.2099 -0.4709 -0.6568
   35POPC   O13 4657   3.337   7.106  11.130  0.3250 -0.3036 -0.1397
   35POPC   O14 4658   3.119   7.172  11.229  0.7107  0.4266  0.6317
   35POPC   O12 4659   3.134   6.963  11.101  0.0064  0.7680 -0.0313
   35POPC   O11 4660   3.159   7.176  10.983 -0.0399  0.6356  0.0998
   35POPC    C1 4661   3.041   7.237  10.946 -0.2760  0.1372  0.9548
   35POPC    HA 4662   3.060   7.341  10.909  1.2078 -0.5513 -0.2829
   35POPC    HB 4663   2.969   7.242  11.030  1.3497 -1.6163  2.5040
   35POPC    C2 4664   2.980   7.156  10.827 -0.4655  0.8648 -0.2560
   35POPC    HS 4665   2.993   7.049  10.851  0.3771  0.7111 -1.3636
   35POPC   O21 4666   3.042   7.193  10.704 -0.1694 -0.2587 -0.0162
   35POPC   C21 4667   3.087   7.091  10.635  0.1465 -0.6447  0.2663
   35POPC   O22 4668   3.065   6.973  10.655 -0.2315 -0.0233  0.2398
   35POPC   C22 4669   3.161   7.146  10.513 -0.2888  0.5159 -0.0236
   35POPC   H2R 4670   3.230   7.066  10.480  1.6458  2.1334  0.0312
   35POPC   H2S 4671   3.232   7.222  10.551 -0.6323  0.0231  1.6448
   35POPC    C3 4672   2.830   7.180  10.814 -0.3762 -0.2640 -0.0425
   35POPC    HX 4673   2.814   7.289  10.810  2.0213  0.0505 -2.6710
   35POPC    HY 4674   2.771   7.149  10.903  0.6677 -3.3065 -0.3567
   35POPC   O31 4675   2.763   7.123  10.698  0.4199 -0.5184  0.4905
   35POPC   C31 4676   2.716   7.002  10.721  0.7149 -0.5845  0.0778
   35POPC   O32 4677   2.739   6.930  10.824 -0.5004  0.4954  1.0341
   35POPC   C32 4678   2.626   6.957  10.604 -0.1655 -0.2155 -0.4385
   35POPC   H2X 4679   2.610   7.046  10.540 -0.2386 -0.9756 -1.4900
   35POPC   H2Y 4680   2.530   6.922  10.647  1.2986 -0.1662  3.0287
   35POPC   C23 4681   3.073   7.206  10.395  0.1819 -0.5491 -1.4177
   35POPC   H3R 4682   3.140   7.266  10.328  0.8157  0.4636  0.1016
   35POPC   H3S 4683   3.011   7.281  10.448  1.2509 -2.3334  2.5257
   35POPC   C24 4684   3.006   7.092  10.315  0.1043 -0.6381  0.4220
   35POPC   H4R 4685   2.933   7.047  10.386  0.6635 -0.1255  1.3441
   35POPC   H4S 4686   3.081   7.013  10.291  0.5146 -0.0846 -0.1440
   35POPC   C25 4687   2.940   7.135  10.181 -0.0922 -0.0510  0.5136
   35POPC   H5R 4688   2.847   7.189  10.207  0.9286  1.1012  1.8395
   35POPC   H5S 4689   2.906   7.041  10.131 -0.3230 -0.1957  0.9413
   35POPC   C26 4690   3.029   7.206  10.084  0.6775  0.4205  0.4761
   35POPC   H6R 4691   3.106   7.137  10.044 -0.4261 -0.9469  0.6785
   35POPC   H6S 4692   3.078   7.290  10.137  1.9572  0.7838 -1.2365
   35POPC   C27 4693   2.944   7.246   9.965  0.1344 -0.3335  0.2896
   35POPC   H7R 4694   2.863   7.314  10.000  2.0022  2.0964 -0.0115
   35POPC   H7S 4695   2.896   7.152   9.930 -0.0547 -0.5579  1.1381
   35POPC   C28 4696   3.033   7.324   9.861  0.5857 -0.6314  0.4134
   35POPC   H8R 4697   3.115   7.255   9.832  1.8386  0.7123  0.6215
   35POPC   H8S 4698   3.072   7.407   9.924 -0.2798 -0.2049  0.3984
   35POPC   C29 4699   2.952   7.380   9.744  0.0120 -0.1163 -0.3647
   35POPC   H91 4700   2.893   7.470   9.765  0.3969 -0.0094  0.2678
   35POPC  C210 4701   2.956   7.345   9.616  0.6859  0.2794 -0.3452
   35POPC  H101 4702   2.887   7.394   9.547  2.4455  3.9172  0.3613
   35POPC  C211 4703   3.023   7.227   9.550  0.2348 -1.0753 -0.1427
   35POPC  H11R 4704   3.016   7.131   9.605 -1.0549  0.4194  2.4306
   35POPC  H11S 4705   3.131   7.251   9.547  0.6163 -2.8833 -0.9438
   35POPC  C212 4706   2.962   7.205   9.412 -0.1550  0.2168  0.1567
   35POPC  H12R 4707   2.852   7.202   9.423 -0.1526  1.0048  0.4597
   35POPC  H12S 4708   3.001   7.104   9.389  2.1329  1.6323 -2.5157
   35POPC  C213 4709   3.014   7.300   9.301 -0.3329 -0.0920  0.2931
   35POPC  H13R 4710   3.124   7.310   9.289 -0.8491  1.1642 -4.5173
   35POPC  H13S 4711   2.994   7.405   9.332  0.0335 -0.0554  0.4109
   35POPC  C214 4712   2.953   7.282   9.163 -0.0204  0.6919 -0.0884
   35POPC  H14R 4713   2.938   7.175   9.139 -0.8954  0.4534  1.4911
   35POPC  H14S 4714   3.018   7.329   9.086  1.7851 -1.9736 -0.2148
   35POPC  C215 4715   2.815   7.347   9.142  0.4763 -0.2408  0.8993
   35POPC  H15R 4716   2.825   7.452   9.179 -0.9741 -0.3766  1.7016
   35POPC  H15S 4717   2.747   7.291   9.209 -2.1010 -0.2624 -1.6590
   35POPC  C216 4718   2.763   7.328   8.995  0.8128  0.1771 -0.1080
   35POPC  H16R 4719   2.743   7.219   9.000  1.3928  0.1014  0.5045
   35POPC  H16S 4720   2.852   7.350   8.933  1.1617 -0.4276  0.1775
   35POPC  C217 4721   2.649   7.423   8.962  0.5830  0.9354 -0.2505
   35POPC  H17R 4722   2.677   7.525   8.998  0.3700  0.5099  1.1566
   35POPC  H17S 4723   2.559   7.390   9.018  0.8223  2.4725  1.0992
   35POPC  C218 4724   2.622   7.416   8.815 -0.4399 -0.2319 -0.5277
   35POPC  H18R 4725   2.568   7.321   8.793 -0.9194 -0.7029  2.4687
   35POPC  H18S 4726   2.717   7.421   8.758 -0.9019  1.3612 -1.1982
   35POPC  H18T 4727   2.550   7.491   8.775 -3.9777 -3.2016 -0.0567
   35POPC   C33 4728   2.694   6.842  10.526 -0.2486  0.1104 -0.3163
   35POPC   H3X 4729   2.696   6.751  10.590 -0.1352  0.3823  0.0701
   35POPC   H3Y 4730   2.802   6.867  10.519  0.5113 -2.7398  0.5184
   35POPC   C34 4731   2.644   6.792  10.389 -0.1180 -0.6383 -0.4708
   35POPC   H4X 4732   2.537   6.765  10.401 -0.1248 -0.1250  0.6458
   35POPC   H4Y 4733   2.692   6.697  10.357 -1.1822 -1.1543 -0.5823
   35POPC   C35 4734   2.652   6.896  10.284  0.1174  0.2318  0.2675
   35POPC   H5X 4735   2.756   6.931  10.265  0.1917 -0.0554  0.1316
   35POPC   H5Y 4736   2.578   6.969  10.322 -0.9874 -1.5577  1.6754
   35POPC   C36 4737   2.616   6.832  10.152  0.6225 -0.8956 -0.1170
   35POPC   H6X 4738   2.535   6.756  10.160 -2.1921  1.9145 -0.8989
   35POPC   H6Y 4739   2.701   6.771  10.115  1.5190 -0.6614  1.5066
   35POPC   C37 4740   2.573   6.924  10.036  0.0133  0.3756 -0.2397
   35POPC   H7X 4741   2.639   7.007  10.001  0.0781 -0.4652 -2.2020
   35POPC   H7Y 4742   2.479   6.973  10.067 -0.2642 -1.2397  1.5501
   35POPC   C38 4743   2.556   6.854   9.899 -0.0381 -0.2272 -0.0934
   35POPC   H8X 4744   2.467   6.787   9.908  0.4738 -0.7733  0.9354
   35POPC   H8Y 4745   2.649   6.801   9.870  1.1442  0.9060  1.5439
   35POPC   C39 4746   2.518   6.956   9.789  0.0547  0.3445 -0.6057
   35POPC   H9X 4747   2.591   7.040   9.789  0.4536  0.0085 -1.8242
   35POPC   H9Y 4748   2.423   7.005   9.820  1.6602  3.1115  0.0966
   35POPC  C310 4749   2.510   6.900   9.654  0.0283  0.5414  0.5070
   35POPC  H10X 4750   2.426   6.827   9.656  0.3081  0.2298  1.0249
   35POPC  H10Y 4751   2.606   6.848   9.637 -0.0223  1.1283 -1.7248
   35POPC  C311 4752   2.506   7.001   9.538  1.0499  0.4651  0.2510
   35POPC  H11X 4753   2.516   6.951   9.439  3.8337 -3.5996  2.4508
   35POPC  H11Y 4754   2.601   7.056   9.551  2.7205 -1.8723 -1.5137
   35POPC  C312 4755   2.389   7.103   9.531 -0.0458 -0.5279 -0.5679
   35POPC  H12X 4756   2.407   7.153   9.629 -0.3455  0.4231 -0.9942
   35POPC  H12Y 4757   2.286   7.062   9.524 -0.0810 -0.1417 -2.5362
   35POPC  C313 4758   2.410   7.210   9.422  0.1340 -0.3838  0.3701
   35POPC  H13X 4759   2.366   7.179   9.325 -1.9668  0.3117  1.0675
   35POPC  H13Y 4760   2.519   7.225   9.408  0.1473 -0.2152  0.6686
   35POPC  C314 4761   2.342   7.353   9.455 -0.5387  0.8609  0.2946
   35POPC  H14X 4762   2.319   7.397   9.355 -2.5913 -1.5471 -0.3350
   35POPC  H14Y 4763   2.413   7.409   9.519  0.4371 -0.2977  0.2490
   35POPC  C315 4764   2.209   7.353   9.528 -0.1037  0.1796 -0.2308
   35POPC  H15X 4765   2.173   7.457   9.544  1.3433  0.6505  0.0764
   35POPC  H15Y 4766   2.227   7.317   9.632  0.0230 -0.3323 -0.4305
   35POPC  C316 4767   2.088   7.286   9.456 -0.1877 -0.0843 -0.1140
   35POPC  H16X 4768   1.998   7.274   9.520  1.0114 -0.8854  1.4415
   35POPC  H16Y 4769   2.113   7.184   9.421  0.2042 -0.0833  0.1588
   35POPC  H16Z 4770   2.065   7.353   9.370  1.0142 -0.9529 -1.1233
   36POPC     N 4771   2.707   5.582  10.635  0.1247 -0.0962 -0.5760
   36POPC   C12 4772   2.647   5.717  10.617 -0.1639 -0.4024  0.1486
   36POPC  H12A 4773   2.564   5.705  10.548  0.0334  0.3002 -0.2118
   36POPC  H12B 4774   2.715   5.785  10.569  2.2800 -1.8913  1.4389
   36POPC   C13 4775   2.830   5.595  10.721  0.0470 -0.1824 -0.4004
   36POPC  H13A 4776   2.874   5.498  10.735 -1.7658 -1.2422 -1.7485
   36POPC  H13B 4777   2.905   5.653  10.670  0.3034 -1.7746 -1.8860
   36POPC  H13C 4778   2.814   5.634  10.820  2.6941  0.3164 -0.1187
   36POPC   C14 4779   2.604   5.488  10.686  0.3618 -0.1668  0.1076
   36POPC  H14A 4780   2.576   5.509  10.789  1.1548  1.9539 -0.0781
   36POPC  H14B 4781   2.512   5.478  10.631  0.0562  0.8087  0.4378
   36POPC  H14C 4782   2.650   5.390  10.687  0.3293 -0.1809  0.7235
   36POPC   C15 4783   2.757   5.534  10.504  0.2932 -0.4115  0.0048
   36POPC  H15A 4784   2.823   5.606  10.457 -2.5550  1.5315 -1.1109
   36POPC  H15B 4785   2.679   5.500  10.438  0.1390  1.0970 -0.6007
   36POPC  H15C 4786   2.811   5.442  10.523  0.0690 -0.5491 -0.0242
   36POPC   C11 4787   2.588   5.781  10.739  0.0135 -0.1338  0.0835
   36POPC  H11A 4788   2.513   5.715  10.787 -0.9823  0.9209 -0.0027
   36POPC  H11B 4789   2.526   5.863  10.699 -0.3656 -1.6930 -2.6426
   36POPC     P 4790   2.792   5.929  10.819 -0.5007  0.0820  0.0032
   36POPC   O13 4791   2.913   5.854  10.861  0.0354 -0.5894  0.3467
   36POPC   O14 4792   2.764   6.056  10.890  0.5530 -0.1385 -0.2731
   36POPC   O12 4793   2.685   5.827  10.838  1.3099 -0.2807 -0.0463
   36POPC   O11 4794   2.795   5.954  10.666 -0.3414 -0.3600 -0.4965
   36POPC    C1 4795   2.727   6.073  10.609 -0.8281  0.3316 -0.5414
   36POPC    HA 4796   2.788   6.166  10.603  0.2599 -0.1917  1.6595
   36POPC    HB 4797   2.632   6.095  10.663 -0.6549 -1.0652  0.3679
   36POPC    C2 4798   2.667   6.041  10.472 -0.3222 -0.4576 -0.0836
   36POPC    HS 4799   2.597   5.955  10.477  1.5160 -2.1233 -2.0867
   36POPC   O21 4800   2.770   6.026  10.377  0.0465  0.2940  0.2210
   36POPC   C21 4801   2.811   5.908  10.342  0.6563  0.9346  0.7973
   36POPC   O22 4802   2.763   5.805  10.385  0.8056 -0.2753  0.1557
   36POPC   C22 4803   2.920   5.916  10.236 -0.2703 -0.1681 -0.2217
   36POPC   H2R 4804   3.014   5.941  10.290  0.2437 -0.7042 -0.8633
   36POPC   H2S 4805   2.901   5.997  10.163  0.9179 -0.2099 -0.5867
   36POPC    C3 4806   2.572   6.145  10.421  0.0823  0.3985 -0.5201
   36POPC    HX 4807   2.619   6.244  10.437  0.7553  0.3332 -2.0393
   36POPC    HY 4808   2.479   6.142  10.482  0.8372 -2.3790  0.6195
   36POPC   O31 4809   2.536   6.126  10.279 -0.4024  0.2510 -0.5535
   36POPC   C31 4810   2.459   6.025  10.257  0.5317 -0.2160 -0.1320
   36POPC   O32 4811   2.415   5.951  10.344  0.1460 -0.1424 -0.5888
   36POPC   C32 4812   2.435   6.019  10.110 -0.0184 -0.0677  0.6519
   36POPC   H2X 4813   2.374   6.107  10.080  0.8325  0.4066  0.2837
   36POPC   H2Y 4814   2.367   5.932  10.097 -0.2623  0.3631 -1.0513
   36POPC   C23 4815   2.938   5.776  10.157  0.0047 -0.1984 -0.2923
   36POPC   H3R 4816   2.840   5.729  10.134  0.6451 -2.0100  0.6072
   36POPC   H3S 4817   3.001   5.709  10.220  0.4677 -1.8896 -2.4945
   36POPC   C24 4818   3.019   5.793  10.025 -0.3037 -0.0885 -0.5701
   36POPC   H4R 4819   3.051   5.693   9.989 -0.8897 -0.3509 -0.3720
   36POPC   H4S 4820   3.120   5.837  10.031 -0.5146  0.5869 -1.7024
   36POPC   C25 4821   2.942   5.862   9.909 -0.2877 -0.2876  0.0008
   36POPC   H5R 4822   2.936   5.968   9.942  0.3531 -0.5928  1.1250
   36POPC   H5S 4823   2.838   5.824   9.909 -0.5599  0.4681 -0.6031
   36POPC   C26 4824   3.014   5.834   9.774  0.6528 -0.0320 -0.4939
   36POPC   H6R 4825   2.986   5.729   9.749  1.1933 -0.7779  1.9371
   36POPC   H6S 4826   3.122   5.845   9.795  0.1437  1.1474  1.6785
   36POPC   C27 4827   2.972   5.933   9.665 -0.5235  0.1854 -0.1211
   36POPC   H7R 4828   3.021   6.031   9.681 -0.9083 -0.0588  2.8436
   36POPC   H7S 4829   2.862   5.950   9.671 -0.5992 -0.2452 -0.2363
   36POPC   C28 4830   3.013   5.878   9.526 -0.0413  0.2310  0.3263
   36POPC   H8R 4831   2.979   5.958   9.456  1.2714  0.2601 -0.2947
   36POPC   H8S 4832   2.952   5.787   9.512  2.4999 -1.4055 -0.3807
   36POPC   C29 4833   3.161   5.855   9.514 -0.4620  0.4897 -0.1730
   36POPC   H91 4834   3.215   5.855   9.610  0.6930 -1.0252 -0.8172
   36POPC  C210 4835   3.211   5.804   9.399  0.6791  0.4070 -0.2835
   36POPC  H101 4836   3.319   5.791   9.385  0.0025 -3.7256 -2.1361
   36POPC  C211 4837   3.140   5.773   9.274 -0.3407  0.0078  0.9176
   36POPC  H11R 4838   3.033   5.804   9.284 -0.4530  0.3505 -1.2613
   36POPC  H11S 4839   3.156   5.666   9.252 -0.8081  0.1832 -0.2986
   36POPC  C212 4840   3.191   5.861   9.150  0.2155  0.1274  0.3398
   36POPC  H12R 4841   3.163   5.817   9.052  3.1019 -0.5255 -0.2283
   36POPC  H12S 4842   3.300   5.855   9.135  0.2758  0.2259  0.7329
   36POPC  C213 4843   3.161   6.013   9.162  0.0187 -0.1937 -0.2767
   36POPC  H13R 4844   3.235   6.054   9.234  2.2646 -1.9797 -1.5207
   36POPC  H13S 4845   3.057   6.029   9.199  0.5682 -1.6342  1.9716
   36POPC  C214 4846   3.185   6.097   9.035 -0.4638 -0.4719  0.2245
   36POPC  H14R 4847   3.121   6.061   8.952 -1.4357  0.1486  0.6980
   36POPC  H14S 4848   3.290   6.100   8.999  0.0320  1.3988  1.7078
   36POPC  C215 4849   3.150   6.248   9.051  0.2799  0.7955 -0.3497
   36POPC  H15R 4850   3.207   6.280   9.141 -0.0550 -2.2861  1.0387
   36POPC  H15S 4851   3.045   6.257   9.087 -0.2315  0.6768 -1.7944
   36POPC  C216 4852   3.170   6.351   8.933  0.1147 -0.1691  0.7627
   36POPC  H16R 4853   3.118   6.322   8.840 -2.7530 -1.2184  2.6296
   36POPC  H16S 4854   3.276   6.352   8.898 -0.5249  0.1429 -1.2076
   36POPC  C217 4855   3.145   6.496   8.968 -0.2148 -0.5489  0.1859
   36POPC  H17R 4856   3.210   6.520   9.055 -1.6852  2.4356  0.5442
   36POPC  H17S 4857   3.040   6.511   9.002  0.4214  2.1889  1.0373
   36POPC  C218 4858   3.184   6.587   8.848  0.5068  0.3396  1.1259
   36POPC  H18R 4859   3.190   6.695   8.873  0.7979  0.4172  0.7271
   36POPC  H18S 4860   3.097   6.579   8.780  2.9450  1.8067 -2.2846
   36POPC  H18T 4861   3.269   6.548   8.789 -0.2002  1.4131 -0.6476
   36POPC   C33 4862   2.566   6.014  10.023 -0.2950 -0.5694 -0.2607
   36POPC   H3X 4863   2.631   5.928  10.048  0.4308  0.7375  2.4567
   36POPC   H3Y 4864   2.620   6.109  10.041  2.5556 -2.4803  1.6489
   36POPC   C34 4865   2.549   6.023   9.871 -0.1343  0.0201 -0.5662
   36POPC   H4X 4866   2.450   5.988   9.835  0.2118 -1.5549  0.0012
   36POPC   H4Y 4867   2.606   5.948   9.813 -1.0525 -1.4656  0.4100
   36POPC   C35 4868   2.577   6.164   9.809 -0.3742 -0.1821 -0.5996
   36POPC   H5X 4869   2.650   6.217   9.875 -1.3456 -1.5642  1.6360
   36POPC   H5Y 4870   2.484   6.223   9.821 -0.3069  0.0221 -1.0640
   36POPC   C36 4871   2.616   6.153   9.658 -0.2294  1.1329  0.0692
   36POPC   H6X 4872   2.705   6.087   9.654 -1.9206 -1.4422  3.4323
   36POPC   H6Y 4873   2.655   6.255   9.635  1.2171  0.6347  0.2556
   36POPC   C37 4874   2.508   6.106   9.570  0.0600 -0.3689 -0.2629
   36POPC   H7X 4875   2.411   6.150   9.603  0.4400  1.4019 -1.4302
   36POPC   H7Y 4876   2.511   5.996   9.587  1.0635 -0.6884 -2.3382
   36POPC   C38 4877   2.518   6.136   9.418 -0.5681  0.0873 -0.7387
   36POPC   H8X 4878   2.478   6.240   9.410 -0.2246  0.2744 -0.1129
   36POPC   H8Y 4879   2.453   6.076   9.350  0.0898  0.5513 -1.7854
   36POPC   C39 4880   2.663   6.132   9.364  0.0300 -0.4015 -0.7492
   36POPC   H9X 4881   2.724   6.041   9.380 -0.0260 -0.4462 -0.7860
   36POPC   H9Y 4882   2.726   6.208   9.414 -2.0357  0.5114  0.5675
   36POPC  C310 4883   2.647   6.171   9.220  0.0562 -1.5127 -0.4595
   36POPC  H10X 4884   2.591   6.267   9.209  4.1782  1.1975  0.7330
   36POPC  H10Y 4885   2.580   6.102   9.166 -2.6021  1.4461 -1.0711
   36POPC  C311 4886   2.784   6.194   9.158  0.2632  0.7081 -0.2627
   36POPC  H11X 4887   2.858   6.132   9.214 -0.7335  0.3092  0.6259
   36POPC  H11Y 4888   2.808   6.302   9.158  0.9435  0.5610  0.2016
   36POPC  C312 4889   2.788   6.139   9.010 -1.0928 -0.2040  0.0133
   36POPC  H12X 4890   2.756   6.033   9.013  0.3978 -0.7668 -2.6316
   36POPC  H12Y 4891   2.894   6.143   8.977 -0.9038 -1.1985  0.4893
   36POPC  C313 4892   2.693   6.210   8.909 -0.4916  0.1061  0.2205
   36POPC  H13X 4893   2.592   6.179   8.945 -1.2056  2.4186  0.3538
   36POPC  H13Y 4894   2.709   6.162   8.811 -0.7250 -0.8641  0.6569
   36POPC  C314 4895   2.682   6.362   8.904  0.8744 -0.4585 -0.3542
   36POPC  H14X 4896   2.790   6.386   8.892  0.7708 -0.5080 -1.3485
   36POPC  H14Y 4897   2.632   6.406   8.993  3.5436 -1.5282  1.7442
   36POPC  C315 4898   2.591   6.417   8.787  1.6631 -0.0576 -0.6274
   36POPC  H15X 4899   2.603   6.354   8.696  1.2163 -2.0988  0.6964
   36POPC  H15Y 4900   2.630   6.519   8.769 -1.1975  1.2609  0.3668
   36POPC  C316 4901   2.438   6.424   8.815 -0.3319 -0.5474  0.5966
   36POPC  H16X 4902   2.397   6.484   8.731  0.5125  0.1902  0.6994
   36POPC  H16Y 4903   2.421   6.480   8.910 -2.1028  1.0309 -0.6107
   36POPC  H16Z 4904   2.396   6.323   8.836 -0.4013 -0.2104  2.1377
   37POPC     N 4905   1.907   2.080   6.534 -0.2595 -0.5792 -0.1596
   37POPC   C12 4906   1.796   2.185   6.500 -0.1335  0.3383 -0.0938
   37POPC  H12A 4907   1.842   2.261   6.440  1.3765 -1.2087 -0.9521
   37POPC  H12B 4908   1.761   2.222   6.595 -0.2803 -1.6318  0.6516
   37POPC   C13 4909   1.856   1.967   6.603  0.0419 -0.3077 -0.8157
   37POPC  H13A 4910   1.924   1.884   6.617  0.7220  0.4150  0.1673
   37POPC  H13B 4911   1.814   1.998   6.697  2.9894 -0.4857  0.6265
   37POPC  H13C 4912   1.768   1.937   6.548 -0.5455 -0.2271  0.0755
   37POPC   C14 4913   1.969   2.046   6.401  0.0579 -0.2018  0.4755
   37POPC  H14A 4914   1.986   2.136   6.344 -2.5120 -1.6951 -2.7787
   37POPC  H14B 4915   2.058   1.987   6.414  0.8163  0.9896  0.8131
   37POPC  H14C 4916   1.903   1.987   6.340  1.2897 -0.2543 -0.8381
   37POPC   C15 4917   2.012   2.145   6.614  0.1385  0.0576  0.1686
   37POPC  H15A 4918   2.055   2.235   6.573  2.3076 -1.0985 -0.1516
   37POPC  H15B 4919   2.089   2.071   6.630  1.1744  1.3825  1.4885
   37POPC  H15C 4920   1.972   2.170   6.712 -0.0179  1.0178 -0.1355
   37POPC   C11 4921   1.675   2.136   6.417 -0.0933  0.5617  0.0931
   37POPC  H11A 4922   1.708   2.098   6.318  0.1226 -0.1678  0.4394
   37POPC  H11B 4923   1.607   2.219   6.387  0.4996  0.2156 -2.3401
   37POPC     P 4924   1.520   2.078   6.618 -0.1137  0.1167 -0.1385
   37POPC   O13 4925   1.379   2.105   6.580  0.6184  0.1488  0.1486
   37POPC   O14 4926   1.591   2.178   6.700 -0.6012  0.4780  0.4836
   37POPC   O12 4927   1.598   2.037   6.488  0.3200 -0.0091  0.2606
   37POPC   O11 4928   1.539   1.942   6.698  0.3312  0.0669 -0.0917
   37POPC    C1 4929   1.428   1.903   6.783  0.4046 -0.1490  0.1665
   37POPC    HA 4930   1.456   1.805   6.829  2.0661  0.4457  0.4589
   37POPC    HB 4931   1.331   1.882   6.733 -0.0287 -0.4129  1.1193
   37POPC    C2 4932   1.391   2.000   6.891 -0.9697 -0.3810  0.8643
   37POPC    HS 4933   1.343   2.089   6.844  0.3968 -0.9711 -1.7300
   37POPC   O21 4934   1.507   2.039   6.965  0.5756  0.5924  0.6262
   37POPC   C21 4935   1.495   2.161   7.025  0.1676  0.5667  0.3792
   37POPC   O22 4936   1.419   2.245   6.989 -0.2147 -0.3406  0.6160
   37POPC   C22 4937   1.585   2.169   7.149 -0.4397  0.2640 -0.7194
   37POPC   H2R 4938   1.533   2.249   7.205 -0.7888  0.8879 -1.9145
   37POPC   H2S 4939   1.684   2.198   7.107  0.8066 -2.1724  0.4202
   37POPC    C3 4940   1.290   1.949   6.988  0.6907 -0.4065  0.1329
   37POPC    HX 4941   1.342   1.869   7.046  2.8986 -0.0044 -1.2606
   37POPC    HY 4942   1.205   1.893   6.943  0.7200  0.9066 -1.5982
   37POPC   O31 4943   1.249   2.048   7.088  0.5302 -0.2958 -0.6351
   37POPC   C31 4944   1.151   2.115   7.048  0.5380 -1.4753  0.5738
   37POPC   O32 4945   1.093   2.105   6.939 -0.4738  0.0998 -0.2140
   37POPC   C32 4946   1.097   2.206   7.153 -0.5213 -0.0424  0.0458
   37POPC   H2X 4947   1.016   2.268   7.110 -0.9331 -0.1314  0.6915
   37POPC   H2Y 4948   1.182   2.272   7.180 -1.8391  0.6227  2.7244
   37POPC   C23 4949   1.579   2.040   7.241 -0.4984  0.9221 -0.8428
   37POPC   H3R 4950   1.647   1.962   7.201  2.2851  3.0236 -0.3582
   37POPC   H3S 4951   1.473   2.009   7.236 -0.7379  1.5425  0.3179
   37POPC   C24 4952   1.603   2.092   7.385 -0.7510 -0.3302  0.0879
   37POPC   H4R 4953   1.666   2.184   7.381  1.2932 -1.7514 -1.3673
   37POPC   H4S 4954   1.654   2.009   7.438  0.2549 -0.3000 -0.8191
   37POPC   C25 4955   1.468   2.122   7.459  0.5695 -0.1551  0.5527
   37POPC   H5R 4956   1.424   2.027   7.496  0.4522 -0.8445 -1.3298
   37POPC   H5S 4957   1.396   2.172   7.390  0.9934 -0.2224  0.0607
   37POPC   C26 4958   1.486   2.200   7.593  0.3479  0.2429  0.8204
   37POPC   H6R 4959   1.508   2.304   7.561 -1.5222  0.2202 -0.6882
   37POPC   H6S 4960   1.572   2.171   7.657  0.5517  1.4907  1.1350
   37POPC   C27 4961   1.351   2.196   7.672 -0.1178 -0.0884 -0.3548
   37POPC   H7R 4962   1.324   2.091   7.696 -0.0985 -0.0015  0.0479
   37POPC   H7S 4963   1.271   2.229   7.602 -1.6763 -2.2201  0.3902
   37POPC   C28 4964   1.355   2.285   7.795  1.0880 -0.3475  0.2370
   37POPC   H8R 4965   1.262   2.303   7.853 -0.1585 -0.6309 -1.6447
   37POPC   H8S 4966   1.369   2.385   7.748 -2.2246 -0.4099 -1.0313
   37POPC   C29 4967   1.470   2.255   7.885  0.7950 -0.0254  1.0430
   37POPC   H91 4968   1.563   2.301   7.848  0.8274 -1.0805 -0.2077
   37POPC  C210 4969   1.465   2.191   8.005  0.4749  0.2186  0.0386
   37POPC  H101 4970   1.557   2.161   8.058 -0.3965 -0.0934  1.3991
   37POPC  C211 4971   1.343   2.127   8.068  0.2093 -0.5933 -0.2750
   37POPC  H11R 4972   1.253   2.162   8.012  0.0564  2.0760  1.5826
   37POPC  H11S 4973   1.329   2.182   8.163  1.4540 -0.6243 -0.0734
   37POPC  C212 4974   1.343   1.977   8.081  0.0572 -0.0100  0.0674
   37POPC  H12R 4975   1.437   1.947   8.131  0.3728 -0.2767 -0.6888
   37POPC  H12S 4976   1.356   1.942   7.977 -1.5827 -0.8110  0.1173
   37POPC  C213 4977   1.223   1.915   8.149  0.4425  0.2102 -0.4697
   37POPC  H13R 4978   1.183   1.825   8.098 -0.7556  1.5817 -1.9950
   37POPC  H13S 4979   1.142   1.989   8.132  1.1622  1.0892 -0.1173
   37POPC  C214 4980   1.243   1.897   8.307  0.4451 -0.5736 -0.8768
   37POPC  H14R 4981   1.247   2.004   8.338 -0.2811 -0.7972  0.0010
   37POPC  H14S 4982   1.340   1.844   8.312  0.9423  0.2167 -1.7975
   37POPC  C215 4983   1.136   1.816   8.377 -0.0393 -0.3208 -0.5177
   37POPC  H15R 4984   1.178   1.775   8.471  0.7528  1.0976 -0.2436
   37POPC  H15S 4985   1.123   1.726   8.313  0.0489 -0.5930 -0.1555
   37POPC  C216 4986   1.002   1.877   8.387 -0.6550  0.0929  0.3895
   37POPC  H16R 4987   0.990   1.988   8.390 -0.0664  0.1444  0.8891
   37POPC  H16S 4988   0.963   1.843   8.485  0.9627 -2.7012  0.0871
   37POPC  C217 4989   0.891   1.822   8.291 -0.1201  0.2110 -0.3214
   37POPC  H17R 4990   0.900   1.712   8.304  1.5045  0.5648  1.6683
   37POPC  H17S 4991   0.915   1.856   8.188  1.3093 -0.2325 -0.1449
   37POPC  C218 4992   0.752   1.881   8.327 -0.4563  0.3756 -0.3548
   37POPC  H18R 4993   0.740   1.848   8.432 -0.1682 -1.1189 -0.7811
   37POPC  H18S 4994   0.670   1.836   8.267  0.6445  0.0081 -1.5871
   37POPC  H18T 4995   0.741   1.992   8.320  0.7205  0.7002  2.2199
   37POPC   C33 4996   1.054   2.141   7.275 -0.2012 -0.4960  0.1697
   37POPC   H3X 4997   1.123   2.065   7.317 -0.9453  0.4419  3.1763
   37POPC   H3Y 4998   0.960   2.083   7.257 -2.0572  1.8555  1.9010
   37POPC   C34 4999   1.013   2.248   7.374 -0.6101  0.6190  1.4400
   37POPC   H4X 5000   0.946   2.316   7.316  0.9291  1.0535  0.1399
   37POPC   H4Y 5001   1.100   2.315   7.392  1.1738 -0.5240 -2.3971
   37POPC   C35 5002   0.936   2.210   7.504 -0.2057 -0.6473  0.2195
   37POPC   H5X 5003   1.000   2.159   7.579 -1.0754 -0.7868  0.8764
   37POPC   H5Y 5004   0.856   2.138   7.475 -0.3731  0.5242 -2.3849
   37POPC   C36 5005   0.874   2.324   7.576 -0.6920 -0.3999  0.5489
   37POPC   H6X 5006   0.806   2.372   7.504  1.1823  0.2497 -0.8330
   37POPC   H6Y 5007   0.954   2.398   7.600 -1.3001  0.4303  0.0110
   37POPC   C37 5008   0.813   2.281   7.712  0.4512 -0.1206  0.0004
   37POPC   H7X 5009   0.736   2.207   7.679  0.2011  0.3075 -0.3841
   37POPC   H7Y 5010   0.765   2.364   7.767 -0.1786 -1.4971  1.5619
   37POPC   C38 5011   0.915   2.236   7.824 -0.2080  0.0971 -0.3025
   37POPC   H8X 5012   1.011   2.284   7.797  1.2318 -2.0125  0.9275
   37POPC   H8Y 5013   0.930   2.129   7.800  0.0422 -0.1319  0.8560
   37POPC   C39 5014   0.874   2.257   7.969  0.2648  0.0305 -0.2712
   37POPC   H9X 5015   0.842   2.362   7.982  0.3530  0.0907 -0.5409
   37POPC   H9Y 5016   0.955   2.247   8.045  0.0251 -0.0434 -0.0252
   37POPC  C310 5017   0.774   2.147   8.002 -0.1446  0.1129  0.2211
   37POPC  H10X 5018   0.819   2.083   8.082 -0.9224  0.6697  1.1139
   37POPC  H10Y 5019   0.753   2.082   7.915 -1.4180 -1.9111  1.9641
   37POPC  C311 5020   0.637   2.195   8.050  0.2363 -0.4443  0.0756
   37POPC  H11X 5021   0.641   2.271   8.131 -1.4927 -1.1442  0.8290
   37POPC  H11Y 5022   0.580   2.109   8.089 -2.1732  0.8465 -0.4835
   37POPC  C312 5023   0.557   2.261   7.935 -0.0993  0.6164  0.2245
   37POPC  H12X 5024   0.587   2.215   7.839 -1.9565 -0.8263  0.3046
   37POPC  H12Y 5025   0.603   2.360   7.916 -0.1277  1.1226  2.6284
   37POPC  C313 5026   0.396   2.257   7.950 -0.3976  0.0624  0.0379
   37POPC  H13X 5027   0.377   2.304   8.049 -0.2098 -1.5265  0.8395
   37POPC  H13Y 5028   0.358   2.153   7.941 -1.7998  0.6463 -0.8939
   37POPC  C314 5029   0.322   2.339   7.852  0.4493 -0.2859  0.0841
   37POPC  H14X 5030   0.362   2.442   7.846  2.0481 -0.9346 -0.6064
   37POPC  H14Y 5031   0.217   2.334   7.889  0.1543 -0.6358 -0.7850
   37POPC  C315 5032   0.313   2.278   7.711 -0.5428  0.7807  0.1464
   37POPC  H15X 5033   0.301   2.169   7.724  0.3023  0.2967 -2.7339
   37POPC  H15Y 5034   0.409   2.295   7.657 -0.6407  0.0298 -0.2741
   37POPC  C316 5035   0.207   2.341   7.611 -0.4416 -0.4239 -0.0124
   37POPC  H16X 5036   0.189   2.273   7.526 -0.1499 -2.5751  1.6033
   37POPC  H16Y 5037   0.247   2.438   7.573 -2.0539  0.0146 -0.5941
   37POPC  H16Z 5038   0.108   2.351   7.660 -0.7937 -1.4083 -0.5173
   38POPC     N 5039   2.479   6.254   6.643 -0.5320 -0.0782 -0.1620
   38POPC   C12 5040   2.451   6.123   6.725  0.2940  0.7285 -0.2006
   38POPC  H12A 5041   2.364   6.075   6.684  0.0240  0.1788  0.9735
   38POPC  H12B 5042   2.439   6.142   6.831  2.1286 -0.1566  0.1989
   38POPC   C13 5043   2.376   6.355   6.664 -0.7890 -0.1979 -0.0934
   38POPC  H13A 5044   2.358   6.382   6.768 -0.0863  0.3744 -0.1149
   38POPC  H13B 5045   2.396   6.449   6.615 -1.7811 -0.3703 -0.8623
   38POPC  H13C 5046   2.285   6.322   6.615 -0.3652 -0.2969 -0.8100
   38POPC   C14 5047   2.609   6.319   6.685 -0.2326 -0.1480  0.5136
   38POPC  H14A 5048   2.686   6.254   6.645 -1.9808 -0.9450 -1.6409
   38POPC  H14B 5049   2.605   6.421   6.650 -0.2937  0.0884  1.2001
   38POPC  H14C 5050   2.612   6.344   6.790  1.7252  1.3309  0.1400
   38POPC   C15 5051   2.490   6.227   6.505  0.1245  0.0680  0.5870
   38POPC  H15A 5052   2.517   6.315   6.449 -1.2108  0.7652  1.0360
   38POPC  H15B 5053   2.391   6.193   6.479 -0.0846  1.4275 -0.4694
   38POPC  H15C 5054   2.564   6.153   6.477 -0.7573 -0.6483  0.0845
   38POPC   C11 5055   2.553   6.006   6.719  0.1187  0.8744 -0.3374
   38POPC  H11A 5056   2.534   5.931   6.799  0.7282 -2.0498 -2.8552
   38POPC  H11B 5057   2.650   6.057   6.739  0.5455 -1.5014  4.5639
   38POPC     P 5058   2.462   5.826   6.543  0.1095  0.1054 -0.1452
   38POPC   O13 5059   2.451   5.822   6.394 -0.5336 -0.2579  0.0824
   38POPC   O14 5060   2.335   5.827   6.618 -0.5351  0.3729  0.0637
   38POPC   O12 5061   2.553   5.947   6.589  0.6904  0.1613 -0.2553
   38POPC   O11 5062   2.546   5.705   6.582 -0.2631 -0.5082  0.4465
   38POPC    C1 5063   2.560   5.667   6.716  0.1199  0.2166 -0.4511
   38POPC    HA 5064   2.460   5.681   6.763 -1.1697 -0.4564 -2.8933
   38POPC    HB 5065   2.629   5.735   6.770  0.2648  1.3552 -2.0222
   38POPC    C2 5066   2.607   5.526   6.730  0.7336 -0.5196 -0.1477
   38POPC    HS 5067   2.520   5.459   6.714  0.3599  0.1521 -1.0098
   38POPC   O21 5068   2.657   5.507   6.870 -0.8944 -0.0450  0.3236
   38POPC   C21 5069   2.565   5.485   6.958 -0.3388  0.0236 -0.3309
   38POPC   O22 5070   2.442   5.472   6.940 -0.5453  0.3548 -0.4078
   38POPC   C22 5071   2.631   5.499   7.096  0.4293  0.0001  0.4929
   38POPC   H2R 5072   2.736   5.534   7.082  0.4313  0.3717  1.4428
   38POPC   H2S 5073   2.615   5.401   7.146 -0.7721 -0.6842 -1.1689
   38POPC    C3 5074   2.713   5.492   6.628  0.2758  0.8754 -0.6111
   38POPC    HX 5075   2.778   5.581   6.627  0.4917  0.7384  0.2584
   38POPC    HY 5076   2.664   5.472   6.530 -0.0537  0.8070 -0.4341
   38POPC   O31 5077   2.775   5.373   6.668  0.3262 -0.4955  0.4046
   38POPC   C31 5078   2.891   5.389   6.725  0.1090  1.4163  0.3339
   38POPC   O32 5079   2.940   5.489   6.773 -0.3036 -0.1772 -0.2705
   38POPC   C32 5080   2.953   5.243   6.735  0.5947  0.7746 -0.4348
   38POPC   H2X 5081   3.029   5.240   6.654 -1.2605  0.7693 -2.2408
   38POPC   H2Y 5082   2.870   5.173   6.711 -0.4883  2.6876 -2.4394
   38POPC   C23 5083   2.565   5.616   7.182 -0.7358  0.4841  0.0989
   38POPC   H3R 5084   2.456   5.599   7.192 -0.5051 -0.6019  0.8765
   38POPC   H3S 5085   2.579   5.718   7.139  2.4596  0.3091  0.5674
   38POPC   C24 5086   2.606   5.625   7.331 -1.0524 -0.1071 -0.0214
   38POPC   H4R 5087   2.710   5.662   7.338 -0.3883 -2.3859  3.3287
   38POPC   H4S 5088   2.610   5.523   7.376  1.0825 -0.6577 -1.3773
   38POPC   C25 5089   2.502   5.702   7.408  0.0421  0.5375 -0.6180
   38POPC   H5R 5090   2.403   5.652   7.397  1.0776 -1.7076  0.1036
   38POPC   H5S 5091   2.490   5.798   7.353  2.9561  0.0414 -2.2108
   38POPC   C26 5092   2.556   5.722   7.556  0.7182 -0.1951  0.0288
   38POPC   H6R 5093   2.649   5.783   7.557  1.4313 -1.2669  2.6708
   38POPC   H6S 5094   2.559   5.623   7.605 -1.0921 -0.5531 -0.5337
   38POPC   C27 5095   2.461   5.796   7.646 -0.4507 -0.0899 -0.6991
   38POPC   H7R 5096   2.368   5.736   7.650 -0.5836 -0.0694 -2.9059
   38POPC   H7S 5097   2.433   5.890   7.595  3.1886  1.5521  0.1489
   38POPC   C28 5098   2.503   5.839   7.779  0.2872 -0.9092 -1.0016
   38POPC   H8R 5099   2.597   5.896   7.766  1.0258 -2.0447 -0.6483
   38POPC   H8S 5100   2.523   5.742   7.829 -2.6053 -1.3251 -0.5255
   38POPC   C29 5101   2.402   5.927   7.851 -0.4972  0.2003 -0.5239
   38POPC   H91 5102   2.346   6.001   7.792 -1.2134  0.5735  0.5815
   38POPC  C210 5103   2.386   5.925   7.987 -0.7372  0.1426 -0.1572
   38POPC  H101 5104   2.323   5.999   8.037  0.8932  1.4134  0.0611
   38POPC  C211 5105   2.460   5.833   8.082 -0.0604  0.3785  0.1641
   38POPC  H11R 5106   2.442   5.726   8.059 -2.0712 -0.0223  3.2473
   38POPC  H11S 5107   2.408   5.836   8.180 -1.6965  1.7010 -0.7215
   38POPC  C212 5108   2.612   5.861   8.108 -0.0691 -0.0305 -0.3744
   38POPC  H12R 5109   2.613   5.968   8.136 -2.0566 -0.1970  0.4257
   38POPC  H12S 5110   2.682   5.858   8.022 -0.0470 -2.4284 -0.3185
   38POPC  C213 5111   2.667   5.787   8.224  0.1068 -0.1519 -0.0691
   38POPC  H13R 5112   2.670   5.678   8.202 -1.2292  0.1507 -1.8682
   38POPC  H13S 5113   2.610   5.802   8.318 -1.8091 -2.7459 -0.7530
   38POPC  C214 5114   2.822   5.807   8.251 -0.6891  0.6428 -1.0605
   38POPC  H14R 5115   2.842   5.914   8.271 -1.6308  0.6516 -0.0825
   38POPC  H14S 5116   2.870   5.775   8.156 -0.2196  2.0174 -1.2938
   38POPC  C215 5117   2.861   5.737   8.388  0.2149 -0.8318 -0.3340
   38POPC  H15R 5118   2.970   5.718   8.381  0.2534 -0.7779  0.1392
   38POPC  H15S 5119   2.818   5.635   8.392 -1.7721 -0.1021 -2.1843
   38POPC  C216 5120   2.839   5.827   8.510  0.9048 -0.1785  0.3903
   38POPC  H16R 5121   2.870   5.773   8.603 -0.4667  0.7617  1.4103
   38POPC  H16S 5122   2.732   5.856   8.519  1.0724  0.1319  1.4831
   38POPC  C217 5123   2.932   5.948   8.514 -0.2438  0.3888 -0.2974
   38POPC  H17R 5124   2.875   6.030   8.465  0.4616  1.7864  1.1859
   38POPC  H17S 5125   3.026   5.939   8.456 -0.3408 -1.3103 -0.2009
   38POPC  C218 5126   2.938   6.000   8.661 -0.7833 -0.7161 -1.0214
   38POPC  H18R 5127   2.995   6.095   8.666 -0.8374 -0.7278 -0.0723
   38POPC  H18S 5128   2.983   5.926   8.730 -0.3197  1.6460  1.2802
   38POPC  H18T 5129   2.834   6.029   8.689 -0.2409  0.1440  0.1195
   38POPC   C33 5130   3.017   5.211   6.871 -0.7742  0.0116 -0.9729
   38POPC   H3X 5131   3.086   5.294   6.895  2.2598 -2.2704 -1.5710
   38POPC   H3Y 5132   3.065   5.111   6.873 -1.9533 -0.6435 -2.9539
   38POPC   C34 5133   2.907   5.208   6.977  0.1361 -0.2342  1.4876
   38POPC   H4X 5134   2.831   5.132   6.952  0.0769  0.5687 -0.8808
   38POPC   H4Y 5135   2.856   5.307   6.974 -1.4638 -1.0060  2.6718
   38POPC   C35 5136   2.962   5.200   7.116  0.0404 -0.6398  0.1790
   38POPC   H5X 5137   3.029   5.113   7.135 -2.4837 -2.5074  0.7261
   38POPC   H5Y 5138   2.874   5.177   7.179  0.9488 -0.4034  1.5681
   38POPC   C36 5139   3.025   5.330   7.150  0.2735 -0.3777 -0.0618
   38POPC   H6X 5140   2.971   5.419   7.110  2.6748  0.2636 -1.9932
   38POPC   H6Y 5141   3.128   5.341   7.110  0.9702  0.7866  1.9646
   38POPC   C37 5142   3.045   5.354   7.299  0.4475 -0.4330 -0.5201
   38POPC   H7X 5143   3.111   5.438   7.328 -1.7679  0.8728  0.8040
   38POPC   H7Y 5144   3.101   5.265   7.334 -0.0637 -1.2787 -1.8005
   38POPC   C38 5145   2.914   5.363   7.380 -0.6533  0.1341 -0.5886
   38POPC   H8X 5146   2.837   5.286   7.357  0.3345 -1.7310  2.1226
   38POPC   H8Y 5147   2.863   5.457   7.349 -0.1318  0.5399 -0.2306
   38POPC   C39 5148   2.924   5.354   7.532  0.0379 -0.2390  0.2435
   38POPC   H9X 5149   3.022   5.393   7.567  0.2833  0.1976 -0.8954
   38POPC   H9Y 5150   2.943   5.245   7.542 -1.8925 -0.8825 -2.3528
   38POPC  C310 5151   2.802   5.407   7.606  0.3233  0.6628 -0.1925
   38POPC  H10X 5152   2.720   5.346   7.564 -0.8607  2.2191 -0.1877
   38POPC  H10Y 5153   2.785   5.514   7.585 -0.6134  0.3355 -1.1220
   38POPC  C311 5154   2.806   5.374   7.750  0.5314  0.4181 -0.1210
   38POPC  H11X 5155   2.908   5.386   7.792 -0.3889  2.2493  1.6726
   38POPC  H11Y 5156   2.789   5.264   7.745 -0.7601  0.5899  0.1408
   38POPC  C312 5157   2.696   5.448   7.829 -0.2266 -0.6288 -0.1495
   38POPC  H12X 5158   2.602   5.392   7.807 -0.4708 -1.3010  2.4379
   38POPC  H12Y 5159   2.700   5.553   7.792  2.1967 -0.4533  0.5374
   38POPC  C313 5160   2.738   5.455   7.981  0.3759  0.4574 -0.6934
   38POPC  H13X 5161   2.683   5.527   8.045 -1.8885 -2.0587  0.2554
   38POPC  H13Y 5162   2.839   5.502   7.980  1.0412 -0.9280  0.2841
   38POPC  C314 5163   2.746   5.318   8.054  0.7435  0.6976  0.7135
   38POPC  H14X 5164   2.755   5.247   7.969 -1.0106  0.8816  0.3536
   38POPC  H14Y 5165   2.642   5.295   8.086 -0.2904  1.7912 -1.7500
   38POPC  C315 5166   2.865   5.299   8.156 -1.2783  0.3220 -0.0933
   38POPC  H15X 5167   2.842   5.344   8.255  0.4663  2.5432 -0.6583
   38POPC  H15Y 5168   2.960   5.342   8.117 -1.2118 -1.8049 -2.3739
   38POPC  C316 5169   2.881   5.148   8.184  0.2468  0.1415  0.2638
   38POPC  H16X 5170   2.934   5.105   8.096 -1.0371 -2.0838  0.5486
   38POPC  H16Y 5171   2.780   5.104   8.197 -0.1738  1.3536  1.2308
   38POPC  H16Z 5172   2.935   5.128   8.279 -0.9168 -1.5705  0.5818
   39POPC     N 5173   0.037   3.134   6.102  0.4138 -0.2621 -0.2826
   39POPC   C12 5174  -0.067   3.118   6.220 -0.4325  0.1944 -0.1608
   39POPC  H12A 5175  -0.037   3.195   6.289 -0.1131 -0.5281  0.5159
   39POPC  H12B 5176  -0.046   3.023   6.268  1.8110  1.7213  1.9622
   39POPC   C13 5177   0.174   3.145   6.167 -0.2082 -0.1238 -0.0071
   39POPC  H13A 5178   0.249   3.168   6.093 -0.4099  0.8113  0.0744
   39POPC  H13B 5179   0.182   3.223   6.242 -0.3803 -1.2351  1.1813
   39POPC  H13C 5180   0.194   3.054   6.222 -0.8755  0.2573  0.8861
   39POPC   C14 5181   0.037   3.022   6.007  0.8902 -0.3547 -0.2570
   39POPC  H14A 5182  -0.061   3.024   5.963  0.3058 -2.2851  0.9230
   39POPC  H14B 5183   0.100   3.028   5.920  0.2572  0.1034 -0.6860
   39POPC  H14C 5184   0.049   2.930   6.062  1.9301  0.2538  0.5622
   39POPC   C15 5185   0.011   3.261   6.028 -0.1745  0.0706 -0.2982
   39POPC  H15A 5186  -0.083   3.276   5.977 -0.2975  0.9084  0.1665
   39POPC  H15B 5187   0.084   3.272   5.950  1.2089  3.5650  1.4088
   39POPC  H15C 5188   0.015   3.333   6.109 -0.3548  1.6217 -1.6520
   39POPC   C11 5189  -0.217   3.125   6.200 -0.2854  0.2105  1.1139
   39POPC  H11A 5190  -0.231   3.224   6.153  1.4334  0.5961  1.3947
   39POPC  H11B 5191  -0.266   3.123   6.300 -1.4355 -0.1824  0.5481
   39POPC     P 5192  -0.294   2.875   6.154 -0.3325 -0.2813  0.0134
   39POPC   O13 5193  -0.179   2.795   6.116 -0.1783  0.2800 -0.1955
   39POPC   O14 5194  -0.422   2.834   6.087  0.1384 -0.2016 -0.3126
   39POPC   O12 5195  -0.262   3.025   6.112 -0.0535  0.4945  0.4149
   39POPC   O11 5196  -0.303   2.893   6.310 -0.2648  0.1809 -0.3205
   39POPC    C1 5197  -0.381   2.800   6.388  0.1465 -0.6721  0.7388
   39POPC    HA 5198  -0.359   2.697   6.351  1.1135  0.1570 -1.0276
   39POPC    HB 5199  -0.490   2.806   6.366  0.2197  0.0985  0.5969
   39POPC    C2 5200  -0.357   2.812   6.538 -0.1406  0.1062 -0.2767
   39POPC    HS 5201  -0.389   2.716   6.584  0.9450 -0.2416 -0.2287
   39POPC   O21 5202  -0.441   2.921   6.597  0.3878  0.0381  0.0337
   39POPC   C21 5203  -0.490   2.889   6.718  0.3029 -0.2322  0.5352
   39POPC   O22 5204  -0.491   2.783   6.772  0.1620  0.4502 -0.2491
   39POPC   C22 5205  -0.557   3.008   6.763 -0.7262  0.7439  0.4723
   39POPC   H2R 5206  -0.637   3.035   6.691  1.3382 -0.7560 -2.4744
   39POPC   H2S 5207  -0.485   3.093   6.773  1.7462 -0.8922 -2.5713
   39POPC    C3 5208  -0.209   2.837   6.570 -0.1146 -0.2244  0.0368
   39POPC    HX 5209  -0.168   2.926   6.517 -0.8197 -0.3286 -0.6997
   39POPC    HY 5210  -0.155   2.751   6.525 -0.1952 -2.4153  3.9612
   39POPC   O31 5211  -0.177   2.843   6.715  0.3404  0.3780  0.5889
   39POPC   C31 5212  -0.188   2.726   6.782  0.7236 -0.5027  0.4492
   39POPC   O32 5213  -0.217   2.623   6.727 -0.1033 -0.1945 -0.5049
   39POPC   C32 5214  -0.143   2.738   6.928  0.5345  0.0280 -0.3479
   39POPC   H2X 5215  -0.077   2.653   6.956 -2.2452 -2.0259  0.1591
   39POPC   H2Y 5216  -0.073   2.824   6.928  1.3307 -0.6154 -0.2506
   39POPC   C23 5217  -0.622   2.991   6.901  0.7852 -0.2516 -0.9316
   39POPC   H3R 5218  -0.535   2.981   6.970 -1.0852 -2.5225  1.2239
   39POPC   H3S 5219  -0.681   2.897   6.900 -1.1494  0.9295  0.0022
   39POPC   C24 5220  -0.713   3.106   6.943  0.1759  0.4246  0.4505
   39POPC   H4R 5221  -0.794   3.102   6.867 -0.8584 -2.7087  1.6323
   39POPC   H4S 5222  -0.661   3.204   6.945 -0.0453  0.5406  4.2579
   39POPC   C25 5223  -0.768   3.076   7.085 -0.3279 -0.2429 -0.0372
   39POPC   H5R 5224  -0.830   2.983   7.090 -2.9364  1.4289 -0.4509
   39POPC   H5S 5225  -0.828   3.168   7.103  2.4500  1.6159 -0.0057
   39POPC   C26 5226  -0.665   3.080   7.195  0.1622 -1.1767  0.0498
   39POPC   H6R 5227  -0.585   3.007   7.171 -1.4056 -3.2768  1.0350
   39POPC   H6S 5228  -0.723   3.057   7.287 -1.4116  0.1945 -0.5586
   39POPC   C27 5229  -0.609   3.218   7.226  0.3191 -0.7418  0.6406
   39POPC   H7R 5230  -0.684   3.298   7.240 -1.8150 -2.0237 -2.7204
   39POPC   H7S 5231  -0.559   3.260   7.136 -1.9152  0.6902  0.0382
   39POPC   C28 5232  -0.519   3.225   7.348  0.4500 -0.2032 -0.5680
   39POPC   H8R 5233  -0.474   3.326   7.354 -2.1274  0.8915  1.4210
   39POPC   H8S 5234  -0.444   3.142   7.347  0.6458 -0.0312 -0.2126
   39POPC   C29 5235  -0.601   3.205   7.476 -0.2235 -0.1127  0.3216
   39POPC   H91 5236  -0.646   3.104   7.482  2.7899 -1.4312  1.5782
   39POPC  C210 5237  -0.620   3.284   7.578  0.2051  0.0786 -0.6636
   39POPC  H101 5238  -0.684   3.247   7.659 -1.2416  1.5754 -1.1006
   39POPC  C211 5239  -0.579   3.420   7.605 -0.0184  0.4817 -0.8979
   39POPC  H11R 5240  -0.666   3.487   7.621  0.3299  1.0972 -1.5584
   39POPC  H11S 5241  -0.525   3.455   7.515  0.0648  0.5982 -0.8045
   39POPC  C212 5242  -0.489   3.436   7.731 -0.4859  0.3023  0.3088
   39POPC  H12R 5243  -0.429   3.529   7.726 -0.4405  0.3433  1.5761
   39POPC  H12S 5244  -0.408   3.361   7.721 -0.3421  0.7153 -1.9750
   39POPC  C213 5245  -0.574   3.440   7.856  0.7943  0.2120 -1.0765
   39POPC  H13R 5246  -0.658   3.367   7.863 -0.2164  1.3265 -1.5556
   39POPC  H13S 5247  -0.629   3.535   7.864  0.0754 -0.4124  2.2014
   39POPC  C214 5248  -0.485   3.442   7.987 -0.2799 -0.5040 -0.0371
   39POPC  H14R 5249  -0.449   3.341   8.013  0.2054  0.0103  1.2996
   39POPC  H14S 5250  -0.558   3.478   8.063 -0.0385  1.8367 -0.8498
   39POPC  C215 5251  -0.376   3.551   8.003  0.7814  0.0165  0.5687
   39POPC  H15R 5252  -0.427   3.640   7.961 -1.7736 -1.2770  0.8148
   39POPC  H15S 5253  -0.292   3.514   7.941  0.3612 -1.2121  0.7208
   39POPC  C216 5254  -0.342   3.590   8.142 -0.7785  0.6569 -0.0764
   39POPC  H16R 5255  -0.440   3.602   8.192 -0.1693  0.8351  1.0855
   39POPC  H16S 5256  -0.304   3.695   8.141  0.1632  0.3384 -2.4638
   39POPC  C217 5257  -0.272   3.487   8.240  1.6691 -0.3831 -0.0378
   39POPC  H17R 5258  -0.166   3.482   8.208  0.9174  0.8571 -2.9892
   39POPC  H17S 5259  -0.331   3.393   8.235 -1.9408  1.7972 -0.3960
   39POPC  C218 5260  -0.287   3.537   8.389  0.3655  0.0153 -0.4874
   39POPC  H18R 5261  -0.239   3.636   8.403 -1.5934  0.8726  0.4849
   39POPC  H18S 5262  -0.239   3.461   8.455  0.9574 -0.7080 -1.7314
   39POPC  H18T 5263  -0.395   3.544   8.417  0.6119 -0.3364  0.5910
   39POPC   C33 5264  -0.264   2.772   7.021 -0.5309  0.4644 -0.1906
   39POPC   H3X 5265  -0.351   2.707   6.999  0.1100 -0.7334  0.7609
   39POPC   H3Y 5266  -0.294   2.876   6.996 -2.5098  0.5794  2.5095
   39POPC   C34 5267  -0.222   2.773   7.168  1.0549  0.2496 -0.1235
   39POPC   H4X 5268  -0.132   2.838   7.174  0.5800  0.8632  0.4593
   39POPC   H4Y 5269  -0.197   2.669   7.196 -1.6102 -0.2265  0.6543
   39POPC   C35 5270  -0.332   2.823   7.267 -0.6244 -0.4391 -0.1265
   39POPC   H5X 5271  -0.402   2.743   7.299 -2.2256  1.5930  1.6121
   39POPC   H5Y 5272  -0.405   2.897   7.227  0.4475 -0.0033 -1.2896
   39POPC   C36 5273  -0.269   2.884   7.398 -0.3117  0.0355 -0.1716
   39POPC   H6X 5274  -0.224   2.983   7.375  1.3117 -0.5072  0.5779
   39POPC   H6Y 5275  -0.185   2.820   7.432 -1.4069 -0.0371  2.5334
   39POPC   C37 5276  -0.372   2.896   7.513 -0.1808 -0.2180  0.0466
   39POPC   H7X 5277  -0.406   2.795   7.543  2.0180 -0.6746  1.1149
   39POPC   H7Y 5278  -0.462   2.954   7.484 -2.4394 -2.8718  1.5661
   39POPC   C38 5279  -0.311   2.962   7.638 -0.4133 -0.2948  0.7608
   39POPC   H8X 5280  -0.294   3.069   7.613 -1.1613 -0.1075  1.0354
   39POPC   H8Y 5281  -0.216   2.916   7.673 -0.5451 -3.2063 -2.4640
   39POPC   C39 5282  -0.406   2.965   7.762  0.0421 -0.1567  0.3026
   39POPC   H9X 5283  -0.432   2.859   7.785 -1.8300 -0.2916 -2.1957
   39POPC   H9Y 5284  -0.504   3.015   7.749  1.1525  1.5984 -1.4942
   39POPC  C310 5285  -0.346   3.054   7.870 -0.3100 -0.1397  0.0144
   39POPC  H10X 5286  -0.339   3.156   7.828  2.2084 -0.0843  0.4718
   39POPC  H10Y 5287  -0.245   3.014   7.896 -0.2239 -1.3069 -1.9804
   39POPC  C311 5288  -0.429   3.051   7.994 -0.0653 -0.2082 -0.4996
   39POPC  H11X 5289  -0.528   3.095   7.969 -0.0798 -0.0738 -0.2129
   39POPC  H11Y 5290  -0.375   3.117   8.066 -0.5475 -0.4640  0.1018
   39POPC  C312 5291  -0.451   2.913   8.068 -0.4855 -0.1169 -0.2444
   39POPC  H12X 5292  -0.358   2.864   8.105  1.0874  2.0861 -1.1898
   39POPC  H12Y 5293  -0.511   2.849   7.999 -2.8451  0.1980  1.4617
   39POPC  C313 5294  -0.527   2.932   8.197 -0.3716 -0.3876  0.6467
   39POPC  H13X 5295  -0.583   2.842   8.230 -1.8529  0.2206 -0.1424
   39POPC  H13Y 5296  -0.606   3.010   8.192  0.1760  0.1283 -0.1798
   39POPC  C314 5297  -0.430   2.979   8.310  0.3001  0.4786  0.0613
   39POPC  H14X 5298  -0.361   3.056   8.269  1.0551  0.0603  0.5329
   39POPC  H14Y 5299  -0.378   2.886   8.342 -1.5791 -0.5354  0.2630
   39POPC  C315 5300  -0.508   3.035   8.433 -0.3586  0.5434  0.0624
   39POPC  H15X 5301  -0.605   2.981   8.430  0.0605 -0.2033 -0.0713
   39POPC  H15Y 5302  -0.537   3.140   8.413 -1.0934  0.3827  0.2551
   39POPC  C316 5303  -0.436   3.031   8.566 -0.5069  0.3381  0.3965
   39POPC  H16X 5304  -0.360   3.111   8.578 -0.0219 -0.2104  1.0461
   39POPC  H16Y 5305  -0.382   2.934   8.561  1.7481  1.5802  0.0085
   39POPC  H16Z 5306  -0.508   3.037   8.651 -1.2485  0.6216 -0.2396
   40POPC     N 5307   6.380   0.433   6.171 -0.1668  1.1379 -0.2220
   40POPC   C12 5308   6.357   0.331   6.290 -0.5309  0.1815  0.1852
   40POPC  H12A 5309   6.431   0.355   6.365 -0.5403  0.0694  0.2296
   40POPC  H12B 5310   6.389   0.237   6.248  1.2604  0.9923 -0.2880
   40POPC   C13 5311   6.527   0.430   6.125 -0.2610 -0.1298  0.0751
   40POPC  H13A 5312   6.540   0.479   6.030  0.7394 -1.3312 -0.4151
   40POPC  H13B 5313   6.593   0.470   6.201 -0.5599 -1.0575  0.8420
   40POPC  H13C 5314   6.571   0.331   6.119  2.5413  1.0989 -0.3467
   40POPC   C14 5315   6.293   0.384   6.063  0.0467 -0.0091  0.1499
   40POPC  H14A 5316   6.343   0.299   6.019  0.0600 -0.0829  0.3073
   40POPC  H14B 5317   6.200   0.357   6.109 -1.2223 -0.8630 -2.8243
   40POPC  H14C 5318   6.273   0.454   5.983 -0.9747 -0.1085  0.3141
   40POPC   C15 5319   6.346   0.566   6.219  0.2904 -0.2199 -0.0517
   40POPC  H15A 5320   6.253   0.568   6.274  1.6200  2.3060  2.1712
   40POPC  H15B 5321   6.337   0.640   6.141  0.2948 -1.0247 -0.8287
   40POPC  H15C 5322   6.421   0.598   6.290  1.0981 -1.7061 -0.2100
   40POPC   C11 5323   6.219   0.325   6.353  0.3567 -0.3443  0.1334
   40POPC  H11A 5324   6.171   0.425   6.355 -1.7670 -1.3146 -1.2065
   40POPC  H11B 5325   6.228   0.280   6.455  0.2112 -0.8147 -0.0616
   40POPC     P 5326   6.137   0.086   6.268 -0.3019 -0.3074  0.2950
   40POPC   O13 5327   6.278   0.039   6.243 -0.0406 -0.1027 -0.2312
   40POPC   O14 5328   6.038   0.033   6.170  0.0847 -0.1577 -0.6609
   40POPC   O12 5329   6.132   0.239   6.279  0.4754 -0.3551  1.1652
   40POPC   O11 5330   6.092   0.035   6.410  0.1465  0.1915  0.1415
   40POPC    C1 5331   6.079  -0.105   6.429 -0.3287  0.5226 -0.2519
   40POPC    HA 5332   6.131  -0.161   6.347  1.4288  0.2773  1.0083
   40POPC    HB 5333   5.970  -0.127   6.429 -0.0055 -1.2837  2.9061
   40POPC    C2 5334   6.139  -0.141   6.558 -0.3902  0.2184  0.0880
   40POPC    HS 5335   6.147  -0.251   6.573 -1.3712  0.1853  0.3468
   40POPC   O21 5336   6.071  -0.077   6.669  0.0516 -0.1768 -0.0872
   40POPC   C21 5337   5.977  -0.145   6.730  0.0454 -0.2268  0.0012
   40POPC   O22 5338   5.948  -0.260   6.705 -0.4343  0.2249  0.9880
   40POPC   C22 5339   5.917  -0.054   6.835 -0.2333 -0.5590  0.1080
   40POPC   H2R 5340   5.978   0.039   6.843 -0.6375 -0.3075  0.2614
   40POPC   H2S 5341   5.934  -0.108   6.932  1.0513 -0.3832 -0.0146
   40POPC    C3 5342   6.291  -0.098   6.567  0.2767  0.9750  0.1942
   40POPC    HX 5343   6.294   0.012   6.554  1.2873  0.9524  0.1871
   40POPC    HY 5344   6.342  -0.136   6.476 -1.3290  0.1267 -0.3553
   40POPC   O31 5345   6.357  -0.133   6.694  0.5669 -0.0326  0.1544
   40POPC   C31 5346   6.368  -0.042   6.789 -0.6875 -0.2607  0.1034
   40POPC   O32 5347   6.358   0.082   6.775  0.2574 -0.3517  0.1774
   40POPC   C32 5348   6.393  -0.119   6.917  0.6842  0.0039 -0.4377
   40POPC   H2X 5349   6.459  -0.054   6.979  1.0716 -0.0374 -0.8082
   40POPC   H2Y 5350   6.450  -0.212   6.897 -0.3231 -0.2472 -2.1200
   40POPC   C23 5351   5.771  -0.019   6.829 -0.0055 -0.1725 -0.2543
   40POPC   H3R 5352   5.717  -0.112   6.801 -3.4302  1.6298  0.0481
   40POPC   H3S 5353   5.753   0.064   6.756  3.1887 -0.4442 -1.4442
   40POPC   C24 5354   5.708   0.024   6.961  0.1983 -0.2305 -0.1239
   40POPC   H4R 5355   5.731  -0.063   7.027 -0.6563  0.4982  1.1597
   40POPC   H4S 5356   5.598   0.033   6.948  0.3789 -0.5751 -2.0839
   40POPC   C25 5357   5.778   0.152   7.009 -1.2123 -1.5486 -0.1970
   40POPC   H5R 5358   5.774   0.216   6.918  2.3995 -1.1565 -0.1667
   40POPC   H5S 5359   5.887   0.139   7.028 -1.3291  0.5631  2.0287
   40POPC   C26 5360   5.697   0.218   7.115 -0.3129 -0.1569  0.1141
   40POPC   H6R 5361   5.586   0.217   7.113 -0.2968 -0.9682 -1.3230
   40POPC   H6S 5362   5.717   0.327   7.116 -0.4512 -0.1254 -0.3998
   40POPC   C27 5363   5.741   0.157   7.250 -0.7096  0.4925 -0.2743
   40POPC   H7R 5364   5.849   0.178   7.261  0.0079 -3.4430  0.7553
   40POPC   H7S 5365   5.732   0.047   7.243 -1.8488  0.6615 -1.8574
   40POPC   C28 5366   5.640   0.198   7.362 -0.6171  0.6702  0.4431
   40POPC   H8R 5367   5.689   0.161   7.455  3.2266 -0.3314 -1.8779
   40POPC   H8S 5368   5.541   0.152   7.343 -0.6075  1.5900 -1.9988
   40POPC   C29 5369   5.619   0.346   7.371  0.2663  0.2142 -0.6153
   40POPC   H91 5370   5.556   0.392   7.293 -1.8363  0.5639  1.2518
   40POPC  C210 5371   5.666   0.427   7.467  0.0958 -0.1432  0.2085
   40POPC  H101 5372   5.650   0.534   7.443  0.4426  0.0442  0.8044
   40POPC  C211 5373   5.755   0.402   7.591 -0.0339 -0.5409 -0.4078
   40POPC  H11R 5374   5.843   0.466   7.567  0.7606 -1.0878  1.0149
   40POPC  H11S 5375   5.783   0.295   7.595  0.1674 -0.5765 -2.3520
   40POPC  C212 5376   5.689   0.450   7.721 -0.3598  0.0851  0.0676
   40POPC  H12R 5377   5.647   0.552   7.701 -2.2699 -0.4217  1.4141
   40POPC  H12S 5378   5.760   0.455   7.806 -1.1587 -0.3605  0.7595
   40POPC  C213 5379   5.569   0.361   7.759  0.2298  0.0374  0.0827
   40POPC  H13R 5380   5.622   0.272   7.800 -0.0894 -0.0230  0.3661
   40POPC  H13S 5381   5.522   0.331   7.663 -0.2280 -2.4602  1.0296
   40POPC  C214 5382   5.471   0.407   7.857 -0.0953  0.1185 -0.4779
   40POPC  H14R 5383   5.392   0.331   7.869  0.2248 -0.2088 -0.4441
   40POPC  H14S 5384   5.424   0.503   7.827  1.2290  0.1513 -2.5417
   40POPC  C215 5385   5.522   0.428   8.001 -0.0022  0.1683 -0.9506
   40POPC  H15R 5386   5.608   0.498   8.002 -0.5436  0.8299  0.0699
   40POPC  H15S 5387   5.576   0.338   8.037 -1.9652 -1.2871 -1.5084
   40POPC  C216 5388   5.408   0.476   8.093  0.0652 -0.2354  0.1205
   40POPC  H16R 5389   5.315   0.418   8.075 -0.5415  1.3076 -1.8452
   40POPC  H16S 5390   5.389   0.584   8.081 -1.1008 -0.4434  0.0101
   40POPC  C217 5391   5.447   0.453   8.231  0.6794  0.4326  0.0698
   40POPC  H17R 5392   5.374   0.515   8.288 -0.1673  2.2600 -2.8816
   40POPC  H17S 5393   5.547   0.498   8.254  0.0420  0.2778  3.3471
   40POPC  C218 5394   5.428   0.309   8.276  0.4097 -0.2828  0.3173
   40POPC  H18R 5395   5.462   0.284   8.378  3.4787 -2.2291 -1.1092
   40POPC  H18S 5396   5.491   0.240   8.214  0.1015  1.0875 -1.5658
   40POPC  H18T 5397   5.320   0.286   8.271  0.8521 -2.4941  0.0820
   40POPC   C33 5398   6.266  -0.152   6.998  0.4719 -0.5840 -0.3484
   40POPC   H3X 5399   6.281  -0.232   7.075 -2.4236 -0.9301 -0.0780
   40POPC   H3Y 5400   6.195  -0.204   6.930  0.7254 -4.1873  2.0237
   40POPC   C34 5401   6.200  -0.030   7.070 -0.4595  0.4129 -0.5523
   40POPC   H4X 5402   6.142   0.040   7.006 -0.7811  1.3087  0.7058
   40POPC   H4Y 5403   6.279   0.026   7.125  0.6148 -1.7996  0.2647
   40POPC   C35 5404   6.106  -0.073   7.191  0.2995 -0.6433 -0.1831
   40POPC   H5X 5405   6.129  -0.178   7.216  1.0983 -0.3414  0.3706
   40POPC   H5Y 5406   6.001  -0.072   7.155 -0.9274  1.8086  3.1922
   40POPC   C36 5407   6.116   0.020   7.312 -0.2528 -0.1406  0.7116
   40POPC   H6X 5408   6.106   0.127   7.284  0.5301 -0.1626  0.3183
   40POPC   H6Y 5409   6.219   0.007   7.353  0.0216 -0.8678 -0.1859
   40POPC   C37 5410   6.011  -0.008   7.431 -0.1002 -0.0714  0.0479
   40POPC   H7X 5411   6.025  -0.109   7.477 -2.4384  0.1421  1.3252
   40POPC   H7Y 5412   5.907   0.008   7.396  0.0477  1.4351  0.2686
   40POPC   C38 5413   6.026   0.091   7.550  0.5950 -0.5993 -0.4580
   40POPC   H8X 5414   5.927   0.087   7.601 -0.1588  2.8544 -1.4921
   40POPC   H8Y 5415   6.038   0.199   7.525 -3.4274 -0.2477 -1.1739
   40POPC   C39 5416   6.120   0.043   7.659  0.5883  0.5909 -0.3830
   40POPC   H9X 5417   6.226   0.020   7.632  0.2883 -0.4211 -0.7352
   40POPC   H9Y 5418   6.085  -0.054   7.701  1.4971 -0.1661 -1.3247
   40POPC  C310 5419   6.129   0.151   7.773 -0.1647  0.9487 -0.0084
   40POPC  H10X 5420   6.141   0.250   7.725 -1.1918  1.2146  0.2578
   40POPC  H10Y 5421   6.217   0.137   7.840 -0.0777 -2.3745 -0.7493
   40POPC  C311 5422   6.000   0.161   7.849  0.4922 -0.4082  0.0626
   40POPC  H11X 5423   5.970   0.056   7.868  2.2878 -0.8030  0.8217
   40POPC  H11Y 5424   5.918   0.205   7.789  0.5821  1.9690  1.6149
   40POPC  C312 5425   6.013   0.238   7.983 -0.7979 -0.3299  0.5318
   40POPC  H12X 5426   6.017   0.345   7.953 -0.7023 -0.5115 -0.1284
   40POPC  H12Y 5427   6.101   0.205   8.042  0.8213  0.0882 -1.5932
   40POPC  C313 5428   5.890   0.212   8.073  0.6587  0.0438 -0.3465
   40POPC  H13X 5429   5.908   0.118   8.128 -0.4587  0.2082  0.3174
   40POPC  H13Y 5430   5.801   0.199   8.008 -0.5539  0.4307  1.1879
   40POPC  C314 5431   5.865   0.318   8.189 -0.2507  0.4123  0.8497
   40POPC  H14X 5432   5.810   0.398   8.137 -0.1601 -0.7758 -1.1135
   40POPC  H14Y 5433   5.959   0.364   8.228 -0.1567  0.6598  0.3292
   40POPC  C315 5434   5.799   0.249   8.304  0.4998 -0.0307 -0.4793
   40POPC  H15X 5435   5.858   0.159   8.330 -2.2948 -1.5270  0.8522
   40POPC  H15Y 5436   5.696   0.212   8.282 -0.7491  0.6710  3.6796
   40POPC  C316 5437   5.780   0.343   8.430 -0.4248 -0.3493  0.7260
   40POPC  H16X 5438   5.721   0.293   8.509  1.8910 -3.2040  0.7687
   40POPC  H16Y 5439   5.711   0.419   8.388  0.6524  1.1753  1.6757
   40POPC  H16Z 5440   5.878   0.377   8.470 -0.2843 -0.5090  0.5205
   41CHL1    C3 5441   3.940   3.607  10.153  0.1506  0.0377 -0.0204
   41CHL1    H3 5442   3.884   3.689  10.102  1.9152 -0.0269 -2.1248
   41CHL1    O3 5443   3.864   3.548  10.259  0.1070  0.0737 -0.3266
   41CHL1   H3' 5444   3.831   3.622  10.311  0.3298 -0.0330 -0.0316
   41CHL1    C4 5445   3.983   3.495  10.053 -0.2637 -0.4370  0.2441
   41CHL1   H4A 5446   4.052   3.417  10.092 -1.3790 -1.1766  0.7715
   41CHL1   H4B 5447   3.895   3.429  10.034  0.0095 -0.8089  0.2678
   41CHL1    C5 5448   4.042   3.561   9.933  0.7952  0.5968  0.6990
   41CHL1    C6 5449   3.977   3.552   9.814  0.0839  0.1183 -0.6020
   41CHL1    H6 5450   3.888   3.488   9.808  0.8228 -1.2070  1.8378
   41CHL1    C7 5451   4.028   3.618   9.686  0.2969  0.8501  0.0245
   41CHL1   H7A 5452   4.010   3.550   9.599 -0.0110 -1.5056  1.8736
   41CHL1   H7B 5453   3.961   3.707   9.680  0.8923  1.3484  0.8132
   41CHL1    C8 5454   4.173   3.656   9.711  0.3160 -0.2762  0.2833
   41CHL1    H8 5455   4.235   3.566   9.692 -2.3985 -1.4643 -3.3861
   41CHL1   C14 5456   4.210   3.747   9.598  0.5718 -0.1037 -1.0781
   41CHL1   H14 5457   4.144   3.835   9.613 -0.7213 -0.8266 -2.4170
   41CHL1   C15 5458   4.188   3.700   9.454 -0.1783  1.0013 -0.4488
   41CHL1  H15A 5459   4.244   3.608   9.427 -3.3584 -1.6096  1.4514
   41CHL1  H15B 5460   4.081   3.683   9.428  0.3951 -1.5748 -1.3285
   41CHL1   C16 5461   4.250   3.816   9.381 -1.1960 -0.4346 -0.0691
   41CHL1  H16A 5462   4.293   3.788   9.283 -0.3376  0.7064 -0.0329
   41CHL1  H16B 5463   4.170   3.893   9.372  0.3641  1.5019  1.9080
   41CHL1   C17 5464   4.351   3.891   9.472  0.6859 -0.4416  0.8296
   41CHL1   H17 5465   4.309   3.986   9.510  0.1601  0.2920 -1.4953
   41CHL1   C13 5466   4.354   3.804   9.603  0.3742  0.6662 -0.0668
   41CHL1   C18 5467   4.456   3.693   9.596 -0.1739 -0.2641  0.6479
   41CHL1  H18A 5468   4.429   3.618   9.674  1.1790 -1.0539  0.3689
   41CHL1  H18B 5469   4.462   3.651   9.494  1.3150 -0.0613  0.6372
   41CHL1  H18C 5470   4.554   3.731   9.633  1.5713 -1.9976 -2.0025
   41CHL1   C12 5471   4.356   3.888   9.741  0.1381  0.4208  0.4640
   41CHL1  H12A 5472   4.463   3.914   9.758  0.8368 -1.4475 -0.8489
   41CHL1  H12B 5473   4.283   3.971   9.737 -0.9200 -0.6079 -3.0681
   41CHL1   C11 5474   4.328   3.799   9.863 -0.5108 -0.4823  0.0007
   41CHL1  H11A 5475   4.410   3.724   9.857  1.0317  1.1848 -0.2357
   41CHL1  H11B 5476   4.329   3.866   9.951  1.3714  0.2568 -0.5766
   41CHL1    C9 5477   4.196   3.727   9.852  0.7607  0.6224  0.7960
   41CHL1    H9 5478   4.123   3.810   9.856 -1.5203 -1.2367 -0.7139
   41CHL1   C10 5479   4.169   3.636   9.972  0.2396 -0.7496  0.1318
   41CHL1   C19 5480   4.284   3.532   9.974  0.9555 -0.3596 -0.0291
   41CHL1  H19A 5481   4.251   3.442  10.031 -2.9987 -0.0314 -1.6311
   41CHL1  H19B 5482   4.302   3.500   9.869  0.2629  0.3944 -0.3787
   41CHL1  H19C 5483   4.376   3.574  10.020  0.7225 -1.2624  1.2771
   41CHL1    C1 5484   4.148   3.727  10.095 -0.6043  0.2342 -0.1985
   41CHL1   H1A 5485   4.249   3.749  10.136 -0.3019 -1.4722  0.0262
   41CHL1   H1B 5486   4.099   3.821  10.063 -1.0709 -0.3442 -1.2185
   41CHL1    C2 5487   4.064   3.671  10.209  0.3270  0.3283  0.1854
   41CHL1   H2A 5488   4.029   3.750  10.279 -0.6893  1.3075 -1.4162
   41CHL1   H2B 5489   4.127   3.599  10.267 -0.1374 -1.9014 -1.9897
   41CHL1   C20 5490   4.477   3.929   9.403  0.2554  0.5003 -0.0794
   41CHL1   H20 5491   4.532   3.837   9.370 -0.6805  0.6977 -2.2737
   41CHL1   C21 5492   4.573   4.002   9.496 -0.0189  0.4187 -0.4353
   41CHL1  H21A 5493   4.523   4.095   9.531  0.8772  0.5035  0.6479
   41CHL1  H21B 5494   4.674   4.015   9.451  1.8892  1.1197  3.7578
   41CHL1  H21C 5495   4.592   3.937   9.584 -1.5813  0.1423 -0.2929
   41CHL1   C22 5496   4.455   4.024   9.277 -0.1082  0.7224 -0.2626
   41CHL1  H22A 5497   4.383   3.967   9.214 -0.5584 -0.0784  0.9681
   41CHL1  H22B 5498   4.398   4.114   9.308 -0.0103  0.0634  1.9029
   41CHL1   C23 5499   4.585   4.082   9.214  0.4024  0.5541  0.5421
   41CHL1  H23A 5500   4.636   4.153   9.281  0.8551 -0.2443  1.0514
   41CHL1  H23B 5501   4.659   4.004   9.186 -1.6699 -0.5746 -2.0539
   41CHL1   C24 5502   4.553   4.153   9.077 -0.3967  0.7627  0.1513
   41CHL1  H24A 5503   4.511   4.076   9.009 -1.7610  0.6344  1.1115
   41CHL1  H24B 5504   4.467   4.221   9.095 -2.2793 -1.1764 -1.1745
   41CHL1   C25 5505   4.680   4.211   9.011  0.0104 -0.0444  0.0113
   41CHL1   H25 5506   4.738   4.268   9.087 -0.1206  1.7568 -1.2082
   41CHL1   C26 5507   4.771   4.111   8.934  0.5614  0.9854  0.4818
   41CHL1  H26A 5508   4.729   4.099   8.831  2.5367 -0.7463 -0.1563
   41CHL1  H26B 5509   4.870   4.154   8.908  1.7445 -0.5980  2.2570
   41CHL1  H26C 5510   4.768   4.015   8.990 -0.9632  0.9688  0.3996
   41CHL1   C27 5511   4.639   4.322   8.917 -0.4432 -0.4984 -0.3645
   41CHL1  H27A 5512   4.730   4.377   8.885 -0.8084  2.2960  3.0299
   41CHL1  H27B 5513   4.583   4.279   8.831  4.8437 -2.2047 -3.1769
   41CHL1  H27C 5514   4.574   4.393   8.974 -1.1130 -0.8863 -0.6361
   42CHL1    C3 5515   3.743   2.463   9.825  0.0454 -1.0219  0.3463
   42CHL1    H3 5516   3.774   2.557   9.874  0.5311 -0.6976 -0.5792
   42CHL1    O3 5517   3.725   2.359   9.919  0.4436  0.3603  0.2258
   42CHL1   H3' 5518   3.812   2.331   9.947  0.3581  0.4760  0.6174
   42CHL1    C4 5519   3.609   2.490   9.754  0.3672  0.0372 -0.9554
   42CHL1   H4A 5520   3.580   2.389   9.718  0.5249 -0.9381  1.5989
   42CHL1   H4B 5521   3.539   2.522   9.834  2.1276 -0.3331  0.7532
   42CHL1    C5 5522   3.628   2.594   9.645  0.2990  0.0534 -0.0609
   42CHL1    C6 5523   3.562   2.711   9.646 -0.3570  0.3762  0.7957
   42CHL1    H6 5524   3.481   2.719   9.721 -1.0710  1.6995 -0.1092
   42CHL1    C7 5525   3.583   2.820   9.550 -0.4573 -0.5766  0.4449
   42CHL1   H7A 5526   3.481   2.862   9.532 -0.0095 -0.2562 -1.4306
   42CHL1   H7B 5527   3.640   2.899   9.604  1.6401  0.3520 -2.9464
   42CHL1    C8 5528   3.655   2.776   9.428 -0.4706 -0.3928 -0.6091
   42CHL1    H8 5529   3.583   2.715   9.369  0.3589 -2.5523  0.5517
   42CHL1   C14 5530   3.716   2.887   9.340  0.1555  0.4341 -0.5311
   42CHL1   H14 5531   3.794   2.933   9.404 -1.6896  0.4464  1.7529
   42CHL1   C15 5532   3.612   2.990   9.309  0.6273 -0.5245  0.2273
   42CHL1  H15A 5533   3.507   2.954   9.307 -0.1862  1.5840  2.5217
   42CHL1  H15B 5534   3.610   3.060   9.396 -2.3048  0.7693 -0.8277
   42CHL1   C16 5535   3.649   3.043   9.173  0.0627  0.2525 -0.6444
   42CHL1  H16A 5536   3.565   3.020   9.104 -0.1330  1.6081 -0.8637
   42CHL1  H16B 5537   3.654   3.153   9.185  0.2289  0.2204 -0.4223
   42CHL1   C17 5538   3.778   2.980   9.129  0.0823  0.3549 -1.0565
   42CHL1   H17 5539   3.854   3.043   9.180 -2.9539  1.6339  2.0886
   42CHL1   C13 5540   3.779   2.844   9.203  0.2719  0.1450  0.0271
   42CHL1   C18 5541   3.690   2.747   9.117  0.0220  0.2571 -0.0673
   42CHL1  H18A 5542   3.598   2.802   9.089  0.6332  1.4415  0.2264
   42CHL1  H18B 5543   3.736   2.718   9.020  1.6367 -2.5487  1.4913
   42CHL1  H18C 5544   3.662   2.653   9.170 -1.0231  0.6077  0.0229
   42CHL1   C12 5545   3.912   2.775   9.235  0.3057 -0.8126  0.3765
   42CHL1  H12A 5546   3.953   2.731   9.142 -0.6110  0.7035 -0.7708
   42CHL1  H12B 5547   3.987   2.848   9.273 -2.3571  0.6873  2.9423
   42CHL1   C11 5548   3.878   2.659   9.336 -0.4002  0.5018  0.0405
   42CHL1  H11A 5549   3.837   2.575   9.275  2.2319 -0.5271 -0.3656
   42CHL1  H11B 5550   3.974   2.641   9.389  0.0390  1.1843 -0.5170
   42CHL1    C9 5551   3.780   2.682   9.453 -0.0276  0.5005 -0.3539
   42CHL1    H9 5552   3.834   2.747   9.525 -0.1935 -2.1409  2.2691
   42CHL1   C10 5553   3.743   2.564   9.541  0.2392  0.5273  0.0459
   42CHL1   C19 5554   3.677   2.448   9.451  0.0877  0.0981  0.3628
   42CHL1  H19A 5555   3.587   2.480   9.395 -0.8057 -0.5297  1.4117
   42CHL1  H19B 5556   3.751   2.416   9.374  0.0658  0.2653  0.2726
   42CHL1  H19C 5557   3.649   2.360   9.513  1.3005  1.6151  3.1375
   42CHL1    C1 5558   3.872   2.520   9.617 -0.9893 -0.0145 -1.2340
   42CHL1   H1A 5559   3.947   2.500   9.538 -0.6654 -0.8603 -0.7174
   42CHL1   H1B 5560   3.910   2.608   9.673  0.2234 -0.4314 -1.3924
   42CHL1    C2 5561   3.852   2.418   9.732 -1.0088  0.0178  0.3255
   42CHL1   H2A 5562   3.948   2.393   9.781 -0.7178 -0.7515 -0.6456
   42CHL1   H2B 5563   3.812   2.323   9.690  0.9212 -0.3463 -0.7254
   42CHL1   C20 5564   3.805   2.978   8.976 -0.1306 -0.2864 -0.5655
   42CHL1   H20 5565   3.716   2.932   8.927 -0.4746  0.9505 -1.1063
   42CHL1   C21 5566   3.934   2.902   8.938 -0.8839 -0.2977 -0.0618
   42CHL1  H21A 5567   4.018   2.939   9.000 -1.6777  1.4112  0.0446
   42CHL1  H21B 5568   3.951   2.918   8.829 -0.1599  1.0002  0.2352
   42CHL1  H21C 5569   3.915   2.793   8.942  0.0783 -0.4215  1.1470
   42CHL1   C22 5570   3.816   3.121   8.924 -0.5044 -0.2127  0.2662
   42CHL1  H22A 5571   3.833   3.120   8.814  1.0182  0.9248  0.4732
   42CHL1  H22B 5572   3.717   3.168   8.941 -0.3428 -0.1231  0.9488
   42CHL1   C23 5573   3.926   3.210   8.987  0.5982  0.4095 -0.5380
   42CHL1  H23A 5574   3.927   3.232   9.096  2.7047  1.8685 -0.8460
   42CHL1  H23B 5575   4.020   3.156   8.964  2.0891  3.2770 -1.3206
   42CHL1   C24 5576   3.918   3.347   8.926 -0.6589  0.5328 -0.0841
   42CHL1  H24A 5577   3.916   3.335   8.816  0.5123  0.9056 -0.1580
   42CHL1  H24B 5578   3.829   3.395   8.972  0.6153  0.2318  2.8032
   42CHL1   C25 5579   4.043   3.434   8.944 -0.3445 -0.0109  0.3961
   42CHL1   H25 5580   4.067   3.433   9.053 -3.0530 -0.5466  1.0332
   42CHL1   C26 5581   4.169   3.386   8.859 -0.3569  0.3211  0.1125
   42CHL1  H26A 5582   4.198   3.282   8.885 -1.1781  0.0607 -0.0104
   42CHL1  H26B 5583   4.143   3.382   8.751  5.3587  1.2935 -1.4880
   42CHL1  H26C 5584   4.247   3.463   8.879  0.1885 -0.6904  1.9302
   42CHL1   C27 5585   4.019   3.582   8.915  0.3039 -1.0766 -0.0262
   42CHL1  H27A 5586   3.991   3.600   8.809 -0.5082  0.6389  0.4646
   42CHL1  H27B 5587   3.930   3.616   8.972  0.2488 -2.6619  0.8617
   42CHL1  H27C 5588   4.111   3.641   8.936 -1.4431  1.0278  1.9377
   43CHL1    C3 5589   4.100   2.912  10.056  0.2267 -0.3028 -0.5565
   43CHL1    H3 5590   4.210   2.912  10.048  0.1196 -0.2430 -2.2127
   43CHL1    O3 5591   4.052   2.893  10.184  0.2702  0.1652  0.1665
   43CHL1   H3' 5592   3.958   2.906  10.167  0.8291  1.6593 -2.0607
   43CHL1    C4 5593   4.047   3.048  10.011  0.0061  0.4287 -0.0191
   43CHL1   H4A 5594   3.936   3.048  10.004  0.1451 -0.7290 -2.8717
   43CHL1   H4B 5595   4.066   3.127  10.086 -0.3409  0.7264 -0.2412
   43CHL1    C5 5596   4.118   3.087   9.880  0.8805 -0.3531 -0.3946
   43CHL1    C6 5597   4.172   3.210   9.863  0.0477  0.5399  0.3896
   43CHL1    H6 5598   4.169   3.282   9.946 -0.7960  2.2450 -1.0680
   43CHL1    C7 5599   4.235   3.248   9.726 -0.9308 -0.6136  0.5252
   43CHL1   H7A 5600   4.203   3.350   9.697  2.3756 -0.0643 -1.4791
   43CHL1   H7B 5601   4.343   3.245   9.753 -0.3142 -0.5481 -1.8767
   43CHL1    C8 5602   4.192   3.157   9.605  0.0939  0.2738  0.6394
   43CHL1    H8 5603   4.089   3.180   9.571 -0.1794 -3.4783 -1.3279
   43CHL1   C14 5604   4.286   3.177   9.482 -0.9147 -0.5947  0.3345
   43CHL1   H14 5605   4.380   3.136   9.524 -1.4722 -0.3067  1.8798
   43CHL1   C15 5606   4.339   3.317   9.448  0.2282  0.2068  0.4082
   43CHL1  H15A 5607   4.245   3.375   9.452 -0.5082 -0.6249 -3.0220
   43CHL1  H15B 5608   4.419   3.356   9.514  0.3987 -1.2523  1.1013
   43CHL1   C16 5609   4.390   3.302   9.300 -0.4367  0.1363  0.3189
   43CHL1  H16A 5610   4.329   3.359   9.227 -0.7858 -0.0533  0.4582
   43CHL1  H16B 5611   4.489   3.350   9.293 -0.5282  0.1720 -0.6952
   43CHL1   C17 5612   4.377   3.147   9.260  0.3795  0.6699  0.0101
   43CHL1   H17 5613   4.471   3.097   9.291 -0.6953 -1.5303 -0.2040
   43CHL1   C13 5614   4.264   3.098   9.356 -0.4102  0.7674  0.4659
   43CHL1   C18 5615   4.125   3.130   9.284 -0.4574  0.5047 -0.2167
   43CHL1  H18A 5616   4.125   3.233   9.243  1.0919  0.4748 -0.3114
   43CHL1  H18B 5617   4.104   3.065   9.196  1.5611  0.2675 -0.5434
   43CHL1  H18C 5618   4.040   3.113   9.353 -0.0242 -1.3985 -0.1224
   43CHL1   C12 5619   4.270   2.945   9.396  0.2953 -0.0736 -0.6582
   43CHL1  H12A 5620   4.253   2.865   9.321 -1.1845 -0.7415  0.3811
   43CHL1  H12B 5621   4.368   2.934   9.447 -1.4930  1.5429  3.2853
   43CHL1   C11 5622   4.167   2.924   9.511 -0.5378  0.7472  0.1587
   43CHL1  H11A 5623   4.067   2.951   9.471 -0.1920  4.3412  1.5356
   43CHL1  H11B 5624   4.160   2.817   9.543  0.6250  0.3376 -0.9107
   43CHL1    C9 5625   4.188   3.016   9.638 -1.0994  1.1417  0.5129
   43CHL1    H9 5626   4.294   3.002   9.667 -0.5605  2.5304 -0.7533
   43CHL1   C10 5627   4.106   2.987   9.766 -0.1078  0.2217 -0.2177
   43CHL1   C19 5628   3.962   2.978   9.713  0.4070  0.0443  0.0488
   43CHL1  H19A 5629   3.886   2.956   9.791 -2.4378  0.4462 -2.4875
   43CHL1  H19B 5630   3.937   3.071   9.657 -2.8317 -1.6824 -1.5034
   43CHL1  H19C 5631   3.941   2.893   9.645  0.5922  0.0411 -0.0038
   43CHL1    C1 5632   4.138   2.838   9.811 -0.6364  0.1040 -0.0471
   43CHL1   H1A 5633   4.106   2.757   9.742 -1.4333  0.7958 -0.5077
   43CHL1   H1B 5634   4.247   2.823   9.825 -1.0171 -0.9907  1.9313
   43CHL1    C2 5635   4.072   2.795   9.947 -0.2087  0.2296 -0.4388
   43CHL1   H2A 5636   4.117   2.698   9.977 -0.7485  0.0890 -0.0808
   43CHL1   H2B 5637   3.961   2.781   9.946 -0.0814 -0.7915 -1.3160
   43CHL1   C20 5638   4.360   3.125   9.111  0.1504  0.5220  0.7044
   43CHL1   H20 5639   4.260   3.164   9.082 -0.0058 -0.2939  0.1522
   43CHL1   C21 5640   4.373   2.973   9.082  0.1053 -0.4164 -0.8105
   43CHL1  H21A 5641   4.453   2.926   9.144  0.1487  3.0191  1.8737
   43CHL1  H21B 5642   4.393   2.956   8.974  1.2589 -1.0067 -0.5134
   43CHL1  H21C 5643   4.278   2.919   9.102  1.7892 -2.1404  3.0493
   43CHL1   C22 5644   4.466   3.207   9.023  0.4025 -0.9825  1.0584
   43CHL1  H22A 5645   4.445   3.315   9.036 -0.5789 -0.9060 -0.8999
   43CHL1  H22B 5646   4.567   3.175   9.055  0.9774 -0.4391 -0.1456
   43CHL1   C23 5647   4.473   3.184   8.868  0.3321  0.3117 -0.1312
   43CHL1  H23A 5648   4.510   3.079   8.861 -1.8998 -0.4030 -1.6245
   43CHL1  H23B 5649   4.367   3.175   8.839  0.4604 -0.5832 -0.3418
   43CHL1   C24 5650   4.541   3.285   8.777  0.7873  1.0688 -0.1759
   43CHL1  H24A 5651   4.501   3.388   8.790 -0.1207  0.3196  3.7068
   43CHL1  H24B 5652   4.646   3.279   8.814 -0.1579 -0.8904  2.3289
   43CHL1   C25 5653   4.545   3.251   8.626 -0.2610 -0.2200 -0.6988
   43CHL1   H25 5654   4.604   3.333   8.579 -1.0958  0.1572 -1.1025
   43CHL1   C26 5655   4.604   3.112   8.604  0.1413  1.0098 -0.4392
   43CHL1  H26A 5656   4.706   3.112   8.647 -0.2257 -0.3392  0.4500
   43CHL1  H26B 5657   4.548   3.027   8.648  2.2622 -0.7529 -1.0793
   43CHL1  H26C 5658   4.613   3.096   8.494 -1.0052 -2.3617 -0.0932
   43CHL1   C27 5659   4.412   3.256   8.564 -0.0052 -0.1762 -0.2938
   43CHL1  H27A 5660   4.425   3.250   8.453  0.2566 -1.8695 -0.1897
   43CHL1  H27B 5661   4.345   3.172   8.592  1.0855 -1.1843 -0.7088
   43CHL1  H27C 5662   4.357   3.351   8.581  0.3135 -0.1461  0.5393
   44CHL1    C3 5663   5.032   3.676  10.134  0.1435  0.5294 -0.5184
   44CHL1    H3 5664   5.093   3.583  10.125  0.3012  0.3103  2.3944
   44CHL1    O3 5665   5.004   3.692  10.270 -0.0056 -0.4537  0.2797
   44CHL1   H3' 5666   4.969   3.782  10.271  1.4601  0.1565 -1.3563
   44CHL1    C4 5667   5.106   3.799  10.078  0.0206  0.3805  0.1788
   44CHL1   H4A 5668   5.033   3.879  10.103 -1.9188 -0.6738 -1.9322
   44CHL1   H4B 5669   5.205   3.819  10.126 -1.1027  0.9216  2.3064
   44CHL1    C5 5670   5.128   3.800   9.928  0.6772 -0.3670  0.2493
   44CHL1    C6 5671   5.248   3.811   9.868  0.1217 -0.6397 -0.1638
   44CHL1    H6 5672   5.339   3.811   9.930  0.1538  2.1310 -0.1514
   44CHL1    C7 5673   5.265   3.835   9.715  0.8557 -0.7759 -0.1662
   44CHL1   H7A 5674   5.332   3.921   9.693 -0.4488 -0.3060 -2.4007
   44CHL1   H7B 5675   5.305   3.745   9.664 -0.8759 -2.2657  1.0436
   44CHL1    C8 5676   5.133   3.858   9.643 -0.1139 -0.0365 -0.5238
   44CHL1    H8 5677   5.102   3.964   9.653  3.0133  0.9253 -0.3841
   44CHL1   C14 5678   5.155   3.821   9.497 -0.1218  0.0464 -0.3950
   44CHL1   H14 5679   5.180   3.714   9.481  0.3863 -0.2407  2.0551
   44CHL1   C15 5680   5.283   3.889   9.437 -0.3508  0.4663 -0.7911
   44CHL1  H15A 5681   5.281   3.994   9.470  0.1829  0.3438 -0.3616
   44CHL1  H15B 5682   5.383   3.850   9.464 -0.6122  0.4275  0.1361
   44CHL1   C16 5683   5.253   3.867   9.286  0.0239 -0.4335  0.1152
   44CHL1  H16A 5684   5.278   3.964   9.237  1.8749 -1.0656 -0.2255
   44CHL1  H16B 5685   5.313   3.792   9.231  1.1412 -0.7733  1.7785
   44CHL1   C17 5686   5.101   3.818   9.273 -0.2802  0.2880 -0.0119
   44CHL1   H17 5687   5.101   3.708   9.256  1.9177  0.7078 -3.0214
   44CHL1   C13 5688   5.037   3.841   9.407  0.3024  0.6197  0.4191
   44CHL1   C18 5689   4.989   3.989   9.416  0.0057 -0.3633 -0.1841
   44CHL1  H18A 5690   4.972   4.031   9.518  1.4948 -0.8472  0.2860
   44CHL1  H18B 5691   5.058   4.059   9.365 -1.4743  0.1612 -1.4707
   44CHL1  H18C 5692   4.895   3.993   9.358  0.9591 -0.3456 -1.7650
   44CHL1   C12 5693   4.932   3.742   9.466  0.4725 -0.5037 -0.2513
   44CHL1  H12A 5694   4.835   3.737   9.412 -0.0369 -0.6784  0.6706
   44CHL1  H12B 5695   4.985   3.644   9.467  2.2653  0.4653  1.1671
   44CHL1   C11 5696   4.893   3.769   9.614 -0.4495  0.1036  0.6599
   44CHL1  H11A 5697   4.837   3.865   9.626 -0.5986 -0.0594  1.3135
   44CHL1  H11B 5698   4.835   3.689   9.663  3.3522 -1.7226  2.4517
   44CHL1    C9 5699   5.026   3.760   9.696 -0.2788  0.0099 -0.4715
   44CHL1    H9 5700   5.076   3.661   9.685 -0.0066  0.1618 -0.6067
   44CHL1   C10 5701   5.001   3.779   9.846 -0.0617  0.2385 -0.1578
   44CHL1   C19 5702   4.910   3.907   9.865  0.4430  0.3757 -0.3952
   44CHL1  H19A 5703   4.906   3.937   9.972 -1.1408 -1.3879  0.0561
   44CHL1  H19B 5704   4.929   3.996   9.802 -1.8363  0.6827 -0.7198
   44CHL1  H19C 5705   4.809   3.870   9.838  1.8789 -0.8673 -4.3839
   44CHL1    C1 5706   4.930   3.654   9.908  0.2430 -0.3376  0.2923
   44CHL1   H1A 5707   4.826   3.646   9.869  0.1855 -0.1038  0.3983
   44CHL1   H1B 5708   4.983   3.562   9.875 -0.6879 -0.8427  0.1915
   44CHL1    C2 5709   4.906   3.659  10.061 -0.7447 -0.2623  0.5691
   44CHL1   H2A 5710   4.853   3.564  10.086  0.1411 -0.3826  1.9908
   44CHL1   H2B 5711   4.835   3.743  10.076 -0.6898  0.1736 -1.4346
   44CHL1   C20 5712   5.044   3.875   9.144 -0.2026 -0.0341 -0.4330
   44CHL1   H20 5713   5.021   3.983   9.148  1.7674  0.3432  2.5194
   44CHL1   C21 5714   4.904   3.804   9.136  0.0433  0.0226  0.4338
   44CHL1  H21A 5715   4.857   3.827   9.038  2.9792 -1.9308 -1.5040
   44CHL1  H21B 5716   4.834   3.837   9.215 -0.6125 -0.6379  0.1273
   44CHL1  H21C 5717   4.917   3.694   9.138 -1.3855 -0.2302 -1.9629
   44CHL1   C22 5718   5.125   3.842   9.014 -0.7205 -0.1137 -0.2696
   44CHL1  H22A 5719   5.052   3.865   8.933  0.4780 -0.8556 -1.5986
   44CHL1  H22B 5720   5.206   3.918   9.005 -1.3603  0.5789 -0.2610
   44CHL1   C23 5721   5.163   3.699   8.981 -0.5583 -0.0114 -1.1321
   44CHL1  H23A 5722   5.224   3.661   9.066 -0.2056  2.5945 -0.1705
   44CHL1  H23B 5723   5.075   3.632   8.971 -3.5393  2.9148  3.4914
   44CHL1   C24 5724   5.258   3.682   8.865 -0.3760  0.1663 -0.6178
   44CHL1  H24A 5725   5.217   3.733   8.775  0.6604 -1.3124 -1.9789
   44CHL1  H24B 5726   5.358   3.726   8.884  0.2450 -0.8362 -1.4872
   44CHL1   C25 5727   5.282   3.537   8.814 -0.5429 -0.3805 -0.6438
   44CHL1   H25 5728   5.184   3.485   8.813 -0.0133 -1.6211  3.4560
   44CHL1   C26 5729   5.339   3.541   8.667 -0.0074  0.2431 -0.2446
   44CHL1  H26A 5730   5.326   3.443   8.617 -1.3081  0.3862 -0.2098
   44CHL1  H26B 5731   5.275   3.606   8.604 -0.6376  0.1817  0.3213
   44CHL1  H26C 5732   5.445   3.573   8.664  0.0379  0.3635  1.7243
   44CHL1   C27 5733   5.378   3.456   8.910 -0.9476  0.4777 -0.4374
   44CHL1  H27A 5734   5.349   3.461   9.017 -1.5270 -1.3977 -0.4817
   44CHL1  H27B 5735   5.392   3.351   8.875  0.3538  0.3704  0.3421
   44CHL1  H27C 5736   5.477   3.504   8.896  0.7583 -2.1591  1.8777
   45CHL1    C3 5737   1.951   1.959  10.141  0.2067  0.6063  0.4320
   45CHL1    H3 5738   1.978   2.065  10.161  1.9015  0.0804  0.9781
   45CHL1    O3 5739   1.955   1.902  10.263  0.0167 -0.0190 -0.0526
   45CHL1   H3' 5740   1.900   1.823  10.259 -0.2885  0.2118 -0.4691
   45CHL1    C4 5741   1.809   1.942  10.082  0.1165 -0.1571 -0.4593
   45CHL1   H4A 5742   1.775   1.837  10.077  0.1173 -0.0242 -4.3200
   45CHL1   H4B 5743   1.727   1.992  10.137 -0.0351 -2.5107  1.5756
   45CHL1    C5 5744   1.811   1.999   9.941 -0.2055  0.8003 -0.7794
   45CHL1    C6 5745   1.725   2.090   9.897  0.9239 -0.0485  0.3873
   45CHL1    H6 5746   1.643   2.123   9.963  0.2018  0.4658 -0.7547
   45CHL1    C7 5747   1.714   2.147   9.759  0.3012 -0.1811 -0.1119
   45CHL1   H7A 5748   1.608   2.155   9.726  0.9002 -0.2767 -2.1740
   45CHL1   H7B 5749   1.749   2.252   9.755  0.6943 -0.2121  2.1020
   45CHL1    C8 5750   1.779   2.066   9.646  0.0590 -0.1282 -0.3450
   45CHL1    H8 5751   1.812   2.146   9.576  2.8430 -0.3987  0.6125
   45CHL1   C14 5752   1.696   1.963   9.572 -0.3301 -0.3559  0.3554
   45CHL1   H14 5753   1.663   1.883   9.643 -0.2778  0.6027  1.4686
   45CHL1   C15 5754   1.575   2.025   9.503 -0.0206 -0.3821 -0.1479
   45CHL1  H15A 5755   1.481   2.033   9.562  1.1596  0.5841  1.6523
   45CHL1  H15B 5756   1.604   2.131   9.488  0.4331 -0.4629  0.1628
   45CHL1   C16 5757   1.560   1.983   9.361  0.2859 -0.1973  0.7229
   45CHL1  H16A 5758   1.506   1.886   9.353 -0.2605  0.1672 -0.0028
   45CHL1  H16B 5759   1.516   2.064   9.299  0.7388  2.2284  3.4647
   45CHL1   C17 5760   1.707   1.956   9.335 -0.7770  0.8802  0.5765
   45CHL1   H17 5761   1.754   2.056   9.322 -0.7505  0.8322  0.2933
   45CHL1   C13 5762   1.779   1.900   9.458  0.0350  0.8720  0.6639
   45CHL1   C18 5763   1.754   1.749   9.469 -0.3781  0.0435 -0.4401
   45CHL1  H18A 5764   1.773   1.721   9.574 -0.7779  2.2144  0.2405
   45CHL1  H18B 5765   1.646   1.726   9.458 -0.6323  1.2146 -0.5329
   45CHL1  H18C 5766   1.807   1.674   9.407 -1.5206  0.0076 -1.3999
   45CHL1   C12 5767   1.925   1.937   9.453 -0.0752 -0.1898 -0.1036
   45CHL1  H12A 5768   1.988   1.859   9.404 -0.5395 -2.0187  2.1436
   45CHL1  H12B 5769   1.938   2.034   9.401 -3.2518 -1.1109 -2.8313
   45CHL1   C11 5770   2.004   1.950   9.585  0.5237  0.7483  0.7206
   45CHL1  H11A 5771   2.029   1.844   9.607  1.6274  1.0815  1.0975
   45CHL1  H11B 5772   2.098   2.006   9.567  0.0444  1.5777  0.7856
   45CHL1    C9 5773   1.912   2.012   9.701  0.4255  0.5004  0.2827
   45CHL1    H9 5774   1.972   2.099   9.734  0.2150 -0.2295  2.7248
   45CHL1   C10 5775   1.914   1.939   9.844  0.3048 -0.5790  0.8012
   45CHL1   C19 5776   1.871   1.789   9.824 -0.3960 -0.7500  0.3390
   45CHL1  H19A 5777   1.763   1.786   9.799 -0.3782 -2.1626  0.3397
   45CHL1  H19B 5778   1.926   1.745   9.738  0.7703  2.1512 -0.4376
   45CHL1  H19C 5779   1.881   1.724   9.914 -2.3120 -0.6447  0.6527
   45CHL1    C1 5780   2.059   1.954   9.907  0.5035  0.3826 -0.7014
   45CHL1   H1A 5781   2.138   1.904   9.846  0.5203  2.4992 -2.4686
   45CHL1   H1B 5782   2.094   2.059   9.909  1.0396  0.2348 -1.6898
   45CHL1    C2 5783   2.064   1.902  10.055 -0.1529  0.0928  0.2349
   45CHL1   H2A 5784   2.167   1.926  10.089 -0.6169  0.3126  1.5171
   45CHL1   H2B 5785   2.055   1.791  10.050  2.1923 -0.4196  4.2945
   45CHL1   C20 5786   1.740   1.889   9.196  0.4098  0.5049 -0.0611
   45CHL1   H20 5787   1.772   1.783   9.206  0.1411  0.3870 -0.4440
   45CHL1   C21 5788   1.827   1.978   9.114  0.6926 -0.2149  0.1063
   45CHL1  H21A 5789   1.863   1.932   9.020  2.9304  3.1069 -0.7731
   45CHL1  H21B 5790   1.916   2.016   9.169  0.0383  2.2810 -0.4712
   45CHL1  H21C 5791   1.769   2.069   9.086  1.7917  0.7879  1.0423
   45CHL1   C22 5792   1.609   1.868   9.116  0.2592 -0.0376 -0.1855
   45CHL1  H22A 5793   1.534   1.816   9.180 -0.2263  0.5173 -0.3047
   45CHL1  H22B 5794   1.556   1.958   9.079  0.8269 -0.5114 -2.2213
   45CHL1   C23 5795   1.630   1.787   8.988  0.0733 -0.4523 -0.0133
   45CHL1  H23A 5796   1.677   1.851   8.909 -1.3645  0.8078  0.1220
   45CHL1  H23B 5797   1.692   1.696   8.998  2.5352  1.4215  2.4777
   45CHL1   C24 5798   1.492   1.743   8.930  0.5508  0.2927 -0.2247
   45CHL1  H24A 5799   1.429   1.677   8.994  3.3798 -0.1333  2.1753
   45CHL1  H24B 5800   1.424   1.831   8.926 -0.8495 -0.6043  2.4285
   45CHL1   C25 5801   1.486   1.684   8.785 -1.0516 -0.7406 -0.8710
   45CHL1   H25 5802   1.560   1.603   8.764 -1.0304 -0.8337 -0.4404
   45CHL1   C26 5803   1.352   1.636   8.731  0.2231  0.2798 -1.0133
   45CHL1  H26A 5804   1.375   1.594   8.630  2.7580 -2.3619  0.5780
   45CHL1  H26B 5805   1.332   1.546   8.794 -2.6366  1.3826 -0.2829
   45CHL1  H26C 5806   1.265   1.704   8.727  1.9252  2.5107 -0.9584
   45CHL1   C27 5807   1.529   1.801   8.689 -0.3145  0.4243  0.2454
   45CHL1  H27A 5808   1.456   1.885   8.693 -1.1728 -0.3014 -0.0257
   45CHL1  H27B 5809   1.634   1.827   8.717  0.4637 -2.2317 -0.1122
   45CHL1  H27C 5810   1.532   1.763   8.584 -0.6732  1.2189 -0.0556
   46CHL1    C3 5811   5.112   6.593  10.032 -0.3985  0.0042 -0.4408
   46CHL1    H3 5812   5.190   6.672  10.030 -0.3174 -0.0368  0.6472
   46CHL1    O3 5813   5.092   6.557  10.167 -0.0587 -0.3145  0.0786
   46CHL1   H3' 5814   5.029   6.484  10.170 -0.6336  0.1181 -1.2494
   46CHL1    C4 5815   4.975   6.640   9.977  0.4248  0.3165  0.8187
   46CHL1   H4A 5816   4.903   6.557   9.990  0.5882 -0.1030 -0.8447
   46CHL1   H4B 5817   4.939   6.723  10.041 -0.8147 -0.5925  1.3168
   46CHL1    C5 5818   4.971   6.687   9.833 -0.2152 -0.1230  0.0194
   46CHL1    C6 5819   4.938   6.813   9.798 -0.4289  0.1679 -0.1532
   46CHL1    H6 5820   4.903   6.889   9.870  0.1205  1.4102 -1.1734
   46CHL1    C7 5821   4.952   6.859   9.651 -0.4255 -0.4237  0.2420
   46CHL1   H7A 5822   4.857   6.912   9.628  0.0538  1.2661  1.9606
   46CHL1   H7B 5823   5.036   6.930   9.637 -0.7935  0.0209  0.2736
   46CHL1    C8 5824   4.968   6.741   9.553  0.3432  0.2594 -1.4142
   46CHL1    H8 5825   4.872   6.688   9.538  1.1078 -1.3156 -0.8812
   46CHL1   C14 5826   5.032   6.794   9.424  0.3087 -0.3716 -0.6630
   46CHL1   H14 5827   5.129   6.838   9.455  0.2081 -0.2319 -0.5439
   46CHL1   C15 5828   4.957   6.912   9.361  0.1056  0.7264 -0.2940
   46CHL1  H15A 5829   4.849   6.885   9.367  0.1070  1.0817  1.7660
   46CHL1  H15B 5830   4.971   7.013   9.405  2.0927 -0.3934  1.8159
   46CHL1   C16 5831   5.008   6.905   9.218 -0.4595  0.0306  0.7229
   46CHL1  H16A 5832   4.915   6.899   9.159  1.1035 -0.9249 -1.7375
   46CHL1  H16B 5833   5.060   6.994   9.177  0.3575 -0.4530  0.6739
   46CHL1   C17 5834   5.101   6.785   9.200 -0.0199  0.5634  0.6063
   46CHL1   H17 5835   5.203   6.819   9.227 -0.2670  1.0371  0.9604
   46CHL1   C13 5836   5.058   6.690   9.314 -0.8196  0.7900 -0.2454
   46CHL1   C18 5837   4.928   6.608   9.279  0.3119 -0.7855  0.3012
   46CHL1  H18A 5838   4.963   6.519   9.224  1.3196 -0.4634  0.4041
   46CHL1  H18B 5839   4.883   6.572   9.374  1.3531 -0.0440  1.0886
   46CHL1  H18C 5840   4.856   6.667   9.220  1.2669  0.1865  0.0959
   46CHL1   C12 5841   5.162   6.592   9.358  0.0410 -0.1579  0.6705
   46CHL1  H12A 5842   5.163   6.511   9.282 -2.0969  0.3424  0.0924
   46CHL1  H12B 5843   5.263   6.639   9.363 -0.6429  1.1428  2.7590
   46CHL1   C11 5844   5.124   6.534   9.496 -0.2929 -0.1524 -0.5742
   46CHL1  H11A 5845   5.051   6.452   9.483  0.2063 -0.4351 -1.5952
   46CHL1  H11B 5846   5.225   6.495   9.518  0.5141  1.5002 -1.2010
   46CHL1    C9 5847   5.077   6.640   9.605 -0.1638  0.8372 -0.1722
   46CHL1    H9 5848   5.168   6.703   9.607  2.5073 -2.8594 -1.0034
   46CHL1   C10 5849   5.034   6.581   9.740 -0.0265 -0.0110 -0.0289
   46CHL1   C19 5850   4.911   6.482   9.727 -0.0122 -0.0367 -0.3166
   46CHL1  H19A 5851   4.952   6.398   9.667 -1.8054  0.4401 -2.2941
   46CHL1  H19B 5852   4.860   6.460   9.823 -1.2122  0.8436 -0.7383
   46CHL1  H19C 5853   4.836   6.540   9.668 -0.3112  0.1065  0.1940
   46CHL1    C1 5854   5.162   6.508   9.799 -0.1949  0.7277  0.4890
   46CHL1   H1A 5855   5.156   6.415   9.739 -3.1470  1.1585  0.0337
   46CHL1   H1B 5856   5.260   6.558   9.782  0.0781  0.3113  0.8318
   46CHL1    C2 5857   5.153   6.473   9.949  0.0813 -0.6254  0.2790
   46CHL1   H2A 5858   5.254   6.429   9.962  0.6015  0.2417 -0.7062
   46CHL1   H2B 5859   5.079   6.391   9.957 -2.2381  1.5105  1.1702
   46CHL1   C20 5860   5.103   6.731   9.051 -0.0259 -0.8571 -0.2762
   46CHL1   H20 5861   5.017   6.662   9.044 -0.1442 -0.7634  0.2010
   46CHL1   C21 5862   5.246   6.669   9.025 -0.0763 -0.1045 -0.7461
   46CHL1  H21A 5863   5.307   6.755   8.990 -0.2515  0.8736  1.2678
   46CHL1  H21B 5864   5.230   6.584   8.955  0.8930 -1.4572  0.6434
   46CHL1  H21C 5865   5.290   6.646   9.124  1.2347 -2.8248 -1.9187
   46CHL1   C22 5866   5.076   6.839   8.943  0.0837  0.6269 -0.3278
   46CHL1  H22A 5867   4.966   6.852   8.939 -0.0343  0.4880  1.6453
   46CHL1  H22B 5868   5.143   6.923   8.970  1.0087 -0.0826 -0.3668
   46CHL1   C23 5869   5.106   6.791   8.793  0.1292 -0.0032  0.4004
   46CHL1  H23A 5870   5.211   6.755   8.789  0.5836  1.2883  0.6898
   46CHL1  H23B 5871   5.035   6.708   8.771  0.8001 -0.9912  1.9004
   46CHL1   C24 5872   5.099   6.913   8.696 -1.0933 -0.2532  0.0926
   46CHL1  H24A 5873   4.997   6.955   8.709 -0.8663  0.4693 -0.4447
   46CHL1  H24B 5874   5.177   6.985   8.729  2.6348 -3.0396 -2.1659
   46CHL1   C25 5875   5.111   6.892   8.546 -0.0611  0.4347 -0.2589
   46CHL1   H25 5876   5.026   6.822   8.530 -0.0515  0.0779  1.1913
   46CHL1   C26 5877   5.082   7.023   8.464 -0.3256  0.1518 -1.4842
   46CHL1  H26A 5878   5.097   6.995   8.358  0.8493  0.9985 -1.5513
   46CHL1  H26B 5879   4.980   7.062   8.481 -0.6103 -1.3335  0.4845
   46CHL1  H26C 5880   5.151   7.108   8.485 -0.3936  0.0303 -0.7351
   46CHL1   C27 5881   5.243   6.823   8.511 -0.4553  0.8526  0.0419
   46CHL1  H27A 5882   5.243   6.815   8.400  1.0335  0.4907  0.0499
   46CHL1  H27B 5883   5.323   6.891   8.546 -0.6302  1.4296 -0.6680
   46CHL1  H27C 5884   5.242   6.720   8.554 -0.0871  0.3803 -1.0498
   47CHL1    C3 5885   4.466   3.245  10.130 -0.0868  0.6600 -0.3005
   47CHL1    H3 5886   4.379   3.262  10.062  0.2546  2.6851 -0.2559
   47CHL1    O3 5887   4.416   3.244  10.264 -0.1065  0.0726  0.0829
   47CHL1   H3' 5888   4.335   3.193  10.253  0.8446 -1.2256 -1.1558
   47CHL1    C4 5889   4.522   3.109  10.093  0.1476  0.0587 -0.4529
   47CHL1   H4A 5890   4.602   3.071  10.160  0.4670 -1.4542 -1.6766
   47CHL1   H4B 5891   4.433   3.044  10.104 -0.0905  0.4220 -0.2186
   47CHL1    C5 5892   4.583   3.109   9.959 -0.0489 -0.2684 -0.5544
   47CHL1    C6 5893   4.545   3.011   9.871 -0.1092 -0.6522  0.5455
   47CHL1    H6 5894   4.467   2.939   9.897  0.3041 -0.8333  1.3023
   47CHL1    C7 5895   4.602   3.000   9.730  0.6215  0.0850 -0.0712
   47CHL1   H7A 5896   4.649   2.903   9.704  0.0233 -0.1011 -0.4514
   47CHL1   H7B 5897   4.522   3.008   9.653 -0.0728 -2.5647  0.3072
   47CHL1    C8 5898   4.717   3.100   9.691  0.3803  0.2519  0.2389
   47CHL1    H8 5899   4.803   3.058   9.748 -1.6747 -2.2962  1.5540
   47CHL1   C14 5900   4.728   3.121   9.540  0.1088 -0.5897  0.1470
   47CHL1   H14 5901   4.631   3.158   9.501  1.3131 -1.7576 -4.2466
   47CHL1   C15 5902   4.761   3.002   9.453 -0.2616  0.0394 -0.2374
   47CHL1  H15A 5903   4.853   2.967   9.505 -0.3656  0.7320  0.4244
   47CHL1  H15B 5904   4.690   2.917   9.452 -1.6270  1.1674 -0.0789
   47CHL1   C16 5905   4.794   3.059   9.316  0.2495 -0.0612  0.4703
   47CHL1  H16A 5906   4.881   3.004   9.276  0.4410  0.7617 -0.2694
   47CHL1  H16B 5907   4.712   3.047   9.242  1.1218  2.7609 -1.0379
   47CHL1   C17 5908   4.813   3.211   9.339 -0.4335  0.1603  0.5279
   47CHL1   H17 5909   4.721   3.266   9.309 -1.0869 -1.0371  0.3024
   47CHL1   C13 5910   4.830   3.230   9.490 -0.1781 -0.1026 -0.5136
   47CHL1   C18 5911   4.974   3.190   9.537  0.1730  0.4603  0.2476
   47CHL1  H18A 5912   4.978   3.153   9.641 -3.2400 -0.7694  0.0161
   47CHL1  H18B 5913   5.001   3.107   9.468 -3.6558 -0.7659  0.1286
   47CHL1  H18C 5914   5.050   3.268   9.516 -1.3460  1.9135  0.0064
   47CHL1   C12 5915   4.789   3.368   9.547  0.8624  0.0039 -0.1702
   47CHL1  H12A 5916   4.859   3.452   9.528 -0.0084  0.7325 -0.1675
   47CHL1  H12B 5917   4.686   3.398   9.518  0.6467  0.5448  1.1129
   47CHL1   C11 5918   4.772   3.359   9.705  0.1008 -0.5259  0.7748
   47CHL1  H11A 5919   4.872   3.346   9.751  0.6282  2.7582  0.6463
   47CHL1  H11B 5920   4.732   3.456   9.741  0.0700 -1.2801  2.8381
   47CHL1    C9 5921   4.681   3.239   9.757  0.3638  0.2374  0.1596
   47CHL1    H9 5922   4.581   3.265   9.718  0.5154  1.2996  0.4701
   47CHL1   C10 5923   4.669   3.232   9.913 -0.8914 -0.0415 -0.0485
   47CHL1   C19 5924   4.811   3.211   9.975 -0.0772 -0.0992  0.3507
   47CHL1  H19A 5925   4.869   3.120   9.947  1.3862  1.0961 -0.5808
   47CHL1  H19B 5926   4.879   3.294   9.948 -0.9353  0.4462 -0.1690
   47CHL1  H19C 5927   4.801   3.225  10.085  3.0942  1.2968  0.4942
   47CHL1    C1 5928   4.613   3.366   9.971  0.2250 -1.0223  0.3309
   47CHL1   H1A 5929   4.694   3.441   9.958  0.9054 -2.0688 -1.6711
   47CHL1   H1B 5930   4.534   3.402   9.901 -0.3618  2.0690  2.4731
   47CHL1    C2 5931   4.567   3.362  10.120  0.4242  0.0845  0.3067
   47CHL1   H2A 5932   4.535   3.463  10.154  0.8680  1.1156 -2.2596
   47CHL1   H2B 5933   4.655   3.324  10.177  0.8511 -0.6480 -0.8221
   47CHL1   C20 5934   4.923   3.282   9.250  0.2588 -0.2166  0.3938
   47CHL1   H20 5935   5.017   3.222   9.255 -0.0877 -0.6519  1.7532
   47CHL1   C21 5936   4.962   3.424   9.299  0.5252  0.2833  0.4542
   47CHL1  H21A 5937   5.035   3.460   9.224 -1.0126  1.4854 -0.5149
   47CHL1  H21B 5938   5.026   3.434   9.389  1.9677 -0.8578 -0.4257
   47CHL1  H21C 5939   4.872   3.489   9.312 -1.0210 -1.1624 -2.4493
   47CHL1   C22 5940   4.881   3.293   9.100  0.4446 -0.2343 -0.2010
   47CHL1  H22A 5941   4.813   3.211   9.069 -1.2334  1.4214 -0.9806
   47CHL1  H22B 5942   4.827   3.390   9.093 -0.3320 -0.4042  2.7656
   47CHL1   C23 5943   4.999   3.292   8.997 -0.2955  0.0586  0.1777
   47CHL1  H23A 5944   5.075   3.371   9.015 -1.9375  2.0656 -1.4704
   47CHL1  H23B 5945   5.058   3.199   9.016  1.5518  1.1665  0.0134
   47CHL1   C24 5946   4.950   3.293   8.848  0.3635 -0.2968 -0.4005
   47CHL1  H24A 5947   4.860   3.228   8.843 -0.6304  0.8299  1.9673
   47CHL1  H24B 5948   4.927   3.399   8.824  2.1911  0.1866 -0.0533
   47CHL1   C25 5949   5.046   3.236   8.746  0.6254  0.1267  0.9505
   47CHL1   H25 5950   5.144   3.288   8.735  0.2253  0.4772 -1.1820
   47CHL1   C26 5951   5.104   3.093   8.768  0.5313 -0.3305 -0.2728
   47CHL1  H26A 5952   5.028   3.015   8.793  0.9739 -0.4435  0.7261
   47CHL1  H26B 5953   5.178   3.096   8.850 -0.0218  0.6091  0.1899
   47CHL1  H26C 5954   5.156   3.056   8.677  1.0073  1.7461 -0.8581
   47CHL1   C27 5955   4.970   3.257   8.608 -0.3787  0.1348 -0.5391
   47CHL1  H27A 5956   4.870   3.210   8.603 -0.4440 -0.0218  1.7220
   47CHL1  H27B 5957   4.949   3.366   8.598  3.3252  1.0465  0.7859
   47CHL1  H27C 5958   5.027   3.229   8.518  2.2188  1.9110  0.5008
   48CHL1    C3 5959   5.881   3.464  10.160 -0.1644  1.1284  0.5312
   48CHL1    H3 5960   5.781   3.472  10.112  0.0555 -0.9526 -0.3372
   48CHL1    O3 5961   5.850   3.432  10.292 -0.4959  0.4719  0.3049
   48CHL1   H3' 5962   5.932   3.411  10.337  1.0855  0.1903 -2.5674
   48CHL1    C4 5963   5.938   3.330  10.084  0.5319  0.2043 -0.1464
   48CHL1   H4A 5964   6.029   3.290  10.135  0.8594  1.6235  0.4045
   48CHL1   H4B 5965   5.859   3.252  10.086  0.0865  0.6400 -1.0677
   48CHL1    C5 5966   5.988   3.369   9.950 -0.2954  0.7539  0.0955
   48CHL1    C6 5967   5.939   3.299   9.844  0.9445  0.0878 -0.0456
   48CHL1    H6 5968   5.868   3.216   9.853 -1.5142  2.0435 -0.9153
   48CHL1    C7 5969   5.986   3.320   9.703  0.1969 -0.0395  0.5219
   48CHL1   H7A 5970   6.003   3.220   9.660  1.1266 -0.4512  1.8043
   48CHL1   H7B 5971   5.902   3.361   9.643  1.2084  0.2172 -0.7500
   48CHL1    C8 5972   6.108   3.411   9.690 -0.3600  0.6085 -0.5882
   48CHL1    H8 5973   6.191   3.339   9.709 -1.5290 -1.1606 -2.0256
   48CHL1   C14 5974   6.127   3.457   9.543  0.3251  0.1357 -0.1855
   48CHL1   H14 5975   6.039   3.520   9.520  0.3796  0.3144  0.0951
   48CHL1   C15 5976   6.136   3.350   9.436 -0.2508  0.2474 -0.4317
   48CHL1  H15A 5977   6.180   3.255   9.472 -1.2199  0.0019  0.1508
   48CHL1  H15B 5978   6.038   3.318   9.394 -1.6795  1.4584  1.8542
   48CHL1   C16 5979   6.208   3.422   9.324  0.2181  0.4972 -0.1040
   48CHL1  H16A 5980   6.300   3.365   9.302  0.8074  1.8397 -1.1867
   48CHL1  H16B 5981   6.147   3.409   9.232 -1.6194  0.1610  1.1263
   48CHL1   C17 5982   6.239   3.567   9.379 -0.4895 -0.1326 -0.0802
   48CHL1   H17 5983   6.153   3.636   9.368 -0.8093 -0.8318 -2.0911
   48CHL1   C13 5984   6.251   3.548   9.531  0.4718 -0.2582  0.0146
   48CHL1   C18 5985   6.376   3.464   9.561 -0.4443  0.1282  0.6169
   48CHL1  H18A 5986   6.360   3.391   9.644  2.1243 -0.2885  0.7904
   48CHL1  H18B 5987   6.417   3.402   9.479  1.7365  0.6497  1.2702
   48CHL1  H18C 5988   6.460   3.533   9.584 -1.2172  1.6908 -1.1067
   48CHL1   C12 5989   6.225   3.674   9.625  0.4297 -0.4086  0.3432
   48CHL1  H12A 5990   6.299   3.754   9.604 -1.1721  0.7816 -0.9361
   48CHL1  H12B 5991   6.122   3.714   9.607  1.3726  1.5319 -0.8819
   48CHL1   C11 5992   6.223   3.631   9.773  0.1503  0.5797  0.0618
   48CHL1  H11A 5993   6.323   3.595   9.803 -0.4326 -1.3818 -0.3126
   48CHL1  H11B 5994   6.196   3.716   9.840 -1.8821  0.6479 -0.8145
   48CHL1    C9 5995   6.108   3.526   9.790 -0.3186  0.5007  0.2610
   48CHL1    H9 5996   6.013   3.580   9.767  0.8452  2.7594  0.5725
   48CHL1   C10 5997   6.087   3.484   9.939 -0.1962  0.0598  0.1059
   48CHL1   C19 5998   6.227   3.441   9.999  0.4825 -0.4559  0.8824
   48CHL1  H19A 5999   6.248   3.348   9.943 -0.0065  0.8388 -1.5628
   48CHL1  H19B 6000   6.310   3.513   9.982 -1.1229  0.9636 -1.4188
   48CHL1  H19C 6001   6.232   3.422  10.108 -0.9300  0.2792  1.0911
   48CHL1    C1 6002   6.040   3.609  10.024 -0.2543  0.2813 -0.5767
   48CHL1   H1A 6003   6.130   3.671  10.044  1.6574 -1.9693 -1.8569
   48CHL1   H1B 6004   5.965   3.656   9.956 -0.5690  0.2317 -0.2625
   48CHL1    C2 6005   5.980   3.571  10.159 -0.3753  0.4087  0.4787
   48CHL1   H2A 6006   5.940   3.656  10.217 -1.0528  0.2584  0.2375
   48CHL1   H2B 6007   6.063   3.535  10.222 -0.4028  0.8498  0.7693
   48CHL1   C20 6008   6.357   3.631   9.307 -0.0681 -0.2137 -0.3817
   48CHL1   H20 6009   6.454   3.596   9.347 -1.1991 -0.6543  2.0624
   48CHL1   C21 6010   6.346   3.789   9.320  0.4150 -0.4558  0.1734
   48CHL1  H21A 6011   6.268   3.827   9.250  0.4508  0.6832  0.7420
   48CHL1  H21B 6012   6.446   3.835   9.306  1.0220 -1.2988  1.6015
   48CHL1  H21C 6013   6.319   3.823   9.422 -2.3599 -0.8527 -0.3823
   48CHL1   C22 6014   6.359   3.598   9.155  0.1625  0.4166 -0.2600
   48CHL1  H22A 6015   6.379   3.489   9.142  2.9473  0.8273  0.2081
   48CHL1  H22B 6016   6.265   3.608   9.098 -0.3958 -0.3259  0.5078
   48CHL1   C23 6017   6.463   3.687   9.067 -0.6537 -0.2008 -0.1156
   48CHL1  H23A 6018   6.452   3.797   9.078  0.1375 -0.0900 -0.4413
   48CHL1  H23B 6019   6.564   3.666   9.107  0.5507  1.5292 -2.1269
   48CHL1   C24 6020   6.442   3.646   8.920  0.4561  0.4270  0.1440
   48CHL1  H24A 6021   6.412   3.540   8.910  2.9698 -0.3422  0.2837
   48CHL1  H24B 6022   6.350   3.695   8.881  1.0251  0.9659 -0.5381
   48CHL1   C25 6023   6.555   3.678   8.823 -0.2552  0.4464  0.0981
   48CHL1   H25 6024   6.615   3.756   8.874 -0.4269 -0.2192  1.3236
   48CHL1   C26 6025   6.649   3.560   8.794 -0.2855 -0.1287 -0.9362
   48CHL1  H26A 6026   6.739   3.591   8.736  0.4771  0.1735  0.3710
   48CHL1  H26B 6027   6.677   3.514   8.892 -1.1651  0.6193 -0.3288
   48CHL1  H26C 6028   6.602   3.474   8.742  1.3793 -0.3725 -2.0873
   48CHL1   C27 6029   6.498   3.736   8.692  0.4616  0.5070 -0.7229
   48CHL1  H27A 6030   6.581   3.773   8.628  0.3897 -0.3617 -1.3225
   48CHL1  H27B 6031   6.433   3.660   8.644  0.6321  0.1558 -0.4017
   48CHL1  H27C 6032   6.436   3.826   8.716  2.5294  1.6182  0.5719
   49CHL1    C3 6033   4.444   6.053  10.109 -0.1251  0.2975 -0.2718
   49CHL1    H3 6034   4.370   5.982  10.066 -0.9978  1.6107 -0.9650
   49CHL1    O3 6035   4.421   6.036  10.249 -0.6649  0.0560 -0.1752
   49CHL1   H3' 6036   4.490   6.092  10.284 -0.6716  1.1852 -1.9139
   49CHL1    C4 6037   4.590   6.026  10.052  0.1047 -0.7689 -0.1301
   49CHL1   H4A 6038   4.661   6.082  10.116 -0.2807  0.7006 -0.9498
   49CHL1   H4B 6039   4.610   5.922  10.086 -1.4259 -1.4378 -1.1877
   49CHL1    C5 6040   4.600   6.048   9.900  0.5256 -0.7605  0.0868
   49CHL1    C6 6041   4.636   5.945   9.832  0.5398 -0.4394 -0.2922
   49CHL1    H6 6042   4.658   5.849   9.880 -0.7885 -0.1365  0.9275
   49CHL1    C7 6043   4.639   5.960   9.684  0.7348 -0.8852 -0.5212
   49CHL1   H7A 6044   4.732   5.912   9.647  0.9078 -1.5596  0.7450
   49CHL1   H7B 6045   4.548   5.917   9.636  0.3119 -1.5152  0.8137
   49CHL1    C8 6046   4.635   6.101   9.626  0.0458 -0.0409 -0.1014
   49CHL1    H8 6047   4.732   6.147   9.652  0.2013 -0.3226 -0.1799
   49CHL1   C14 6048   4.615   6.107   9.475  0.5403 -1.4652 -0.1619
   49CHL1   H14 6049   4.520   6.057   9.447 -0.2375  1.0530 -2.1420
   49CHL1   C15 6050   4.716   6.023   9.396  0.3893 -0.1118  0.7599
   49CHL1  H15A 6051   4.820   6.040   9.431  0.6186  2.0166 -0.8545
   49CHL1  H15B 6052   4.697   5.913   9.401  3.2115 -0.5962  1.5647
   49CHL1   C16 6053   4.702   6.083   9.251  0.1678 -0.0008 -0.6414
   49CHL1  H16A 6054   4.801   6.093   9.203  0.3478  0.0188 -0.2698
   49CHL1  H16B 6055   4.637   6.016   9.192 -1.2146  0.9245 -0.1965
   49CHL1   C17 6056   4.616   6.215   9.261  0.0624  0.0278  0.4266
   49CHL1   H17 6057   4.510   6.188   9.240  0.4001 -0.5401 -0.5488
   49CHL1   C13 6058   4.610   6.246   9.413  0.2542 -0.8476 -0.2008
   49CHL1   C18 6059   4.741   6.324   9.448  0.1836  0.0240  0.0294
   49CHL1  H18A 6060   4.742   6.426   9.402 -0.2038 -0.3739 -0.8799
   49CHL1  H18B 6061   4.762   6.343   9.555  0.9366 -0.3787 -0.0402
   49CHL1  H18C 6062   4.824   6.271   9.396 -0.4364 -0.0011 -0.9454
   49CHL1   C12 6063   4.491   6.321   9.479 -0.8324  0.5161  0.5336
   49CHL1  H12A 6064   4.489   6.430   9.456 -0.1851  0.6541  1.1388
   49CHL1  H12B 6065   4.392   6.281   9.448 -0.8360  1.1279 -0.2845
   49CHL1   C11 6066   4.497   6.316   9.628 -0.5108  0.4157 -0.0930
   49CHL1  H11A 6067   4.578   6.386   9.658  0.9867 -0.7217 -1.4268
   49CHL1  H11B 6068   4.399   6.354   9.665  0.0736  0.9845  0.9161
   49CHL1    C9 6069   4.521   6.179   9.690 -0.0767  0.2347 -0.7859
   49CHL1    H9 6070   4.433   6.123   9.651 -0.1998  0.3634 -0.6944
   49CHL1   C10 6071   4.543   6.179   9.846  0.3490 -0.7357  0.0040
   49CHL1   C19 6072   4.643   6.288   9.887 -0.1986  0.1053  0.0610
   49CHL1  H19A 6073   4.735   6.253   9.837  0.5568 -1.5493  2.4965
   49CHL1  H19B 6074   4.610   6.393   9.876 -0.5852  0.0477  0.6510
   49CHL1  H19C 6075   4.675   6.273   9.993  0.6504 -1.6695 -0.4348
   49CHL1    C1 6076   4.406   6.208   9.917  0.4988 -0.0181  0.0067
   49CHL1   H1A 6077   4.354   6.301   9.888 -0.2529  0.0939  1.6563
   49CHL1   H1B 6078   4.343   6.123   9.882  0.5546  0.1607 -0.5369
   49CHL1    C2 6079   4.401   6.198  10.070 -0.2776  0.9937 -0.1985
   49CHL1   H2A 6080   4.297   6.228  10.091  0.2702  1.6906  1.5936
   49CHL1   H2B 6081   4.467   6.268  10.125  1.2525  0.6032 -1.4715
   49CHL1   C20 6082   4.630   6.316   9.143 -0.1730 -0.3133 -0.1023
   49CHL1   H20 6083   4.736   6.349   9.138  0.8926 -3.3448  1.2171
   49CHL1   C21 6084   4.536   6.437   9.159  0.4255  0.0554  0.1853
   49CHL1  H21A 6085   4.586   6.491   9.243 -0.1902  0.4345  0.3180
   49CHL1  H21B 6086   4.430   6.406   9.166 -0.4427  2.5899 -0.9172
   49CHL1  H21C 6087   4.532   6.507   9.073  2.1361 -0.8467 -0.6348
   49CHL1   C22 6088   4.618   6.246   8.997 -0.2467  0.4133 -0.2563
   49CHL1  H22A 6089   4.660   6.146   8.975  0.0726  0.7377 -1.1375
   49CHL1  H22B 6090   4.508   6.237   8.989 -0.4130 -0.5952  2.5508
   49CHL1   C23 6091   4.674   6.342   8.896 -0.0693 -0.1216  0.2943
   49CHL1  H23A 6092   4.627   6.442   8.909  0.7208 -0.0438  2.7817
   49CHL1  H23B 6093   4.782   6.350   8.922  0.2251 -0.4674 -0.8106
   49CHL1   C24 6094   4.651   6.308   8.750  0.4768  0.1391 -0.4563
   49CHL1  H24A 6095   4.547   6.271   8.735  1.0261 -1.5062 -0.3983
   49CHL1  H24B 6096   4.669   6.398   8.688  0.6787  1.2072  1.1339
   49CHL1   C25 6097   4.737   6.190   8.702  0.0982  0.0233  0.5815
   49CHL1   H25 6098   4.727   6.115   8.783 -0.3463  0.6676  1.1324
   49CHL1   C26 6099   4.687   6.144   8.568 -0.0041  0.2914 -0.8005
   49CHL1  H26A 6100   4.719   6.204   8.480  2.7111 -0.5003 -0.4119
   49CHL1  H26B 6101   4.712   6.037   8.552  1.0237  0.4644 -0.4365
   49CHL1  H26C 6102   4.577   6.150   8.556 -0.3914 -3.8110 -0.0847
   49CHL1   C27 6103   4.893   6.220   8.690 -0.6653 -0.2043 -0.3318
   49CHL1  H27A 6104   4.951   6.128   8.670 -0.9004 -0.3807 -0.1935
   49CHL1  H27B 6105   4.911   6.297   8.611 -0.4379 -0.9082 -0.9796
   49CHL1  H27C 6106   4.930   6.276   8.779  0.1618 -1.6665  0.2539
   50CHL1    C3 6107   1.040   1.224  10.181 -0.4163  0.1348  0.9375
   50CHL1    H3 6108   1.026   1.117  10.204 -1.7648 -0.2452 -1.4659
   50CHL1    O3 6109   1.041   1.301  10.297  0.7460 -0.0856 -0.5951
   50CHL1   H3' 6110   0.970   1.366  10.300  0.6643 -0.1196 -1.6450
   50CHL1    C4 6111   1.173   1.242  10.120 -0.5873 -0.4177 -0.3159
   50CHL1   H4A 6112   1.200   1.350  10.128  1.6888 -1.0491  0.8879
   50CHL1   H4B 6113   1.252   1.207  10.190  0.7766  1.6869 -0.7623
   50CHL1    C5 6114   1.190   1.188   9.980  0.0642 -0.2242  0.7682
   50CHL1    C6 6115   1.284   1.098   9.943  0.0380 -0.3386  0.0996
   50CHL1    H6 6116   1.355   1.065  10.021  2.0606 -0.2020 -1.6609
   50CHL1    C7 6117   1.310   1.044   9.808 -0.7915 -0.4945  0.8677
   50CHL1   H7A 6118   1.418   1.059   9.789 -1.1370  3.6934  1.7140
   50CHL1   H7B 6119   1.280   0.939   9.785  1.3734 -0.4880 -2.3181
   50CHL1    C8 6120   1.238   1.135   9.707  0.6560 -0.2733  0.2057
   50CHL1    H8 6121   1.283   1.236   9.696  0.5654 -0.3057 -0.4844
   50CHL1   C14 6122   1.242   1.075   9.564 -0.0750  0.2250 -0.0393
   50CHL1   H14 6123   1.201   0.974   9.586 -1.0005  0.2427 -1.5647
   50CHL1   C15 6124   1.378   1.033   9.503 -0.2577 -0.1642  0.5309
   50CHL1  H15A 6125   1.456   1.110   9.521  0.4415 -1.0698  1.3886
   50CHL1  H15B 6126   1.418   0.942   9.552 -0.7105 -0.6891 -0.0686
   50CHL1   C16 6127   1.337   1.019   9.355 -0.2758 -0.0668  0.5405
   50CHL1  H16A 6128   1.403   1.089   9.299  1.5555 -1.4481  0.9127
   50CHL1  H16B 6129   1.348   0.916   9.315  0.1890  0.4663 -0.7156
   50CHL1   C17 6130   1.187   1.059   9.336  0.6451  0.8394 -0.1527
   50CHL1   H17 6131   1.129   0.965   9.346 -0.0326  1.3073  0.3642
   50CHL1   C13 6132   1.156   1.142   9.457  0.0157 -0.3246 -0.4460
   50CHL1   C18 6133   1.207   1.287   9.419 -1.1713  0.1298  0.5639
   50CHL1  H18A 6134   1.131   1.337   9.356 -1.3165  0.1973  0.7912
   50CHL1  H18B 6135   1.233   1.344   9.511 -0.5559  1.6019 -0.4998
   50CHL1  H18C 6136   1.306   1.281   9.369 -1.6515 -1.5935 -0.2168
   50CHL1   C12 6137   1.012   1.135   9.511  0.5782  0.8262  0.2806
   50CHL1  H12A 6138   0.940   1.172   9.435 -0.3590  0.2963  0.9037
   50CHL1  H12B 6139   0.979   1.029   9.506  0.0988  0.8863  1.9434
   50CHL1   C11 6140   0.994   1.213   9.636 -0.3698 -0.0935  0.0377
   50CHL1  H11A 6141   1.011   1.320   9.613  0.8478 -0.6490 -1.7264
   50CHL1  H11B 6142   0.890   1.206   9.674 -2.5965 -0.9056 -5.7033
   50CHL1    C9 6143   1.085   1.157   9.743  0.0470 -0.2110  0.4549
   50CHL1    H9 6144   1.056   1.050   9.755 -0.1733 -0.1647  0.3351
   50CHL1   C10 6145   1.076   1.233   9.885  0.2491 -0.3209 -0.2171
   50CHL1   C19 6146   1.088   1.384   9.855  1.1200  0.1866  0.1576
   50CHL1  H19A 6147   1.090   1.442   9.949  1.3148  2.1822 -1.0476
   50CHL1  H19B 6148   1.172   1.402   9.784  0.6217  0.8865 -0.2588
   50CHL1  H19C 6149   0.998   1.421   9.802  1.0246  1.6471  1.3174
   50CHL1    C1 6150   0.937   1.201   9.951  0.7012  0.0382  0.2506
   50CHL1   H1A 6151   0.868   1.252   9.882  2.4337  2.0614 -0.0233
   50CHL1   H1B 6152   0.912   1.093   9.945  0.4566  0.0381  1.1893
   50CHL1    C2 6153   0.919   1.268  10.088 -0.0541  0.2430 -0.8992
   50CHL1   H2A 6154   0.827   1.231  10.139 -0.9766 -0.3183 -2.8995
   50CHL1   H2B 6155   0.922   1.378  10.075 -1.1329  0.6222  1.7118
   50CHL1   C20 6156   1.170   1.114   9.192  0.4000  0.1715  0.0528
   50CHL1   H20 6157   1.216   1.214   9.184 -0.6408  0.5551 -1.2446
   50CHL1   C21 6158   1.024   1.136   9.151  0.0205  0.5377  0.2111
   50CHL1  H21A 6159   1.021   1.206   9.065 -1.4039  0.3325  0.0833
   50CHL1  H21B 6160   0.972   1.201   9.226 -1.0362  2.4496 -2.1241
   50CHL1  H21C 6161   0.970   1.043   9.123  0.5767 -0.0974  1.1877
   50CHL1   C22 6162   1.236   1.035   9.070 -0.0559  0.2286 -0.5281
   50CHL1  H22A 6163   1.207   1.080   8.972  0.2452 -0.3676 -0.8969
   50CHL1  H22B 6164   1.345   1.033   9.093  0.2868  0.8841 -2.0261
   50CHL1   C23 6165   1.196   0.885   9.061  0.1313  0.0404  0.2710
   50CHL1  H23A 6166   1.204   0.828   9.156  2.5676 -0.1082  0.0035
   50CHL1  H23B 6167   1.091   0.875   9.025  1.0891 -2.2283 -2.0659
   50CHL1   C24 6168   1.285   0.815   8.965  0.0959 -0.4640 -0.0550
   50CHL1  H24A 6169   1.270   0.843   8.858 -1.3557 -1.0423 -0.0170
   50CHL1  H24B 6170   1.393   0.832   8.985  0.4337 -1.8406 -0.6215
   50CHL1   C25 6171   1.271   0.664   8.970 -0.9854 -0.2965 -0.4687
   50CHL1   H25 6172   1.314   0.635   9.068  0.6877  0.4518 -0.9637
   50CHL1   C26 6173   1.125   0.617   8.959 -0.3386 -0.9401  0.2997
   50CHL1  H26A 6174   1.073   0.666   8.875  1.6140 -1.5628 -1.3024
   50CHL1  H26B 6175   1.114   0.509   8.934 -0.8567 -1.1484  1.3778
   50CHL1  H26C 6176   1.071   0.647   9.051 -0.4877 -1.3758  0.3566
   50CHL1   C27 6177   1.358   0.602   8.859  0.5922 -0.1266 -0.2338
   50CHL1  H27A 6178   1.316   0.627   8.759  0.0860  1.2117  0.2976
   50CHL1  H27B 6179   1.468   0.618   8.863  0.4618  0.2806  3.8152
   50CHL1  H27C 6180   1.342   0.493   8.872  1.6950 -0.2448  0.1628
   51CHL1    C3 6181   2.303   3.493  10.119  0.1392  0.0048  0.2354
   51CHL1    H3 6182   2.389   3.553  10.157  0.0958 -0.1775  0.6323
   51CHL1    O3 6183   2.241   3.427  10.233 -0.0223  0.2570 -0.2463
   51CHL1   H3' 6184   2.316   3.407  10.290 -0.3339  2.0315  0.8299
   51CHL1    C4 6185   2.190   3.567  10.048  0.2879 -0.7687 -0.2255
   51CHL1   H4A 6186   2.125   3.486  10.008 -0.7665  0.4174 -0.9295
   51CHL1   H4B 6187   2.130   3.630  10.117 -1.8549 -0.0530 -2.6654
   51CHL1    C5 6188   2.246   3.650   9.934  0.8814 -0.5095 -0.2702
   51CHL1    C6 6189   2.244   3.790   9.940 -0.0858  0.1052  0.2699
   51CHL1    H6 6190   2.192   3.844  10.021 -0.0243 -1.2791  1.2457
   51CHL1    C7 6191   2.292   3.876   9.822 -0.3068 -0.4959 -0.1625
   51CHL1   H7A 6192   2.223   3.960   9.801 -0.8517 -0.3652  2.0453
   51CHL1   H7B 6193   2.385   3.922   9.861 -0.5162  0.0104 -0.2526
   51CHL1    C8 6194   2.318   3.791   9.696 -0.0852  0.9924  0.1440
   51CHL1    H8 6195   2.223   3.751   9.655  0.7140 -0.3984 -0.3882
   51CHL1   C14 6196   2.405   3.872   9.593 -0.3241  0.0405  0.3625
   51CHL1   H14 6197   2.503   3.898   9.638  0.2864  0.0146 -0.9144
   51CHL1   C15 6198   2.336   4.001   9.544  0.0508 -0.5609 -0.0725
   51CHL1  H15A 6199   2.226   3.986   9.537 -0.2554  1.1168  0.9476
   51CHL1  H15B 6200   2.357   4.082   9.616  0.5866  0.5694 -1.4685
   51CHL1   C16 6201   2.407   4.031   9.411 -1.1156 -0.1562  0.4831
   51CHL1  H16A 6202   2.330   4.048   9.332 -0.4461  0.6091 -0.0095
   51CHL1  H16B 6203   2.468   4.123   9.421 -0.2314 -0.6685 -0.1681
   51CHL1   C17 6204   2.499   3.911   9.376  0.3755  0.1476  0.4283
   51CHL1   H17 6205   2.600   3.941   9.412  0.8998  0.0495 -0.9349
   51CHL1   C13 6206   2.435   3.798   9.468  0.2702 -0.1570 -0.0807
   51CHL1   C18 6207   2.307   3.740   9.394 -0.1456  0.3676 -1.2775
   51CHL1  H18A 6208   2.251   3.668   9.457 -0.1879  0.2219 -1.4785
   51CHL1  H18B 6209   2.244   3.829   9.374  0.6768  0.6790 -2.5724
   51CHL1  H18C 6210   2.328   3.677   9.305 -1.1422  0.5517 -1.6484
   51CHL1   C12 6211   2.537   3.692   9.513  0.0486  0.1375  0.3680
   51CHL1  H12A 6212   2.569   3.635   9.423  2.2307  2.7884 -0.6088
   51CHL1  H12B 6213   2.618   3.747   9.565  1.1731 -1.2204  0.0775
   51CHL1   C11 6214   2.475   3.590   9.616 -0.5535 -0.2306  0.9763
   51CHL1  H11A 6215   2.401   3.531   9.558  0.6416  1.5765 -2.5688
   51CHL1  H11B 6216   2.554   3.527   9.661 -0.8603 -1.5840 -0.3500
   51CHL1    C9 6217   2.398   3.663   9.731  0.2988 -0.1832  0.3908
   51CHL1    H9 6218   2.484   3.697   9.793 -1.8441  1.8605  2.3890
   51CHL1   C10 6219   2.317   3.568   9.825  0.1168  0.5205 -0.7328
   51CHL1   C19 6220   2.212   3.483   9.744 -0.0526 -0.3150 -0.5605
   51CHL1  H19A 6221   2.154   3.412   9.807 -1.1975 -0.6494 -1.9508
   51CHL1  H19B 6222   2.137   3.544   9.688 -1.8032 -1.4180  0.5272
   51CHL1  H19C 6223   2.274   3.425   9.673 -0.3019  0.9358 -1.8211
   51CHL1    C1 6224   2.424   3.475   9.895  0.0119 -0.2507  0.0732
   51CHL1   H1A 6225   2.462   3.399   9.823  4.2514  1.2546  0.5626
   51CHL1   H1B 6226   2.505   3.545   9.925 -0.1339 -0.2811  0.5419
   51CHL1    C2 6227   2.372   3.400  10.015  0.1032  0.2270 -1.3057
   51CHL1   H2A 6228   2.449   3.333  10.060 -1.3121 -0.3016  0.3891
   51CHL1   H2B 6229   2.295   3.325   9.987  1.6577 -0.8563 -2.8091
   51CHL1   C20 6230   2.495   3.881   9.221 -0.6203  0.8723 -0.2229
   51CHL1   H20 6231   2.398   3.852   9.177 -0.2222  1.5838 -1.6055
   51CHL1   C21 6232   2.599   3.772   9.193 -0.1616 -0.1990  0.1803
   51CHL1  H21A 6233   2.615   3.754   9.085 -0.7747  2.0716 -0.3151
   51CHL1  H21B 6234   2.563   3.671   9.223 -3.0433  0.7781  0.0700
   51CHL1  H21C 6235   2.695   3.792   9.245 -0.0569  1.1442 -0.5169
   51CHL1   C22 6236   2.535   4.009   9.144  0.4357  0.6146 -0.5043
   51CHL1  H22A 6237   2.511   4.105   9.193 -1.7724 -0.8815  1.4656
   51CHL1  H22B 6238   2.646   4.008   9.153  0.4941 -1.4771 -1.0946
   51CHL1   C23 6239   2.481   4.008   9.006  0.3987  0.2594 -0.3900
   51CHL1  H23A 6240   2.508   3.915   8.952 -1.0719  2.1223 -4.4758
   51CHL1  H23B 6241   2.373   4.020   9.026  1.0060  2.6407  1.8046
   51CHL1   C24 6242   2.542   4.125   8.920  0.3391 -0.0066 -0.1815
   51CHL1  H24A 6243   2.539   4.216   8.983  1.4897  1.8764 -2.7607
   51CHL1  H24B 6244   2.643   4.122   8.876  0.0526 -0.1042 -0.8378
   51CHL1   C25 6245   2.458   4.160   8.801  0.2467 -0.6712  0.2371
   51CHL1   H25 6246   2.354   4.178   8.838 -0.7425 -2.3651 -1.6028
   51CHL1   C26 6247   2.508   4.292   8.740  0.2697  0.9272  0.1341
   51CHL1  H26A 6248   2.617   4.285   8.719  0.5867  3.2430  0.9191
   51CHL1  H26B 6249   2.457   4.319   8.645  0.6065  1.0227 -0.0220
   51CHL1  H26C 6250   2.494   4.367   8.820  2.1919  1.3304  0.1322
   51CHL1   C27 6251   2.450   4.056   8.693 -0.7252  0.2551 -0.2407
   51CHL1  H27A 6252   2.387   3.972   8.731  1.1755 -1.2543 -0.3569
   51CHL1  H27B 6253   2.403   4.089   8.598  1.1824 -1.6405 -1.8833
   51CHL1  H27C 6254   2.551   4.013   8.675 -1.2670 -0.4546 -1.6100
   52CHL1    C3 6255   4.793   2.674   9.887 -0.5289 -0.3373 -0.4651
   52CHL1    H3 6256   4.702   2.673   9.824 -3.1170  0.2819  3.1642
   52CHL1    O3 6257   4.760   2.666  10.019  0.4698  0.1700 -0.5898
   52CHL1   H3' 6258   4.665   2.683  10.019  0.1258 -1.2616  2.5855
   52CHL1    C4 6259   4.881   2.551   9.839 -0.4103 -0.1558  0.1376
   52CHL1   H4A 6260   4.969   2.548   9.907 -1.3877  0.5704  1.4756
   52CHL1   H4B 6261   4.827   2.455   9.855 -0.8669  0.6762  4.4580
   52CHL1    C5 6262   4.930   2.555   9.695 -0.2279  0.3306  0.1462
   52CHL1    C6 6263   4.905   2.464   9.597 -0.2316  0.0096 -0.2103
   52CHL1    H6 6264   4.855   2.366   9.609  0.2727 -0.2678 -0.3733
   52CHL1    C7 6265   4.960   2.487   9.463  1.0781  0.2952 -0.7565
   52CHL1   H7A 6266   4.987   2.395   9.408 -2.0376 -1.0119 -0.2013
   52CHL1   H7B 6267   4.867   2.516   9.409  1.2677  0.4616 -0.9971
   52CHL1    C8 6268   5.069   2.591   9.438 -0.7712  0.1115  0.4328
   52CHL1    H8 6269   5.164   2.552   9.481 -0.3467  2.1618  1.4468
   52CHL1   C14 6270   5.075   2.619   9.285 -0.7460 -0.7238  0.0914
   52CHL1   H14 6271   4.973   2.657   9.263 -0.2913  0.1163 -0.5748
   52CHL1   C15 6272   5.112   2.501   9.190  0.7399 -0.1128  0.0460
   52CHL1  H15A 6273   5.196   2.442   9.233  3.8443  0.8243 -4.3517
   52CHL1  H15B 6274   5.026   2.436   9.161  1.3407 -0.3228 -1.3120
   52CHL1   C16 6275   5.172   2.562   9.066  0.4108  0.3285 -0.2742
   52CHL1  H16A 6276   5.273   2.519   9.048  0.6046  1.8603 -3.2143
   52CHL1  H16B 6277   5.107   2.553   8.976  0.2463  0.5782 -0.1784
   52CHL1   C17 6278   5.190   2.715   9.091  0.4268  0.2676 -0.1310
   52CHL1   H17 6279   5.092   2.764   9.070  0.4516 -0.2657 -1.5022
   52CHL1   C13 6280   5.180   2.721   9.248  0.8022 -0.5468 -0.2784
   52CHL1   C18 6281   5.320   2.676   9.298  0.1194 -0.3764 -0.0044
   52CHL1  H18A 6282   5.323   2.666   9.409 -0.1740  0.1172  0.0495
   52CHL1  H18B 6283   5.349   2.574   9.264 -1.1092 -0.9922  0.7393
   52CHL1  H18C 6284   5.397   2.750   9.268  0.9985 -1.2335  0.1380
   52CHL1   C12 6285   5.149   2.857   9.319 -0.1748 -0.1520 -0.6079
   52CHL1  H12A 6286   5.232   2.931   9.309  0.7542 -0.5354  3.3162
   52CHL1  H12B 6287   5.059   2.898   9.269  0.4506  1.6078 -0.3289
   52CHL1   C11 6288   5.112   2.841   9.473 -0.2532  0.4311 -0.3166
   52CHL1  H11A 6289   5.211   2.843   9.522  1.4643 -1.2233 -3.5551
   52CHL1  H11B 6290   5.067   2.936   9.510 -0.0990  1.4107 -2.5804
   52CHL1    C9 6291   5.024   2.714   9.509 -0.2522 -0.2307  0.0619
   52CHL1    H9 6292   4.920   2.728   9.473 -0.0790 -0.5429 -0.5601
   52CHL1   C10 6293   5.007   2.687   9.665  0.0490 -0.0531 -0.8008
   52CHL1   C19 6294   5.149   2.681   9.731  0.3698  0.7509 -0.0656
   52CHL1  H19A 6295   5.206   2.776   9.724  2.0928 -0.2631  0.0563
   52CHL1  H19B 6296   5.135   2.668   9.841 -2.3540 -1.7633 -0.6378
   52CHL1  H19C 6297   5.203   2.588   9.703 -0.7567 -0.4595  1.6025
   52CHL1    C1 6298   4.929   2.808   9.720 -0.1713 -0.0889  0.0084
   52CHL1   H1A 6299   4.985   2.902   9.701 -1.2214  0.6894  0.6798
   52CHL1   H1B 6300   4.838   2.817   9.655 -0.4434 -0.7663  0.2930
   52CHL1    C2 6301   4.879   2.798   9.867 -0.0232  1.2035  0.4185
   52CHL1   H2A 6302   4.818   2.891   9.877 -0.8600  0.7486 -0.4115
   52CHL1   H2B 6303   4.964   2.804   9.939  0.2206  2.9994  0.0124
   52CHL1   C20 6304   5.305   2.780   9.015 -0.6394  0.3323  0.1122
   52CHL1   H20 6305   5.402   2.728   9.029 -1.8688 -2.1559 -0.1556
   52CHL1   C21 6306   5.328   2.923   9.056  0.1769  0.5759  0.5546
   52CHL1  H21A 6307   5.377   2.992   8.985  0.5852  1.6164  1.8257
   52CHL1  H21B 6308   5.387   2.924   9.150  1.9532 -2.9855 -0.4205
   52CHL1  H21C 6309   5.230   2.968   9.080 -0.5417 -0.3388 -0.6184
   52CHL1   C22 6310   5.280   2.773   8.865 -0.5311 -0.4259  0.0041
   52CHL1  H22A 6311   5.273   2.666   8.836  0.2382 -0.4451 -0.1190
   52CHL1  H22B 6312   5.190   2.830   8.834 -0.0544 -0.3220 -1.2092
   52CHL1   C23 6313   5.400   2.839   8.784  0.1168  0.0773  1.2330
   52CHL1  H23A 6314   5.391   2.950   8.780  3.4128  0.4886  2.9270
   52CHL1  H23B 6315   5.501   2.816   8.826  1.9641  2.1695 -1.8155
   52CHL1   C24 6316   5.400   2.783   8.641  0.2096 -0.2951 -0.0622
   52CHL1  H24A 6317   5.439   2.679   8.640 -0.3470 -0.4999 -3.1572
   52CHL1  H24B 6318   5.296   2.773   8.603  0.6598 -2.0100 -0.9003
   52CHL1   C25 6319   5.497   2.850   8.540 -0.1930 -0.3213  0.0235
   52CHL1   H25 6320   5.596   2.862   8.589 -0.3496  1.8585 -0.1499
   52CHL1   C26 6321   5.519   2.769   8.412 -0.5809  0.1856  0.2086
   52CHL1  H26A 6322   5.576   2.827   8.337  0.9487 -1.0713  0.3664
   52CHL1  H26B 6323   5.572   2.674   8.436 -0.8705 -0.0428 -0.0480
   52CHL1  H26C 6324   5.419   2.741   8.372 -0.6176  1.9990 -1.0491
   52CHL1   C27 6325   5.461   2.997   8.502  0.1054  0.2991  0.0081
   52CHL1  H27A 6326   5.445   3.072   8.583 -1.9964  0.4978 -0.5816
   52CHL1  H27B 6327   5.546   3.037   8.442  0.6231 -0.5688  0.1544
   52CHL1  H27C 6328   5.361   2.999   8.454  0.0406 -0.7580  0.0897
   53CHL1    C3 6329   6.583   2.440  10.193 -1.1189 -0.3944 -0.4726
   53CHL1    H3 6330   6.591   2.347  10.132  2.8416  0.0812 -0.7909
   53CHL1    O3 6331   6.522   2.424  10.320 -0.1865  0.0335  0.4049
   53CHL1   H3' 6332   6.525   2.505  10.371  1.5363 -0.2295  0.7258
   53CHL1    C4 6333   6.728   2.501  10.194  0.3636 -0.6926 -0.5569
   53CHL1   H4A 6334   6.714   2.597  10.249 -0.9283  0.5098 -2.8848
   53CHL1   H4B 6335   6.790   2.434  10.255  1.0600  0.1820 -0.2928
   53CHL1    C5 6336   6.781   2.526  10.056 -0.0640  0.0496  0.3098
   53CHL1    C6 6337   6.899   2.476  10.012 -0.3243  0.2288  0.5089
   53CHL1    H6 6338   6.958   2.411  10.078 -1.5109 -0.1315  1.2350
   53CHL1    C7 6339   6.952   2.504   9.872 -0.0908  0.6382 -0.6276
   53CHL1   H7A 6340   7.054   2.542   9.893 -0.3874  1.2640 -0.2908
   53CHL1   H7B 6341   6.936   2.414   9.809 -0.5228  0.4659 -0.2794
   53CHL1    C8 6342   6.888   2.626   9.803 -0.1750 -0.6053 -1.0378
   53CHL1    H8 6343   6.932   2.721   9.839  0.0562 -0.9802 -0.3114
   53CHL1   C14 6344   6.913   2.606   9.656 -0.8883  0.1363  1.0045
   53CHL1   H14 6345   6.874   2.507   9.627  2.0410 -0.9038  0.4032
   53CHL1   C15 6346   7.059   2.597   9.614 -0.0702  0.5938 -0.1806
   53CHL1  H15A 6347   7.122   2.675   9.662 -2.4440  3.3075 -1.3071
   53CHL1  H15B 6348   7.116   2.505   9.639 -0.9283  0.2017  0.3313
   53CHL1   C16 6349   7.058   2.613   9.465 -0.3028 -0.3596 -0.2229
   53CHL1  H16A 6350   7.145   2.669   9.423 -0.0470 -0.7463 -0.2053
   53CHL1  H16B 6351   7.059   2.515   9.414 -2.2407  0.3573 -1.7341
   53CHL1   C17 6352   6.911   2.658   9.427  0.0454 -0.2145 -0.1354
   53CHL1   H17 6353   6.857   2.565   9.399  0.1896  0.0014 -1.1783
   53CHL1   C13 6354   6.855   2.708   9.554 -0.6766  0.2033 -1.1137
   53CHL1   C18 6355   6.909   2.857   9.574 -0.4498  0.0316  0.1140
   53CHL1  H18A 6356   7.020   2.868   9.568 -0.4698 -0.3313 -1.0105
   53CHL1  H18B 6357   6.865   2.923   9.497 -0.3159 -0.3459 -0.2854
   53CHL1  H18C 6358   6.873   2.897   9.672  2.1854  0.0267  1.1373
   53CHL1   C12 6359   6.704   2.698   9.582 -0.2406 -0.2994  0.4840
   53CHL1  H12A 6360   6.640   2.767   9.522  1.4053  1.7617  1.0436
   53CHL1  H12B 6361   6.660   2.601   9.550 -3.0332  0.4814  1.8175
   53CHL1   C11 6362   6.669   2.724   9.729  0.1758 -0.1780 -0.2242
   53CHL1  H11A 6363   6.692   2.827   9.765 -2.7606  0.3249  0.3260
   53CHL1  H11B 6364   6.558   2.722   9.742  0.2782 -0.7931  0.6668
   53CHL1    C9 6365   6.739   2.624   9.830  0.3317  0.8029 -0.3027
   53CHL1    H9 6366   6.710   2.524   9.792 -2.6721  2.1259 -1.6947
   53CHL1   C10 6367   6.690   2.614   9.973  0.3334  0.0840 -0.0546
   53CHL1   C19 6368   6.697   2.763  10.033  0.0491 -0.2211 -0.6785
   53CHL1  H19A 6369   6.658   2.770  10.136  0.5470  0.3209 -0.5233
   53CHL1  H19B 6370   6.805   2.788  10.028  0.2147 -0.9881 -1.0977
   53CHL1  H19C 6371   6.647   2.840   9.969  0.4505  1.0066  0.4869
   53CHL1    C1 6372   6.544   2.568   9.984  0.7748 -0.2982  0.5443
   53CHL1   H1A 6373   6.492   2.657   9.941  0.5004 -0.4088  0.6454
   53CHL1   H1B 6374   6.531   2.484   9.913  0.1864 -0.6827  1.1017
   53CHL1    C2 6375   6.489   2.534  10.119 -0.4339 -0.8857  0.2079
   53CHL1   H2A 6376   6.390   2.486  10.105 -0.3075 -1.1631  0.2543
   53CHL1   H2B 6377   6.470   2.621  10.184 -0.7853  0.9134 -2.2468
   53CHL1   C20 6378   6.904   2.744   9.298 -0.7952  0.8877 -0.6881
   53CHL1   H20 6379   6.937   2.849   9.314 -2.7284  1.1493  2.1121
   53CHL1   C21 6380   6.757   2.756   9.248 -0.3242 -0.0432  0.6324
   53CHL1  H21A 6381   6.765   2.801   9.147 -1.2063  1.0399  1.0319
   53CHL1  H21B 6382   6.679   2.804   9.310 -1.0600 -0.2398 -0.1281
   53CHL1  H21C 6383   6.721   2.651   9.239  0.6215 -0.4383  1.3600
   53CHL1   C22 6384   6.978   2.671   9.184 -0.4433 -0.9014 -0.4796
   53CHL1  H22A 6385   7.046   2.591   9.221 -1.5820 -1.7391 -0.1564
   53CHL1  H22B 6386   6.900   2.617   9.125 -1.1636  0.5888 -0.9145
   53CHL1   C23 6387   7.050   2.778   9.091  0.0530 -0.0664 -0.1514
   53CHL1  H23A 6388   6.972   2.847   9.054  2.1313  1.3247 -2.0097
   53CHL1  H23B 6389   7.122   2.839   9.150 -0.3794  1.0628 -0.7852
   53CHL1   C24 6390   7.132   2.721   8.978  0.2646 -0.2802  0.4434
   53CHL1  H24A 6391   7.237   2.713   9.014 -0.0671  0.0531  1.4886
   53CHL1  H24B 6392   7.109   2.614   8.960  3.3125 -1.0863  1.0255
   53CHL1   C25 6393   7.124   2.802   8.848  0.4809 -0.3399  0.7503
   53CHL1   H25 6394   7.018   2.822   8.822  1.3415  1.1389 -1.8236
   53CHL1   C26 6395   7.212   2.931   8.861 -0.0029 -0.2709 -0.8673
   53CHL1  H26A 6396   7.309   2.916   8.914 -0.9869  0.2687  1.1385
   53CHL1  H26B 6397   7.237   2.972   8.761  0.6348 -0.2938 -0.7219
   53CHL1  H26C 6398   7.163   3.012   8.918 -0.5502 -2.2585  1.5625
   53CHL1   C27 6399   7.181   2.723   8.732 -0.3215 -0.1697 -0.2315
   53CHL1  H27A 6400   7.119   2.632   8.715 -0.7500  0.3341 -1.4450
   53CHL1  H27B 6401   7.175   2.791   8.644  1.9915  2.2704  1.4054
   53CHL1  H27C 6402   7.284   2.692   8.757  0.0658  1.7766  0.7146
   54CHL1    C3 6403   6.743   3.704  10.044  1.0325  0.6238 -1.2714
   54CHL1    H3 6404   6.813   3.618  10.042 -0.0753 -0.2907 -1.7355
   54CHL1    O3 6405   6.676   3.738  10.169  0.2627  0.1046 -0.1366
   54CHL1   H3' 6406   6.627   3.657  10.183 -0.6859  0.4669 -1.2561
   54CHL1    C4 6407   6.824   3.826  10.000  0.1184  1.2737 -0.2573
   54CHL1   H4A 6408   6.762   3.918  10.005 -1.6358  0.0639  0.8217
   54CHL1   H4B 6409   6.910   3.820  10.070  0.0253 -1.9311 -0.3362
   54CHL1    C5 6410   6.881   3.817   9.860 -0.2801  0.0442  0.1008
   54CHL1    C6 6411   7.012   3.826   9.831  0.2194 -0.4825 -0.0307
   54CHL1    H6 6412   7.077   3.842   9.919 -0.2185  2.1495 -0.1458
   54CHL1    C7 6413   7.066   3.832   9.695 -0.6088 -0.1875  0.2738
   54CHL1   H7A 6414   7.137   3.913   9.665 -0.9262 -0.2733 -0.7345
   54CHL1   H7B 6415   7.121   3.739   9.673 -0.0599  0.2000  0.0001
   54CHL1    C8 6416   6.957   3.849   9.583  0.0862  0.6781  0.2935
   54CHL1    H8 6417   6.928   3.956   9.578  0.9400  0.8190 -4.1024
   54CHL1   C14 6418   6.997   3.799   9.447  0.3424  0.4210  0.7033
   54CHL1   H14 6419   7.003   3.688   9.451  0.9395  0.3943 -0.8154
   54CHL1   C15 6420   7.138   3.842   9.393  0.1597 -0.1747  0.5231
   54CHL1  H15A 6421   7.149   3.952   9.403 -1.5390 -0.0753  1.6501
   54CHL1  H15B 6422   7.225   3.789   9.437  0.3889 -0.5479 -0.3822
   54CHL1   C16 6423   7.121   3.821   9.241  0.1665  0.0419  0.2124
   54CHL1  H16A 6424   7.125   3.926   9.203 -0.9054 -1.0445 -3.0776
   54CHL1  H16B 6425   7.202   3.765   9.190  1.3714  0.7053  1.3580
   54CHL1   C17 6426   6.972   3.770   9.217  0.0331 -0.0711  0.3173
   54CHL1   H17 6427   6.976   3.661   9.238 -0.5209 -0.6436 -2.3471
   54CHL1   C13 6428   6.897   3.830   9.334 -0.5025  0.3020  0.3387
   54CHL1   C18 6429   6.866   3.983   9.305  0.4727  0.3710 -0.3264
   54CHL1  H18A 6430   6.801   4.023   9.385  0.6981  2.5330 -1.1948
   54CHL1  H18B 6431   6.963   4.037   9.315  0.0779  0.9134  0.6874
   54CHL1  H18C 6432   6.806   3.998   9.214  1.1306  0.9722 -0.6644
   54CHL1   C12 6433   6.774   3.755   9.356 -0.4992  0.3469  0.4568
   54CHL1  H12A 6434   6.693   3.786   9.287 -0.9195 -2.4860 -0.3668
   54CHL1  H12B 6435   6.790   3.646   9.345 -2.3254 -0.2169  2.7601
   54CHL1   C11 6436   6.720   3.788   9.499 -0.2517 -0.2093 -0.0526
   54CHL1  H11A 6437   6.686   3.893   9.503  1.1449  0.2040  3.2257
   54CHL1  H11B 6438   6.633   3.720   9.513 -1.5535  1.3379 -0.5516
   54CHL1    C9 6439   6.824   3.771   9.613 -0.5955 -0.3086 -0.1354
   54CHL1    H9 6440   6.857   3.665   9.613 -1.1327 -0.4746 -0.4464
   54CHL1   C10 6441   6.766   3.799   9.756 -0.4154  0.1495  0.0752
   54CHL1   C19 6442   6.699   3.947   9.755 -0.0220  0.2296  0.3478
   54CHL1  H19A 6443   6.771   4.020   9.712  1.2607  0.2126  2.3991
   54CHL1  H19B 6444   6.609   3.939   9.691  0.0021 -0.2682  0.3749
   54CHL1  H19C 6445   6.665   3.991   9.851  0.2626  0.6911  0.2411
   54CHL1    C1 6446   6.676   3.680   9.807  0.2348 -0.1842 -0.3452
   54CHL1   H1A 6447   6.588   3.676   9.739  0.1475 -2.2382 -0.1695
   54CHL1   H1B 6448   6.731   3.584   9.794  2.0692  1.1227 -2.6647
   54CHL1    C2 6449   6.627   3.681   9.951  0.1516 -0.7237  0.4618
   54CHL1   H2A 6450   6.580   3.582   9.970 -0.1482 -0.2012  2.6677
   54CHL1   H2B 6451   6.549   3.758   9.971  0.0469 -1.0629  1.3959
   54CHL1   C20 6452   6.912   3.771   9.076  0.2568 -0.3676  0.1954
   54CHL1   H20 6453   6.804   3.797   9.071  1.2239  3.8623 -0.5028
   54CHL1   C21 6454   6.938   3.641   9.002 -0.0233 -0.5566  0.1326
   54CHL1  H21A 6455   6.881   3.564   9.059  0.1892 -0.4294  0.5205
   54CHL1  H21B 6456   7.047   3.620   8.994  0.6962  2.7980  0.4545
   54CHL1  H21C 6457   6.882   3.636   8.906 -0.3559  1.6789  0.1892
   54CHL1   C22 6458   6.964   3.879   8.984  0.8088  0.4891 -0.5518
   54CHL1  H22A 6459   6.943   3.974   9.036 -0.5124  0.8751 -1.7744
   54CHL1  H22B 6460   7.071   3.853   8.965  0.2047 -2.3132 -0.4091
   54CHL1   C23 6461   6.896   3.903   8.850  0.9438 -0.2448  0.0862
   54CHL1  H23A 6462   6.918   3.824   8.775 -1.1725 -1.6371  0.8693
   54CHL1  H23B 6463   6.791   3.891   8.885  1.0550 -0.5164  0.3291
   54CHL1   C24 6464   6.935   4.041   8.790  0.5696 -0.4986 -0.5730
   54CHL1  H24A 6465   6.917   4.117   8.869  0.5165 -1.1888  0.0834
   54CHL1  H24B 6466   7.044   4.036   8.769  0.6532  0.9638 -0.5529
   54CHL1   C25 6467   6.867   4.073   8.657 -0.3405  0.6311 -0.2793
   54CHL1   H25 6468   6.758   4.066   8.673 -0.3044  0.5839 -0.0515
   54CHL1   C26 6469   6.893   4.214   8.617 -0.2461  0.0195 -0.1292
   54CHL1  H26A 6470   6.996   4.225   8.576 -1.0120 -0.3991 -2.2206
   54CHL1  H26B 6471   6.816   4.240   8.541 -1.9045  1.5529  2.0208
   54CHL1  H26C 6472   6.881   4.279   8.707  1.6640  0.9236 -0.4958
   54CHL1   C27 6473   6.899   3.967   8.540  0.6153 -0.0255  0.2997
   54CHL1  H27A 6474   6.825   3.960   8.457  0.4018  2.7496  0.2034
   54CHL1  H27B 6475   7.002   3.984   8.503  0.0157  2.2753 -0.4073
   54CHL1  H27C 6476   6.892   3.864   8.582  1.7356 -0.1446  0.2007
   55CHL1    C3 6477   0.332   1.060  10.208 -0.3259 -0.6822 -0.3787
   55CHL1    H3 6478   0.436   1.030  10.234 -0.4277 -1.4490 -0.8417
   55CHL1    O3 6479   0.264   1.076  10.329  0.0462 -0.2001 -0.3916
   55CHL1   H3' 6480   0.249   0.986  10.361  1.2934 -0.6900 -1.1377
   55CHL1    C4 6481   0.327   1.189  10.126  0.0973 -0.1485 -0.2295
   55CHL1   H4A 6482   0.224   1.231  10.122  0.3207  0.3484 -0.9625
   55CHL1   H4B 6483   0.382   1.269  10.181 -0.0016  0.1962 -0.6297
   55CHL1    C5 6484   0.390   1.159   9.991  0.4789 -0.3221  0.5220
   55CHL1    C6 6485   0.496   1.234   9.948  0.3190 -0.4456 -0.4467
   55CHL1    H6 6486   0.541   1.308  10.017  0.3660 -0.0458 -0.9046
   55CHL1    C7 6487   0.566   1.219   9.816  0.8475 -0.2916  0.7381
   55CHL1   H7A 6488   0.613   1.310   9.772  0.6232 -0.4059  0.2544
   55CHL1   H7B 6489   0.646   1.143   9.826 -1.4381 -2.7820  0.7113
   55CHL1    C8 6490   0.463   1.148   9.717  0.2698  0.5064  0.1807
   55CHL1    H8 6491   0.378   1.216   9.692 -1.5913 -2.1855 -1.0170
   55CHL1   C14 6492   0.527   1.104   9.587 -0.0999  0.7088 -0.2692
   55CHL1   H14 6493   0.615   1.040   9.605  0.2933  1.3430  0.0986
   55CHL1   C15 6494   0.592   1.214   9.506 -0.0986  0.0904 -0.3483
   55CHL1  H15A 6495   0.540   1.312   9.515  0.5818  0.4749 -0.6209
   55CHL1  H15B 6496   0.695   1.239   9.538 -0.2748 -0.1688  0.4117
   55CHL1   C16 6497   0.601   1.162   9.364  0.4973  0.5929 -0.0565
   55CHL1  H16A 6498   0.541   1.231   9.300 -0.0043 -2.6226 -3.2702
   55CHL1  H16B 6499   0.703   1.163   9.319  0.0194 -0.1677 -1.1924
   55CHL1   C17 6500   0.535   1.018   9.362  0.1375  0.2812  0.1132
   55CHL1   H17 6501   0.623   0.951   9.377  0.8768  1.4970  1.3309
   55CHL1   C13 6502   0.438   1.024   9.484  0.3586  0.1670 -0.1256
   55CHL1   C18 6503   0.305   1.100   9.452  0.1904  0.3174  0.5574
   55CHL1  H18A 6504   0.333   1.174   9.374  0.1999  1.7018  1.8407
   55CHL1  H18B 6505   0.221   1.033   9.426  0.1846  0.7340 -0.5064
   55CHL1  H18C 6506   0.276   1.155   9.544  1.7035 -0.6994  1.6738
   55CHL1   C12 6507   0.415   0.892   9.562  0.2648 -0.7792 -0.5105
   55CHL1  H12A 6508   0.345   0.821   9.512 -2.3194  1.9680 -0.9288
   55CHL1  H12B 6509   0.510   0.841   9.589  0.8137 -0.1640 -1.2533
   55CHL1   C11 6510   0.337   0.910   9.688  0.0883 -0.5534  0.3047
   55CHL1  H11A 6511   0.237   0.947   9.658  0.5424 -1.1064 -1.9695
   55CHL1  H11B 6512   0.329   0.814   9.743  0.5826 -1.1638 -0.6746
   55CHL1    C9 6513   0.412   1.023   9.778  0.1877  0.3544  0.0340
   55CHL1    H9 6514   0.497   0.967   9.821 -0.6304  0.1525  1.4274
   55CHL1   C10 6515   0.325   1.053   9.910 -0.7642 -0.5557  0.1377
   55CHL1   C19 6516   0.183   1.109   9.869 -0.1615  0.5320  0.1969
   55CHL1  H19A 6517   0.131   1.037   9.802  3.7337 -1.1233 -1.2066
   55CHL1  H19B 6518   0.120   1.114   9.960  0.0078  4.7968  0.1892
   55CHL1  H19C 6519   0.176   1.205   9.813  2.6740 -0.2267 -1.5738
   55CHL1    C1 6520   0.309   0.921   9.989  0.0217 -0.2983 -0.2647
   55CHL1   H1A 6521   0.238   0.851   9.941 -0.4371 -0.5409  0.7540
   55CHL1   H1B 6522   0.405   0.866   9.986  0.4933  0.5129 -0.1019
   55CHL1    C2 6523   0.267   0.938  10.141 -0.4333 -0.0927 -0.4947
   55CHL1   H2A 6524   0.282   0.845  10.200  1.2766  0.5211  0.0623
   55CHL1   H2B 6525   0.158   0.956  10.125 -1.0417 -0.6315  2.8346
   55CHL1   C20 6526   0.478   0.983   9.221  0.3755 -0.2540 -0.1616
   55CHL1   H20 6527   0.400   1.057   9.195 -0.7564 -1.9772 -1.8453
   55CHL1   C21 6528   0.390   0.850   9.222  1.0629 -0.1217 -0.5345
   55CHL1  H21A 6529   0.450   0.762   9.254 -3.3842 -4.0884 -2.4657
   55CHL1  H21B 6530   0.339   0.829   9.126 -0.2288 -1.9386  0.5162
   55CHL1  H21C 6531   0.306   0.864   9.293  3.2327  1.9426  1.7484
   55CHL1   C22 6532   0.584   0.968   9.110  0.1230  0.2087  0.4103
   55CHL1  H22A 6533   0.650   1.057   9.104  1.5830 -0.9180 -0.5106
   55CHL1  H22B 6534   0.655   0.888   9.140  0.2863  1.2241  2.8781
   55CHL1   C23 6535   0.538   0.944   8.962  0.2051  0.0120 -0.1395
   55CHL1  H23A 6536   0.495   0.842   8.957  1.6265 -0.7061  1.7457
   55CHL1  H23B 6537   0.459   1.015   8.930  0.9114  0.3223 -1.1845
   55CHL1   C24 6538   0.662   0.956   8.867 -0.7043 -0.2331  0.1962
   55CHL1  H24A 6539   0.708   1.057   8.873 -0.8542 -0.0930 -0.9750
   55CHL1  H24B 6540   0.735   0.888   8.916  0.0097  0.3379 -0.0703
   55CHL1   C25 6541   0.625   0.911   8.719  0.2933 -0.2479  0.9093
   55CHL1   H25 6542   0.717   0.933   8.661 -0.2478  0.1329  0.1944
   55CHL1   C26 6543   0.596   0.761   8.710  0.0572  0.9926 -0.0342
   55CHL1  H26A 6544   0.607   0.731   8.604  3.2324 -0.2684  0.5781
   55CHL1  H26B 6545   0.675   0.713   8.772  0.1551  0.8448 -0.2741
   55CHL1  H26C 6546   0.496   0.737   8.752 -0.1925  1.4707 -0.3553
   55CHL1   C27 6547   0.507   0.989   8.664 -0.1339  0.3471  0.9090
   55CHL1  H27A 6548   0.417   0.954   8.718 -0.2695 -2.5311 -1.1013
   55CHL1  H27B 6549   0.521   1.099   8.679 -0.0850  0.4254  0.2845
   55CHL1  H27C 6550   0.499   0.968   8.555 -1.8300  0.5666  0.9692
   56CHL1    C3 6551   4.972   5.946  10.025  0.6931  0.4234 -0.4398
   56CHL1    H3 6552   4.871   5.905  10.002  0.3397  0.1816  1.4557
   56CHL1    O3 6553   4.976   5.932  10.163  0.1974  0.0535 -0.8495
   56CHL1   H3' 6554   4.920   5.859  10.190  0.1347 -0.1731 -1.5845
   56CHL1    C4 6555   5.082   5.857   9.952  0.0225 -0.0718 -0.3854
   56CHL1   H4A 6556   5.176   5.879  10.006 -0.5233  0.3895  0.3954
   56CHL1   H4B 6557   5.048   5.755   9.978 -2.5223  0.6404 -0.7180
   56CHL1    C5 6558   5.094   5.869   9.801 -0.0620  0.8081 -0.2512
   56CHL1    C6 6559   5.087   5.761   9.714  0.0777 -0.3833 -0.3794
   56CHL1    H6 6560   5.074   5.661   9.758 -1.8959 -0.4733 -1.1224
   56CHL1    C7 6561   5.111   5.773   9.564 -0.7391  0.9032  0.1763
   56CHL1   H7A 6562   5.168   5.694   9.512 -1.9482  0.3101 -0.2571
   56CHL1   H7B 6563   5.008   5.775   9.523  0.1795 -1.4594 -2.3218
   56CHL1    C8 6564   5.164   5.917   9.522  0.4499 -0.6484  0.2980
   56CHL1    H8 6565   5.274   5.916   9.541  0.2570 -2.1098  1.3917
   56CHL1   C14 6566   5.139   5.930   9.371 -0.0632  0.2477  0.0047
   56CHL1   H14 6567   5.031   5.915   9.349 -0.4989 -0.7234  2.6437
   56CHL1   C15 6568   5.197   5.828   9.276 -0.7146  0.8563  0.3471
   56CHL1  H15A 6569   5.294   5.782   9.305  0.1693  1.9734 -0.8133
   56CHL1  H15B 6570   5.131   5.739   9.271  0.4058 -0.0977  1.9229
   56CHL1   C16 6571   5.198   5.905   9.145 -0.4961  0.3550  0.1448
   56CHL1  H16A 6572   5.302   5.919   9.110 -1.1480  1.7970 -1.2935
   56CHL1  H16B 6573   5.164   5.846   9.058  0.2736 -0.0868  0.1469
   56CHL1   C17 6574   5.155   6.051   9.168  0.2808  0.0774 -0.0512
   56CHL1   H17 6575   5.044   6.055   9.158  0.2971 -0.0962 -0.2942
   56CHL1   C13 6576   5.178   6.069   9.313  0.7345 -0.5648 -0.6193
   56CHL1   C18 6577   5.323   6.097   9.347  0.5962  0.1008 -0.0410
   56CHL1  H18A 6578   5.383   6.024   9.288 -2.2622 -2.4445  0.0520
   56CHL1  H18B 6579   5.349   6.203   9.328 -0.7910  0.2691 -1.1216
   56CHL1  H18C 6580   5.347   6.079   9.454  3.3238 -0.5054 -0.7261
   56CHL1   C12 6581   5.104   6.177   9.389  0.1507  0.2204 -0.0668
   56CHL1  H12A 6582   5.148   6.276   9.362 -0.1400  0.2811 -0.3190
   56CHL1  H12B 6583   4.996   6.180   9.364 -0.0727 -0.6962  0.7930
   56CHL1   C11 6584   5.122   6.165   9.539 -0.4003  0.4609 -0.7311
   56CHL1  H11A 6585   5.227   6.189   9.563  0.2945 -0.5733 -2.6353
   56CHL1  H11B 6586   5.056   6.229   9.601  1.7494  0.5289  1.5727
   56CHL1    C9 6587   5.090   6.027   9.598  0.0769  0.5227 -0.0567
   56CHL1    H9 6588   4.989   6.006   9.556  0.3833 -0.1993 -0.4465
   56CHL1   C10 6589   5.108   6.009   9.753 -0.2173  0.2067  0.0302
   56CHL1   C19 6590   5.247   6.070   9.788 -0.5698 -0.7765  0.3356
   56CHL1  H19A 6591   5.249   6.060   9.899  1.1615  2.2945  0.6339
   56CHL1  H19B 6592   5.331   6.007   9.750  0.6722 -0.1459  1.9799
   56CHL1  H19C 6593   5.252   6.176   9.757  2.2574 -0.2546  2.4654
   56CHL1    C1 6594   5.004   6.101   9.827 -0.3430  0.1063  0.6279
   56CHL1   H1A 6595   5.023   6.206   9.798 -0.6156 -0.1345 -0.4430
   56CHL1   H1B 6596   4.901   6.082   9.790  0.4589 -1.0676 -1.0939
   56CHL1    C2 6597   4.997   6.088   9.982  0.4109  0.4500  0.4459
   56CHL1   H2A 6598   4.917   6.155  10.020  0.0300  1.3062 -1.7986
   56CHL1   H2B 6599   5.090   6.116  10.035 -0.4362  0.8876  1.7273
   56CHL1   C20 6600   5.212   6.157   9.066 -0.6027 -0.5163  0.4327
   56CHL1   H20 6601   5.322   6.155   9.081 -0.3853 -0.4521 -1.0029
   56CHL1   C21 6602   5.164   6.304   9.086 -0.4338  0.0266 -0.0890
   56CHL1  H21A 6603   5.211   6.373   9.013  0.8340 -2.7483 -1.9755
   56CHL1  H21B 6604   5.205   6.339   9.183  0.4704 -0.6151 -0.2388
   56CHL1  H21C 6605   5.054   6.323   9.080 -0.6161 -0.9488  0.0889
   56CHL1   C22 6606   5.183   6.116   8.922 -0.1960 -0.2648  0.4880
   56CHL1  H22A 6607   5.191   6.005   8.925  2.1101 -0.0840  2.0662
   56CHL1  H22B 6608   5.078   6.140   8.895 -0.2395  0.9126  1.6900
   56CHL1   C23 6609   5.287   6.170   8.812  0.1449  0.5989  0.4296
   56CHL1  H23A 6610   5.269   6.280   8.803  2.0846  0.9752  0.7695
   56CHL1  H23B 6611   5.392   6.163   8.850  0.4107  0.7240 -0.2801
   56CHL1   C24 6612   5.279   6.105   8.673  0.6417 -0.3241 -0.6295
   56CHL1  H24A 6613   5.176   6.137   8.647 -0.6001 -1.1820  2.9501
   56CHL1  H24B 6614   5.355   6.144   8.602  2.2995 -0.4485  1.0281
   56CHL1   C25 6615   5.281   5.954   8.669 -0.2120  0.6701 -0.5771
   56CHL1   H25 6616   5.186   5.918   8.715 -1.7922 -1.0373 -4.9047
   56CHL1   C26 6617   5.284   5.910   8.524  0.1641 -0.4109  0.1170
   56CHL1  H26A 6618   5.283   5.799   8.526 -1.5674 -0.4023  0.0789
   56CHL1  H26B 6619   5.199   5.953   8.469 -0.0649 -1.3871 -0.2999
   56CHL1  H26C 6620   5.382   5.944   8.484 -0.3123  1.6014  0.6087
   56CHL1   C27 6621   5.394   5.879   8.747  0.9660  0.4182 -0.6226
   56CHL1  H27A 6622   5.388   5.779   8.700  1.2134 -0.0379  0.3143
   56CHL1  H27B 6623   5.486   5.926   8.707  0.3940  1.6769 -0.5052
   56CHL1  H27C 6624   5.371   5.883   8.855  2.9267  2.2991 -0.2484
   57CHL1    C3 6625   0.895   1.844  10.265 -0.6747  0.3031  0.1370
   57CHL1    H3 6626   0.789   1.853  10.297 -0.8834 -1.2553 -0.0533
   57CHL1    O3 6627   0.981   1.851  10.378 -0.4088  0.0238  0.4255
   57CHL1   H3' 6628   1.070   1.858  10.344 -0.4531  0.6267  0.4183
   57CHL1    C4 6629   0.915   1.706  10.198  0.1488 -0.0853 -0.5800
   57CHL1   H4A 6630   1.024   1.685  10.188  0.5364  2.4153 -1.9902
   57CHL1   H4B 6631   0.871   1.631  10.266  0.9861  0.9101  1.0951
   57CHL1    C5 6632   0.842   1.706  10.071  0.2333 -0.1976  0.0706
   57CHL1    C6 6633   0.751   1.616  10.036  0.0994  0.3372 -0.1216
   57CHL1    H6 6634   0.738   1.530  10.103 -0.7057  1.1584  0.7854
   57CHL1    C7 6635   0.677   1.602   9.904 -1.0723  0.3853  0.7591
   57CHL1   H7A 6636   0.680   1.495   9.876  0.1864  0.5757  0.1248
   57CHL1   H7B 6637   0.573   1.629   9.930 -1.5642 -0.5485 -0.2112
   57CHL1    C8 6638   0.741   1.681   9.787  0.3575  0.4122  0.3561
   57CHL1    H8 6639   0.833   1.635   9.747  0.2048  1.0217 -0.7058
   57CHL1   C14 6640   0.641   1.707   9.673  0.3459 -0.1805  0.3745
   57CHL1   H14 6641   0.553   1.756   9.719 -0.1119 -3.1730  2.8351
   57CHL1   C15 6642   0.580   1.584   9.604 -0.3244 -0.4682  0.6082
   57CHL1  H15A 6643   0.645   1.495   9.589 -1.7117 -1.2726 -0.9149
   57CHL1  H15B 6644   0.489   1.553   9.660  0.5653 -0.6823  1.9295
   57CHL1   C16 6645   0.535   1.630   9.471 -0.0038 -0.0485 -0.0371
   57CHL1  H16A 6646   0.588   1.571   9.393  1.9494 -1.0337  1.9661
   57CHL1  H16B 6647   0.428   1.618   9.443  0.5472  0.1183 -2.3650
   57CHL1   C17 6648   0.577   1.782   9.462  0.2827  0.3334  0.1620
   57CHL1   H17 6649   0.501   1.846   9.511 -1.3767 -1.8461  0.5005
   57CHL1   C13 6650   0.693   1.801   9.565  0.6960 -0.1997 -0.4439
   57CHL1   C18 6651   0.832   1.748   9.500 -0.8982 -0.8696  0.1042
   57CHL1  H18A 6652   0.914   1.733   9.573 -0.8778 -0.2199  0.2195
   57CHL1  H18B 6653   0.807   1.649   9.456  0.4164 -0.1834 -2.2337
   57CHL1  H18C 6654   0.859   1.809   9.411 -0.0141 -0.9471  0.3172
   57CHL1   C12 6655   0.702   1.936   9.629 -0.3341 -0.2470  0.3146
   57CHL1  H12A 6656   0.743   2.015   9.562 -0.8060 -0.4461 -0.2095
   57CHL1  H12B 6657   0.620   1.981   9.688  0.6666  1.8104  0.1922
   57CHL1   C11 6658   0.813   1.934   9.744 -0.3068  0.0704 -0.1594
   57CHL1  H11A 6659   0.911   1.924   9.693 -0.2792  1.1383 -0.3145
   57CHL1  H11B 6660   0.811   2.037   9.786  0.0627 -0.8755  2.2646
   57CHL1    C9 6661   0.783   1.824   9.844  0.0026  0.3063  0.4125
   57CHL1    H9 6662   0.684   1.862   9.876 -0.2070 -0.4452  0.6571
   57CHL1   C10 6663   0.877   1.824   9.969 -0.4726  0.8909 -0.2279
   57CHL1   C19 6664   1.023   1.815   9.921 -0.4529  0.3509 -0.2888
   57CHL1  H19A 6665   1.025   1.724   9.857 -1.9246 -1.1176  1.6844
   57CHL1  H19B 6666   1.047   1.911   9.871 -1.0633 -0.0204 -1.3082
   57CHL1  H19C 6667   1.093   1.808  10.007  0.1360 -0.7846 -0.8476
   57CHL1    C1 6668   0.861   1.957  10.043 -0.1000  0.1362 -0.2999
   57CHL1   H1A 6669   0.890   2.042   9.977 -0.0917  0.3135 -0.0717
   57CHL1   H1B 6670   0.751   1.972  10.049 -0.3566 -2.5770  2.6812
   57CHL1    C2 6671   0.920   1.972  10.183 -0.2310 -0.1731  0.3042
   57CHL1   H2A 6672   0.880   2.063  10.232 -0.4514  0.0360 -0.2635
   57CHL1   H2B 6673   1.028   1.995  10.175 -0.5580  1.5179  0.5809
   57CHL1   C20 6674   0.593   1.831   9.320  0.1335  0.1075  0.2717
   57CHL1   H20 6675   0.692   1.790   9.290  0.8781  1.4395  0.8282
   57CHL1   C21 6676   0.596   1.986   9.328 -0.1652  0.6785  0.3199
   57CHL1  H21A 6677   0.584   2.026   9.225 -1.7026 -0.5520  0.0103
   57CHL1  H21B 6678   0.696   2.016   9.368  0.1154 -2.3103  2.0311
   57CHL1  H21C 6679   0.513   2.033   9.384  0.6130  0.6979  1.4875
   57CHL1   C22 6680   0.506   1.789   9.202 -0.3470 -0.1611 -0.0774
   57CHL1  H22A 6681   0.490   1.680   9.204 -0.2216 -0.2620 -2.8442
   57CHL1  H22B 6682   0.400   1.817   9.222 -0.3114  0.5622 -0.8911
   57CHL1   C23 6683   0.558   1.827   9.056 -0.3893  0.3780  0.3432
   57CHL1  H23A 6684   0.522   1.928   9.029 -1.4981 -0.8294 -3.0869
   57CHL1  H23B 6685   0.669   1.818   9.061 -0.3280  0.7444 -0.3916
   57CHL1   C24 6686   0.498   1.737   8.945  0.6823 -0.3426  0.7267
   57CHL1  H24A 6687   0.545   1.765   8.848  0.3729  1.0387  0.9658
   57CHL1  H24B 6688   0.530   1.632   8.959  3.2267  0.1200 -1.0789
   57CHL1   C25 6689   0.341   1.747   8.923 -0.0333  0.2278 -0.6940
   57CHL1   H25 6690   0.274   1.704   9.000  1.6179 -1.4148 -0.1504
   57CHL1   C26 6691   0.299   1.894   8.902 -0.4017  0.0178  0.1818
   57CHL1  H26A 6692   0.338   1.934   8.806 -1.8587 -1.5004 -1.0760
   57CHL1  H26B 6693   0.188   1.900   8.897 -0.2731  1.0462 -2.2886
   57CHL1  H26C 6694   0.345   1.952   8.985  0.1487 -0.1967  0.0279
   57CHL1   C27 6695   0.288   1.677   8.793 -0.1958  0.4725 -0.4074
   57CHL1  H27A 6696   0.343   1.707   8.701 -0.9391 -1.5722 -1.5344
   57CHL1  H27B 6697   0.301   1.568   8.803 -1.9216  0.1539 -1.4644
   57CHL1  H27C 6698   0.185   1.713   8.774 -0.1404  1.3710  0.9213
   58CHL1    C3 6699   3.445   0.532  10.244  0.9367  0.6069  0.1164
   58CHL1    H3 6700   3.390   0.437  10.227  0.4792  0.5190  1.9382
   58CHL1    O3 6701   3.425   0.557  10.379 -0.1356  0.0426  0.3315
   58CHL1   H3' 6702   3.490   0.623  10.402  1.3687 -0.4870 -2.1731
   58CHL1    C4 6703   3.587   0.495  10.196  0.7404 -0.8187 -0.2878
   58CHL1   H4A 6704   3.648   0.582  10.228 -0.4889 -0.5767  1.5163
   58CHL1   H4B 6705   3.627   0.408  10.252 -1.3250 -0.9858  0.9900
   58CHL1    C5 6706   3.607   0.488  10.044  0.7816 -0.3348  0.3257
   58CHL1    C6 6707   3.657   0.377   9.989 -0.1193  0.2547 -0.2001
   58CHL1    H6 6708   3.695   0.301  10.059  0.2638  2.4621  2.0493
   58CHL1    C7 6709   3.673   0.370   9.840  0.4172 -1.1121  0.5520
   58CHL1   H7A 6710   3.769   0.330   9.803  0.3005  0.0891 -1.1474
   58CHL1   H7B 6711   3.602   0.295   9.799  1.4538 -1.0497 -1.4085
   58CHL1    C8 6712   3.653   0.508   9.767 -0.7269  0.0090  0.0296
   58CHL1    H8 6713   3.748   0.563   9.784 -0.8976  0.2305  0.2666
   58CHL1   C14 6714   3.633   0.489   9.615  0.1060 -0.2937  0.8240
   58CHL1   H14 6715   3.536   0.434   9.617  0.4925 -1.1348 -2.0247
   58CHL1   C15 6716   3.726   0.396   9.543 -0.3424  0.2465  0.1401
   58CHL1  H15A 6717   3.835   0.418   9.549 -0.3249  0.5744 -1.2013
   58CHL1  H15B 6718   3.723   0.285   9.549  2.1782  0.3103  4.4241
   58CHL1   C16 6719   3.690   0.426   9.394  0.6679  0.2464  0.4898
   58CHL1  H16A 6720   3.781   0.431   9.331  1.1012 -0.7382  1.0259
   58CHL1  H16B 6721   3.635   0.338   9.354  0.1604  0.0887  1.5277
   58CHL1   C17 6722   3.600   0.551   9.388 -0.4426 -0.7607  0.1428
   58CHL1   H17 6723   3.494   0.519   9.401 -1.3071  2.4312  1.3021
   58CHL1   C13 6724   3.621   0.610   9.531  0.4193 -0.9460  0.1498
   58CHL1   C18 6725   3.749   0.688   9.532  0.4435  0.0326 -0.1226
   58CHL1  H18A 6726   3.747   0.788   9.484  1.6143  0.0756 -0.0886
   58CHL1  H18B 6727   3.782   0.718   9.634 -0.5844  1.1448 -0.1036
   58CHL1  H18C 6728   3.830   0.626   9.488  0.0024 -1.9147  1.7081
   58CHL1   C12 6729   3.495   0.687   9.586  0.2626  0.7838  0.1873
   58CHL1  H12A 6730   3.464   0.775   9.525  1.4054  1.1544  0.1292
   58CHL1  H12B 6731   3.405   0.622   9.580  1.9597 -1.7743  1.6582
   58CHL1   C11 6732   3.506   0.713   9.733  0.3297  0.3143 -0.4687
   58CHL1  H11A 6733   3.581   0.793   9.751  0.1611  0.1870  0.8851
   58CHL1  H11B 6734   3.409   0.749   9.775 -0.2354  1.7013 -2.8465
   58CHL1    C9 6735   3.538   0.586   9.819 -0.2561 -0.1228 -0.2946
   58CHL1    H9 6736   3.448   0.523   9.805  0.8055 -2.4255  2.7001
   58CHL1   C10 6737   3.535   0.609   9.970  0.9894  0.6158  0.2420
   58CHL1   C19 6738   3.627   0.725  10.002  0.0244 -1.0786 -0.0944
   58CHL1  H19A 6739   3.574   0.811   9.956 -0.0769 -1.8833 -1.4914
   58CHL1  H19B 6740   3.636   0.749  10.111  1.3992  2.1298 -0.8592
   58CHL1  H19C 6741   3.734   0.711   9.976 -0.3469 -2.8385 -0.7393
   58CHL1    C1 6742   3.388   0.630  10.019 -0.1344 -0.0987 -1.1420
   58CHL1   H1A 6743   3.337   0.715   9.969  1.7814  2.0110  0.3641
   58CHL1   H1B 6744   3.318   0.548   9.995  0.8982 -1.2370 -0.3231
   58CHL1    C2 6745   3.384   0.643  10.173  0.5273 -0.6190  0.0394
   58CHL1   H2A 6746   3.275   0.655  10.194  0.2216 -2.1379 -0.5891
   58CHL1   H2B 6747   3.439   0.735  10.202  0.7011 -0.6312 -0.2535
   58CHL1   C20 6748   3.609   0.644   9.267  0.9706  0.8408 -0.2420
   58CHL1   H20 6749   3.568   0.743   9.292  0.1538  0.0233  1.7284
   58CHL1   C21 6750   3.510   0.589   9.165  0.1144 -1.0413 -0.2114
   58CHL1  H21A 6751   3.549   0.499   9.112  1.0968 -0.9627  0.3581
   58CHL1  H21B 6752   3.495   0.664   9.085 -0.2852  0.3453  1.1373
   58CHL1  H21C 6753   3.411   0.568   9.210 -0.2688 -2.5482 -1.6846
   58CHL1   C22 6754   3.745   0.654   9.198 -0.4696 -0.2224 -0.1981
   58CHL1  H22A 6755   3.833   0.650   9.267  0.4187  2.5466 -1.0948
   58CHL1  H22B 6756   3.757   0.565   9.132 -2.0014  1.1599 -2.3893
   58CHL1   C23 6757   3.769   0.784   9.118 -0.1878 -0.1639 -0.0706
   58CHL1  H23A 6758   3.667   0.796   9.075 -0.1261 -0.5072 -0.3102
   58CHL1  H23B 6759   3.800   0.869   9.183 -1.6052  1.5928 -1.6281
   58CHL1   C24 6760   3.884   0.788   9.006 -0.1740 -0.2978  0.0470
   58CHL1  H24A 6761   3.980   0.770   9.058 -0.6078 -1.3024  0.5151
   58CHL1  H24B 6762   3.863   0.700   8.942 -1.6576 -2.2039  3.0359
   58CHL1   C25 6763   3.885   0.920   8.923  0.2525 -0.0184  0.3853
   58CHL1   H25 6764   3.936   0.996   8.985  0.7674 -1.7816  2.1663
   58CHL1   C26 6765   3.962   0.897   8.790  0.3558 -0.3911  0.0440
   58CHL1  H26A 6766   4.065   0.872   8.824  0.4151 -2.6775 -1.6743
   58CHL1  H26B 6767   3.921   0.811   8.732  1.9096 -2.1569  1.4989
   58CHL1  H26C 6768   3.940   0.978   8.718 -1.3805 -3.5591 -3.2034
   58CHL1   C27 6769   3.747   0.978   8.899  0.2634 -0.5662  0.0060
   58CHL1  H27A 6770   3.668   0.906   8.871  1.2638 -1.7170  0.1079
   58CHL1  H27B 6771   3.713   0.999   9.003  0.9967  0.9194 -0.0465
   58CHL1  H27C 6772   3.746   1.070   8.838  0.9548  0.0354  0.8850
   59CHL1    C3 6773   2.975   6.405  10.420 -0.5292  0.1873  0.0274
   59CHL1    H3 6774   3.080   6.371  10.408 -0.8096 -0.4286 -0.7025
   59CHL1    O3 6775   2.926   6.373  10.551  0.1161  0.1916  0.2919
   59CHL1   H3' 6776   2.845   6.423  10.562 -0.3841 -0.7868  1.1633
   59CHL1    C4 6777   2.943   6.549  10.383 -0.5340  0.3931  0.2774
   59CHL1   H4A 6778   2.839   6.565  10.417 -1.2705 -0.7220 -1.3568
   59CHL1   H4B 6779   3.009   6.610  10.448  1.8607 -0.9971 -0.7534
   59CHL1    C5 6780   2.945   6.582  10.232  0.8133 -0.4877  0.1329
   59CHL1    C6 6781   2.998   6.697  10.190 -0.2980 -0.0969  0.3221
   59CHL1    H6 6782   3.034   6.780  10.252  2.0599 -1.0677  0.2915
   59CHL1    C7 6783   2.999   6.744  10.048  0.7667 -0.0002  0.2575
   59CHL1   H7A 6784   2.954   6.846  10.042  1.2407  0.1122 -1.9867
   59CHL1   H7B 6785   3.104   6.744  10.014  0.1455 -1.0723 -1.7402
   59CHL1    C8 6786   2.930   6.640   9.957  0.0699 -0.6755 -0.2320
   59CHL1    H8 6787   2.821   6.660   9.963  0.3741  0.5722  1.3510
   59CHL1   C14 6788   2.974   6.667   9.812  0.0941  0.1294  0.3020
   59CHL1   H14 6789   3.082   6.642   9.804  0.0648  0.3740 -0.9590
   59CHL1   C15 6790   2.968   6.813   9.753  0.2403 -0.0603 -0.0068
   59CHL1  H15A 6791   2.868   6.858   9.773 -0.0952  0.0044 -1.7808
   59CHL1  H15B 6792   3.048   6.879   9.793  0.5477  1.1783 -2.5876
   59CHL1   C16 6793   2.979   6.794   9.605 -0.0577  0.2753 -0.1746
   59CHL1  H16A 6794   2.885   6.827   9.558 -0.0249  1.8171  0.7789
   59CHL1  H16B 6795   3.064   6.830   9.543  2.9640 -0.5698  3.2831
   59CHL1   C17 6796   2.971   6.631   9.581  0.3264  0.2950 -0.1237
   59CHL1   H17 6797   3.078   6.602   9.578 -0.0094 -0.8106 -1.9030
   59CHL1   C13 6798   2.910   6.573   9.709  0.0252  0.6821 -0.0084
   59CHL1   C18 6799   2.758   6.595   9.717  0.3352 -0.5647 -0.0390
   59CHL1  H18A 6800   2.749   6.704   9.699 -0.5116 -0.1454  2.6509
   59CHL1  H18B 6801   2.712   6.536   9.635  0.0257  0.7560 -0.8369
   59CHL1  H18C 6802   2.699   6.572   9.808  1.3952  2.3308  1.4360
   59CHL1   C12 6803   2.942   6.426   9.747 -0.0271  0.5152  0.1444
   59CHL1  H12A 6804   2.891   6.356   9.678 -3.2448 -2.4248  5.1747
   59CHL1  H12B 6805   3.053   6.428   9.744  0.0543 -2.8402 -0.7003
   59CHL1   C11 6806   2.899   6.394   9.890 -0.7868  0.6347  0.1416
   59CHL1  H11A 6807   2.789   6.393   9.902 -0.5612 -2.9552  2.4835
   59CHL1  H11B 6808   2.950   6.296   9.903  1.0534  1.8717  2.7008
   59CHL1    C9 6809   2.949   6.495   9.999 -0.0287  0.7254  0.4877
   59CHL1    H9 6810   3.056   6.465   9.993 -1.4494 -4.4816 -3.0930
   59CHL1   C10 6811   2.903   6.473  10.138 -0.0494 -0.2782 -0.4931
   59CHL1   C19 6812   2.747   6.484  10.151  0.4892 -0.8592  0.2260
   59CHL1  H19A 6813   2.718   6.500  10.257  0.3656 -3.4177  0.5947
   59CHL1  H19B 6814   2.698   6.564  10.091  1.9450  2.6806  3.5633
   59CHL1  H19C 6815   2.706   6.383  10.130  0.6241 -1.0403  0.8498
   59CHL1    C1 6816   2.958   6.337  10.194 -0.3209 -0.8681 -0.2887
   59CHL1   H1A 6817   2.931   6.259  10.119  1.4852 -0.2358 -1.6341
   59CHL1   H1B 6818   3.067   6.353  10.184 -0.0433 -3.0417 -1.0996
   59CHL1    C2 6819   2.910   6.304  10.330 -0.2466 -0.0331  0.7399
   59CHL1   H2A 6820   2.954   6.206  10.358  0.5117  0.3809  1.0067
   59CHL1   H2B 6821   2.800   6.303  10.345  0.0376  2.0679  3.2613
   59CHL1   C20 6822   2.905   6.594   9.441 -0.2897 -0.1771 -0.3842
   59CHL1   H20 6823   2.795   6.610   9.447 -0.0493  0.5749  3.3448
   59CHL1   C21 6824   2.931   6.440   9.412  0.3774  0.4979  0.2376
   59CHL1  H21A 6825   3.033   6.403   9.436  0.0189 -0.1104  0.8474
   59CHL1  H21B 6826   2.911   6.426   9.303 -1.1603 -3.8439  0.9552
   59CHL1  H21C 6827   2.860   6.380   9.473 -0.7015  0.1284 -1.3358
   59CHL1   C22 6828   2.957   6.681   9.332 -0.8129  0.0462  0.6660
   59CHL1  H22A 6829   2.945   6.787   9.362  3.9322  1.0848 -0.6885
   59CHL1  H22B 6830   3.066   6.666   9.319 -1.0466 -0.9518 -0.2720
   59CHL1   C23 6831   2.869   6.673   9.201 -0.6426  0.7287 -0.9998
   59CHL1  H23A 6832   2.887   6.577   9.148  2.2925 -0.1291  1.3708
   59CHL1  H23B 6833   2.765   6.664   9.238  0.2927 -0.1815  1.5175
   59CHL1   C24 6834   2.884   6.796   9.112 -0.0856 -0.0022 -0.3868
   59CHL1  H24A 6835   2.876   6.886   9.177  1.5538  0.0037 -0.1519
   59CHL1  H24B 6836   2.986   6.806   9.068  1.3962  0.8888  3.0488
   59CHL1   C25 6837   2.780   6.826   8.995  0.3892  0.3823  0.1809
   59CHL1   H25 6838   2.794   6.929   8.958 -3.2675  1.2386  0.9339
   59CHL1   C26 6839   2.806   6.727   8.878 -0.7523  0.2432  0.2173
   59CHL1  H26A 6840   2.911   6.750   8.848 -1.2066 -0.4898 -2.0754
   59CHL1  H26B 6841   2.812   6.621   8.911 -0.5587 -0.3765 -1.7030
   59CHL1  H26C 6842   2.735   6.735   8.792  0.5534 -0.5533 -0.9697
   59CHL1   C27 6843   2.638   6.820   9.038  0.0565 -0.4275 -0.4818
   59CHL1  H27A 6844   2.617   6.720   9.082 -0.9846  0.7372  1.7561
   59CHL1  H27B 6845   2.605   6.893   9.114  1.8917  0.1023 -0.1546
   59CHL1  H27C 6846   2.575   6.824   8.947  0.3674  1.7604 -0.6081
   60CHL1    C3 6847   2.382   5.576  10.248 -0.7091  0.3021  0.3504
   60CHL1    H3 6848   2.358   5.685  10.247  1.2041  0.7422 -0.5598
   60CHL1    O3 6849   2.344   5.514  10.370  0.0314  0.3189  0.7012
   60CHL1   H3' 6850   2.366   5.421  10.361 -2.3456 -0.1175 -1.0003
   60CHL1    C4 6851   2.301   5.505  10.142  0.5600  0.3550 -0.3921
   60CHL1   H4A 6852   2.324   5.397  10.148 -0.3661  0.1653 -0.2413
   60CHL1   H4B 6853   2.191   5.512  10.158  0.4766 -0.2816 -0.6844
   60CHL1    C5 6854   2.330   5.559  10.008  0.2188  0.1811  0.0728
   60CHL1    C6 6855   2.236   5.620   9.935 -0.5034  0.0276 -0.3103
   60CHL1    H6 6856   2.133   5.634   9.970 -0.6269  2.3247 -1.4813
   60CHL1    C7 6857   2.266   5.672   9.794  0.1599  0.0867 -0.3781
   60CHL1   H7A 6858   2.188   5.652   9.718 -0.5885  1.8200 -0.1047
   60CHL1   H7B 6859   2.267   5.783   9.807  0.1358 -0.1111  1.4733
   60CHL1    C8 6860   2.399   5.622   9.735  0.2510  0.4599 -0.1769
   60CHL1    H8 6861   2.363   5.519   9.713  1.6680 -0.1693  0.3821
   60CHL1   C14 6862   2.425   5.699   9.601  0.0419  0.1299  0.0139
   60CHL1   H14 6863   2.457   5.801   9.632 -1.6960  0.5321  0.5533
   60CHL1   C15 6864   2.314   5.725   9.495  0.4186 -0.3603  0.2688
   60CHL1  H15A 6865   2.253   5.634   9.480 -0.4137  0.3947 -1.0913
   60CHL1  H15B 6866   2.247   5.811   9.517 -1.0279 -0.8165 -2.1573
   60CHL1   C16 6867   2.397   5.757   9.365 -0.2543 -0.0942 -0.1058
   60CHL1  H16A 6868   2.351   5.699   9.282  1.4579 -0.2115 -0.9985
   60CHL1  H16B 6869   2.390   5.864   9.335 -1.7479  0.2268  1.3125
   60CHL1   C17 6870   2.551   5.725   9.400  0.2165 -0.0460  0.3597
   60CHL1   H17 6871   2.597   5.824   9.422 -0.3824  0.0363  1.2591
   60CHL1   C13 6872   2.545   5.638   9.529 -0.2928  0.5981  0.2254
   60CHL1   C18 6873   2.507   5.491   9.492  0.2372 -0.0767 -0.0323
   60CHL1  H18A 6874   2.486   5.435   9.586 -0.5974  3.0193  1.6953
   60CHL1  H18B 6875   2.423   5.481   9.420 -0.7667 -0.1037  1.1399
   60CHL1  H18C 6876   2.595   5.440   9.447 -1.7829 -1.5568 -2.4778
   60CHL1   C12 6877   2.665   5.646   9.621  0.1099  0.1148  0.4442
   60CHL1  H12A 6878   2.757   5.610   9.571  0.3157 -1.6887  2.0841
   60CHL1  H12B 6879   2.688   5.748   9.659 -0.1459 -0.4811  2.2206
   60CHL1   C11 6880   2.645   5.574   9.765 -0.8968  0.1978  0.5773
   60CHL1  H11A 6881   2.660   5.467   9.737 -2.9382  0.0748 -0.1336
   60CHL1  H11B 6882   2.741   5.602   9.813 -0.3018  0.1331 -0.5458
   60CHL1    C9 6883   2.516   5.617   9.833 -0.2769 -0.4620 -0.3540
   60CHL1    H9 6884   2.533   5.722   9.866 -0.1296 -0.3432 -0.8026
   60CHL1   C10 6885   2.482   5.546   9.971  0.3053  0.4066  0.1343
   60CHL1   C19 6886   2.501   5.394   9.950 -0.8104 -0.4806  0.0339
   60CHL1  H19A 6887   2.484   5.335  10.042 -0.0565 -1.2091 -0.2961
   60CHL1  H19B 6888   2.431   5.375   9.866  1.1589  0.8160 -1.9810
   60CHL1  H19C 6889   2.600   5.378   9.903 -0.2732  1.1189  0.5737
   60CHL1    C1 6890   2.569   5.599  10.080  0.4738 -0.6908  0.0766
   60CHL1   H1A 6891   2.674   5.564  10.068  0.7962  0.3457 -0.1589
   60CHL1   H1B 6892   2.579   5.709  10.085 -0.2245 -0.6453  0.5358
   60CHL1    C2 6893   2.530   5.544  10.226 -0.3922 -0.2024 -0.0478
   60CHL1   H2A 6894   2.593   5.603  10.296 -0.3105 -1.2415  0.7617
   60CHL1   H2B 6895   2.550   5.436  10.241  2.1365  0.2816  0.3588
   60CHL1   C20 6896   2.621   5.667   9.278 -0.1291 -0.2717 -0.3329
   60CHL1   H20 6897   2.574   5.577   9.233 -0.3189 -1.7976  2.7908
   60CHL1   C21 6898   2.769   5.636   9.306  0.4187 -0.2005 -0.4848
   60CHL1  H21A 6899   2.779   5.551   9.376  0.6787  0.1124 -0.1418
   60CHL1  H21B 6900   2.819   5.728   9.343  0.6407  0.0040 -1.2753
   60CHL1  H21C 6901   2.815   5.619   9.206 -2.0764 -2.0999 -1.3790
   60CHL1   C22 6902   2.619   5.780   9.166 -0.2602 -1.0249  0.5465
   60CHL1  H22A 6903   2.615   5.882   9.209  0.5809  0.6349 -3.0625
   60CHL1  H22B 6904   2.716   5.761   9.115 -1.3016 -1.4297 -1.3236
   60CHL1   C23 6905   2.512   5.761   9.063 -0.5076  0.5213 -0.2433
   60CHL1  H23A 6906   2.518   5.655   9.030  0.3730  0.0591  1.3493
   60CHL1  H23B 6907   2.412   5.779   9.108  0.6381  0.5069  2.3861
   60CHL1   C24 6908   2.532   5.851   8.934  0.1594  0.1664  0.9034
   60CHL1  H24A 6909   2.510   5.957   8.958 -1.0404  0.0769  0.2444
   60CHL1  H24B 6910   2.639   5.842   8.907 -0.5468 -0.1793 -1.9655
   60CHL1   C25 6911   2.450   5.810   8.808 -0.7812 -0.3964  0.2711
   60CHL1   H25 6912   2.343   5.811   8.837 -0.9440 -3.0783 -0.0957
   60CHL1   C26 6913   2.478   5.922   8.710 -0.6010 -0.0147  0.7609
   60CHL1  H26A 6914   2.449   6.020   8.752 -0.7627  0.7808 -1.1714
   60CHL1  H26B 6915   2.584   5.930   8.678 -0.2752 -2.3464  1.1720
   60CHL1  H26C 6916   2.408   5.905   8.626  0.4546  3.8338 -1.0072
   60CHL1   C27 6917   2.479   5.671   8.753 -0.1485  0.2234 -0.5274
   60CHL1  H27A 6918   2.397   5.640   8.685 -0.9198  0.3601  0.3207
   60CHL1  H27B 6919   2.575   5.672   8.699  1.4897 -0.2584  2.2576
   60CHL1  H27C 6920   2.485   5.594   8.833  2.0561  1.1549  0.2419
   61CHL1    C3 6921   6.265   4.854  10.321  0.4660 -0.1643 -0.3801
   61CHL1    H3 6922   6.181   4.782  10.334 -0.5106  0.5549 -2.4696
   61CHL1    O3 6923   6.272   4.938  10.440 -0.1769 -0.1475  0.7411
   61CHL1   H3' 6924   6.363   4.969  10.440  0.1541 -1.0807  0.2023
   61CHL1    C4 6925   6.396   4.772  10.314  0.4413 -0.3425 -0.5536
   61CHL1   H4A 6926   6.478   4.846  10.329  0.0293  0.4117 -1.9682
   61CHL1   H4B 6927   6.395   4.711  10.407 -1.1856  0.8841  0.2627
   61CHL1    C5 6928   6.411   4.690  10.185  0.1530 -0.4384  0.1052
   61CHL1    C6 6929   6.456   4.563  10.185  0.6713 -0.1913  0.0525
   61CHL1    H6 6930   6.470   4.503  10.276 -0.4830 -1.2087 -0.4272
   61CHL1    C7 6931   6.482   4.488  10.055 -0.4507  0.5067 -0.7497
   61CHL1   H7A 6932   6.587   4.454  10.049  0.3169  2.5975  0.1581
   61CHL1   H7B 6933   6.414   4.400  10.049 -1.3771  1.2852 -1.9527
   61CHL1    C8 6934   6.459   4.570   9.926  0.3809  0.7230  0.3198
   61CHL1    H8 6935   6.550   4.632   9.914  1.7669 -1.1495  1.1007
   61CHL1   C14 6936   6.442   4.473   9.803 -0.4332 -0.5226  0.6071
   61CHL1   H14 6937   6.352   4.412   9.825 -1.1217 -0.3078 -1.4402
   61CHL1   C15 6938   6.553   4.371   9.770 -0.8363  0.5333 -0.3653
   61CHL1  H15A 6939   6.646   4.431   9.766  1.2234 -2.2302  2.9268
   61CHL1  H15B 6940   6.574   4.284   9.837 -1.3220  0.0142 -0.8800
   61CHL1   C16 6941   6.517   4.318   9.631 -0.5916 -0.3160 -0.0394
   61CHL1  H16A 6942   6.609   4.328   9.568 -0.8300 -0.2146 -0.3769
   61CHL1  H16B 6943   6.472   4.218   9.621  0.8355 -0.7982 -2.1246
   61CHL1   C17 6944   6.407   4.417   9.583  0.3192 -0.2070  0.0334
   61CHL1   H17 6945   6.311   4.369   9.609  0.1167  1.1014  1.7416
   61CHL1   C13 6946   6.412   4.536   9.672  0.4451 -0.4118 -0.1436
   61CHL1   C18 6947   6.527   4.638   9.632 -0.7660  0.0421  0.4873
   61CHL1  H18A 6948   6.621   4.579   9.631 -1.1518 -0.5585 -0.2167
   61CHL1  H18B 6949   6.512   4.698   9.540 -0.3618 -1.0375 -0.2871
   61CHL1  H18C 6950   6.529   4.704   9.722  1.0502 -1.8461  1.8772
   61CHL1   C12 6951   6.278   4.617   9.694  0.3055 -0.6493  0.6894
   61CHL1  H12A 6952   6.253   4.670   9.600  0.3359  1.9781  2.0961
   61CHL1  H12B 6953   6.196   4.548   9.724 -1.1680  1.8717  2.7194
   61CHL1   C11 6954   6.294   4.726   9.803 -0.3330  0.7521 -0.3366
   61CHL1  H11A 6955   6.363   4.810   9.777  0.1278  0.3879 -0.3005
   61CHL1  H11B 6956   6.194   4.770   9.819 -2.5501 -2.7451 -3.7712
   61CHL1    C9 6957   6.343   4.662   9.939 -0.2232 -0.6724 -0.6956
   61CHL1    H9 6958   6.266   4.590   9.974 -1.5750  2.1003  2.3381
   61CHL1   C10 6959   6.363   4.760  10.058 -0.0502 -0.4863  0.9928
   61CHL1   C19 6960   6.478   4.860  10.024  0.4679 -0.1285 -0.1037
   61CHL1  H19A 6961   6.570   4.807   9.988  0.7081  0.6718 -0.6878
   61CHL1  H19B 6962   6.442   4.932   9.947  3.0125  0.5012 -0.7544
   61CHL1  H19C 6963   6.501   4.929  10.108  0.2005  1.1645 -1.0640
   61CHL1    C1 6964   6.234   4.848  10.078  0.2552 -0.5858  0.3857
   61CHL1   H1A 6965   6.235   4.923   9.996 -1.1647 -0.8844  0.0840
   61CHL1   H1B 6966   6.142   4.786  10.068  1.1658 -1.8521 -0.2770
   61CHL1    C2 6967   6.237   4.943  10.200  0.6458  0.2112 -0.7491
   61CHL1   H2A 6968   6.142   4.998  10.217  1.0257  0.7955 -0.4951
   61CHL1   H2B 6969   6.315   5.020  10.183 -1.1107  2.2396  0.1083
   61CHL1   C20 6970   6.407   4.433   9.433  0.5163  0.1728 -0.3304
   61CHL1   H20 6971   6.506   4.475   9.406  0.4171  1.0915  0.7198
   61CHL1   C21 6972   6.311   4.537   9.379  0.1245 -0.0908  0.4523
   61CHL1  H21A 6973   6.213   4.523   9.429  0.5493 -0.9470  1.0612
   61CHL1  H21B 6974   6.325   4.537   9.269  0.9386  0.8901  0.5420
   61CHL1  H21C 6975   6.342   4.634   9.425  0.9629  0.1231 -0.5395
   61CHL1   C22 6976   6.398   4.299   9.357 -0.0283  0.3190  0.3003
   61CHL1  H22A 6977   6.464   4.220   9.398 -1.3624 -0.8776  0.1981
   61CHL1  H22B 6978   6.293   4.264   9.365  0.2351 -0.2055  1.5410
   61CHL1   C23 6979   6.444   4.304   9.208 -0.3545  0.0359  0.2630
   61CHL1  H23A 6980   6.379   4.367   9.142 -1.9105 -1.2228  0.5744
   61CHL1  H23B 6981   6.549   4.340   9.206 -0.0918 -0.7272  0.3054
   61CHL1   C24 6982   6.451   4.166   9.137  0.4603 -0.1075 -0.1646
   61CHL1  H24A 6983   6.501   4.101   9.212 -1.5380 -0.1881  1.1480
   61CHL1  H24B 6984   6.349   4.124   9.128 -1.0074  3.3479 -0.5456
   61CHL1   C25 6985   6.522   4.163   9.000 -0.1091 -0.0251  0.0955
   61CHL1   H25 6986   6.480   4.244   8.935 -0.4909 -0.4668 -0.2111
   61CHL1   C26 6987   6.669   4.203   9.014  1.0385 -0.7019 -0.2917
   61CHL1  H26A 6988   6.679   4.285   9.089  0.0601  1.9754 -2.9717
   61CHL1  H26B 6989   6.735   4.119   9.045  0.5844 -0.8668  0.2448
   61CHL1  H26C 6990   6.704   4.239   8.915  0.4127 -1.5901 -0.8465
   61CHL1   C27 6991   6.501   4.019   8.943  0.1015 -0.0187 -0.2065
   61CHL1  H27A 6992   6.523   4.026   8.834  1.1828 -1.6796 -0.1208
   61CHL1  H27B 6993   6.567   3.945   8.994  0.2383 -0.2822 -0.7546
   61CHL1  H27C 6994   6.394   3.987   8.943 -0.1859  0.9422 -0.4021
   62CHL1    C3 6995   0.037   2.103  10.163 -0.1482  0.2261  0.0306
   62CHL1    H3 6996   0.050   2.212  10.178  1.9438 -0.3353  2.8007
   62CHL1    O3 6997   0.024   2.041  10.297 -0.0920  0.2997 -0.0196
   62CHL1   H3' 6998  -0.036   1.967  10.286  0.3541 -0.3883  2.0854
   62CHL1    C4 6999  -0.094   2.074  10.082  0.1714 -0.1696 -0.5569
   62CHL1   H4A 7000  -0.112   1.965  10.097 -0.6664  0.3161  2.1175
   62CHL1   H4B 7001  -0.177   2.123  10.137 -0.2941 -0.9559 -0.5495
   62CHL1    C5 7002  -0.089   2.113   9.933  0.7917  0.3623  0.2063
   62CHL1    C6 7003  -0.187   2.185   9.871 -0.8893 -0.1844 -0.6990
   62CHL1    H6 7004  -0.271   2.211   9.938  0.2781  1.5556  0.1316
   62CHL1    C7 7005  -0.184   2.213   9.721 -0.3176  0.1647 -0.8034
   62CHL1   H7A 7006  -0.282   2.174   9.686  0.8932 -2.3578 -1.5523
   62CHL1   H7B 7007  -0.186   2.323   9.706 -0.4082  0.1121 -1.1782
   62CHL1    C8 7008  -0.077   2.144   9.634  0.1267  0.1958 -0.5885
   62CHL1    H8 7009  -0.109   2.039   9.617  1.0645  0.0440 -1.4743
   62CHL1   C14 7010  -0.042   2.222   9.505 -0.0635 -0.3385 -0.6606
   62CHL1   H14 7011  -0.013   2.326   9.534  0.8900 -0.3102 -1.6518
   62CHL1   C15 7012  -0.161   2.246   9.412 -0.5877 -0.1545  0.1905
   62CHL1  H15A 7013  -0.221   2.153   9.402 -0.4378 -0.1394 -0.8924
   62CHL1  H15B 7014  -0.230   2.325   9.449  0.5659  0.3183  1.3342
   62CHL1   C16 7015  -0.102   2.281   9.279  0.4245 -0.4454  0.0459
   62CHL1  H16A 7016  -0.141   2.216   9.197  0.2242 -1.6296  1.0624
   62CHL1  H16B 7017  -0.120   2.384   9.241 -0.9155 -1.8435 -3.3551
   62CHL1   C17 7018   0.048   2.243   9.283  0.0116  0.3333  0.1100
   62CHL1   H17 7019   0.106   2.334   9.308 -3.0897  2.8936 -1.6814
   62CHL1   C13 7020   0.054   2.145   9.411 -0.2653 -0.9311  0.3801
   62CHL1   C18 7021  -0.012   2.015   9.366 -0.0208  0.8031 -0.0276
   62CHL1  H18A 7022   0.069   1.954   9.321 -1.0727 -0.9422  0.3490
   62CHL1  H18B 7023  -0.055   1.950   9.446  1.3041  0.2054  0.2175
   62CHL1  H18C 7024  -0.088   2.028   9.286 -0.5118 -0.2440  0.2576
   62CHL1   C12 7025   0.188   2.121   9.491  0.2769  0.1874 -0.0105
   62CHL1  H12A 7026   0.270   2.060   9.448  2.7247  1.8328  2.1593
   62CHL1  H12B 7027   0.223   2.226   9.491 -0.3157  0.4499 -3.3115
   62CHL1   C11 7028   0.162   2.051   9.633  0.1185  0.0307  0.6434
   62CHL1  H11A 7029   0.130   1.947   9.609  0.6596 -0.5341  2.2662
   62CHL1  H11B 7030   0.264   2.050   9.679  0.6380  3.0231 -0.3705
   62CHL1    C9 7031   0.053   2.126   9.714 -0.2923 -0.2343  0.2081
   62CHL1    H9 7032   0.092   2.230   9.718  3.1563 -1.2428 -3.2989
   62CHL1   C10 7033   0.039   2.064   9.860 -0.1040  0.4696 -0.1690
   62CHL1   C19 7034   0.022   1.905   9.852 -0.0954 -0.0924  0.1193
   62CHL1  H19A 7035  -0.070   1.880   9.795 -0.8932 -1.7878  2.0715
   62CHL1  H19B 7036   0.115   1.864   9.807  1.6244 -0.2333  3.6295
   62CHL1  H19C 7037   0.017   1.860   9.954  2.1936 -1.8255 -0.5006
   62CHL1    C1 7038   0.165   2.092   9.948 -0.1388  0.6309 -0.2649
   62CHL1   H1A 7039   0.247   2.030   9.907 -1.5105 -1.6856  0.4021
   62CHL1   H1B 7040   0.195   2.198   9.951 -0.9613  0.8436  1.0609
   62CHL1    C2 7041   0.167   2.049  10.098 -0.0669 -0.0393 -0.7488
   62CHL1   H2A 7042   0.257   2.091  10.149 -0.2214 -0.7243  0.0957
   62CHL1   H2B 7043   0.169   1.939  10.107  2.0997  0.0426  0.1850
   62CHL1   C20 7044   0.110   2.202   9.146  0.0612  0.6243 -0.2977
   62CHL1   H20 7045   0.055   2.118   9.099  1.7106  0.1936 -1.5299
   62CHL1   C21 7046   0.260   2.168   9.173 -0.2955  0.0273  0.4575
   62CHL1  H21A 7047   0.313   2.148   9.077  0.2446 -0.8646  0.9313
   62CHL1  H21B 7048   0.264   2.070   9.226  0.6419 -0.6079 -0.7421
   62CHL1  H21C 7049   0.308   2.254   9.222 -1.4532  0.1638  1.3694
   62CHL1   C22 7050   0.094   2.317   9.041 -0.0456  0.4948  0.1831
   62CHL1  H22A 7051  -0.010   2.356   9.046 -1.0121 -1.8880 -0.2269
   62CHL1  H22B 7052   0.155   2.403   9.074  3.8235 -1.9129 -0.3626
   62CHL1   C23 7053   0.121   2.261   8.895 -0.2541 -0.2045  0.3526
   62CHL1  H23A 7054   0.224   2.225   8.877 -0.1741  0.8788 -1.5020
   62CHL1  H23B 7055   0.042   2.186   8.874 -3.3599  3.1646 -0.5490
   62CHL1   C24 7056   0.095   2.377   8.792 -0.0789  0.4754 -0.0564
   62CHL1  H24A 7057  -0.008   2.411   8.815 -0.1690 -0.6739  1.3185
   62CHL1  H24B 7058   0.165   2.460   8.814 -0.3097  0.0462  2.5286
   62CHL1   C25 7059   0.116   2.329   8.647 -0.6912  0.3447  0.3190
   62CHL1   H25 7060   0.204   2.262   8.641  0.4122  1.9337 -1.8515
   62CHL1   C26 7061  -0.007   2.251   8.602  0.6860  0.2614 -0.0753
   62CHL1  H26A 7062   0.006   2.227   8.495  2.3536 -0.5347  0.2951
   62CHL1  H26B 7063  -0.010   2.158   8.663  2.0789  0.0978 -0.2526
   62CHL1  H26C 7064  -0.093   2.320   8.623  0.0764 -0.6349  0.4091
   62CHL1   C27 7065   0.128   2.437   8.539  1.1035 -0.7877  0.5297
   62CHL1  H27A 7066   0.225   2.491   8.537 -0.3890  1.9418 -1.5737
   62CHL1  H27B 7067   0.111   2.407   8.434  0.9374 -2.6986  1.0779
   62CHL1  H27C 7068   0.048   2.513   8.557  0.6185 -1.2714  0.4423
   63CHL1    C3 7069   1.737   3.098  10.360 -0.0653  0.7281  0.8281
   63CHL1    H3 7070   1.627   3.093  10.352  0.0227  0.6657 -0.4301
   63CHL1    O3 7071   1.767   3.082  10.494  0.1260  0.4437  0.0194
   63CHL1   H3' 7072   1.725   3.157  10.537  0.5123  1.1246 -0.7737
   63CHL1    C4 7073   1.810   2.983  10.291  0.0331  0.6805  0.5735
   63CHL1   H4A 7074   1.917   2.993  10.318  0.1799  0.7679 -0.0571
   63CHL1   H4B 7075   1.762   2.890  10.330  3.1058  0.4713  4.1414
   63CHL1    C5 7076   1.804   2.999  10.140  0.1148 -0.6703 -0.4039
   63CHL1    C6 7077   1.741   2.904  10.061 -0.2855 -0.1982  0.0429
   63CHL1    H6 7078   1.697   2.812  10.103 -0.3568  0.2204  0.8894
   63CHL1    C7 7079   1.749   2.899   9.912  0.6628 -0.6377 -0.0694
   63CHL1   H7A 7080   1.804   2.807   9.884  1.3961 -0.5132  0.9351
   63CHL1   H7B 7081   1.650   2.908   9.862  0.6367  1.0219  0.2299
   63CHL1    C8 7082   1.836   3.007   9.851  0.0927 -0.4149  0.3723
   63CHL1    H8 7083   1.942   2.976   9.862  0.9146  2.0478 -0.2110
   63CHL1   C14 7084   1.798   3.023   9.701  0.1521  0.4283 -0.2535
   63CHL1   H14 7085   1.690   3.045   9.685  0.0864  1.2688  1.3289
   63CHL1   C15 7086   1.815   2.900   9.614  0.3128 -0.2077  0.0498
   63CHL1  H15A 7087   1.909   2.847   9.644  0.1913  0.7295  2.1622
   63CHL1  H15B 7088   1.728   2.832   9.628  1.8418 -1.7159  2.6912
   63CHL1   C16 7089   1.811   2.955   9.473  1.0575 -0.4988 -0.3102
   63CHL1  H16A 7090   1.908   2.915   9.437  2.4963  2.1345  0.4888
   63CHL1  H16B 7091   1.730   2.924   9.405 -0.1811  1.6937  0.1125
   63CHL1   C17 7092   1.832   3.113   9.485  0.2019 -0.2488  0.0176
   63CHL1   H17 7093   1.732   3.158   9.472 -1.7922 -4.3139  0.4762
   63CHL1   C13 7094   1.878   3.135   9.632  0.8164 -0.2059 -0.1435
   63CHL1   C18 7095   2.036   3.111   9.636 -0.0429  0.6044  0.0661
   63CHL1  H18A 7096   2.064   3.104   9.743  0.2147 -1.2716 -0.1218
   63CHL1  H18B 7097   2.065   3.024   9.573 -0.1882 -0.4880  1.5040
   63CHL1  H18C 7098   2.101   3.197   9.607  0.9841 -0.0914  0.3117
   63CHL1   C12 7099   1.841   3.262   9.700 -0.2918 -0.0479  0.1759
   63CHL1  H12A 7100   1.899   3.347   9.658 -1.3911  0.5055 -0.2465
   63CHL1  H12B 7101   1.735   3.283   9.677 -0.4560 -1.5046 -0.4063
   63CHL1   C11 7102   1.873   3.263   9.852  0.3926  0.0565  0.1596
   63CHL1  H11A 7103   1.983   3.278   9.860  0.4880 -1.2539  1.5146
   63CHL1  H11B 7104   1.821   3.350   9.897 -1.8800 -1.3373  0.3064
   63CHL1    C9 7105   1.815   3.140   9.929 -0.8193  0.2113 -0.1794
   63CHL1    H9 7106   1.704   3.144   9.937 -0.7908 -0.2214  0.4320
   63CHL1   C10 7107   1.857   3.133  10.078 -0.2700 -0.0594 -0.0419
   63CHL1   C19 7108   2.017   3.145  10.093 -0.3547  0.4270 -0.7686
   63CHL1  H19A 7109   2.046   3.244  10.052  1.0810  0.6013  0.6164
   63CHL1  H19B 7110   2.049   3.157  10.199  2.6188 -0.8225 -1.4819
   63CHL1  H19C 7111   2.056   3.066  10.026 -1.9747 -0.3485 -0.8198
   63CHL1    C1 7112   1.785   3.246  10.162 -0.0686  0.3766  0.6504
   63CHL1   H1A 7113   1.843   3.340  10.149 -0.9189  0.8924  0.5127
   63CHL1   H1B 7114   1.676   3.254  10.137 -0.2331 -0.6581  1.0009
   63CHL1    C2 7115   1.797   3.230  10.309  0.5739 -0.3197  0.6130
   63CHL1   H2A 7116   1.726   3.308  10.344 -1.7107 -1.4066 -1.4267
   63CHL1   H2B 7117   1.902   3.240  10.344  0.5328 -1.3597  1.0444
   63CHL1   C20 7118   1.927   3.169   9.372  0.1605  0.1542  0.1678
   63CHL1   H20 7119   2.027   3.127   9.394 -0.8356 -1.0223  2.5608
   63CHL1   C21 7120   1.932   3.318   9.387 -0.2857 -0.3423  0.0374
   63CHL1  H21A 7121   1.994   3.357   9.470 -0.3649  0.5960 -0.3413
   63CHL1  H21B 7122   1.831   3.361   9.401 -0.6894 -0.1383 -3.0550
   63CHL1  H21C 7123   1.994   3.339   9.297 -1.8475 -0.9640 -1.2003
   63CHL1   C22 7124   1.901   3.118   9.228 -0.0612  0.7476  0.0720
   63CHL1  H22A 7125   1.843   3.023   9.226  0.4234  0.4437  0.2202
   63CHL1  H22B 7126   1.828   3.193   9.191 -1.0678  0.2618  1.0589
   63CHL1   C23 7127   2.031   3.121   9.143 -0.0301 -0.3884 -0.3353
   63CHL1  H23A 7128   2.065   3.227   9.146 -3.3797  0.7047  0.9432
   63CHL1  H23B 7129   2.108   3.054   9.187 -0.1252 -0.0112  0.4105
   63CHL1   C24 7130   2.002   3.078   8.997  0.6735  0.0534  1.1117
   63CHL1  H24A 7131   1.954   2.979   9.010  0.9459 -0.0917  1.0167
   63CHL1  H24B 7132   1.926   3.149   8.959 -0.7419 -1.3890  1.2147
   63CHL1   C25 7133   2.125   3.060   8.904 -0.8486  0.2989  0.8168
   63CHL1   H25 7134   2.087   3.008   8.814  0.2984  0.4710  0.2325
   63CHL1   C26 7135   2.186   3.198   8.869 -0.4147  0.4476  0.3472
   63CHL1  H26A 7136   2.131   3.263   8.798  0.9510 -0.1328 -1.2847
   63CHL1  H26B 7137   2.204   3.246   8.967 -0.0175 -1.2173  1.1045
   63CHL1  H26C 7138   2.281   3.175   8.816 -0.9259  0.6203 -0.6615
   63CHL1   C27 7139   2.236   2.969   8.955 -0.1541 -0.1308 -0.6368
   63CHL1  H27A 7140   2.201   2.865   8.973  0.6963 -0.5471 -1.3627
   63CHL1  H27B 7141   2.315   2.951   8.880  0.9783 -1.5768  0.8643
   63CHL1  H27C 7142   2.289   3.013   9.042  0.1814  0.0641 -0.9426
   64CHL1    C3 7143   0.935   2.565  10.111  0.0458 -0.2757 -1.0762
   64CHL1    H3 7144   1.038   2.527  10.131  0.1110  1.4167  2.0728
   64CHL1    O3 7145   0.859   2.543  10.230  0.0699 -0.1713  0.4297
   64CHL1   H3' 7146   0.920   2.551  10.304 -0.1221  1.8605  0.3941
   64CHL1    C4 7147   0.950   2.717  10.071 -0.6568  0.7790 -0.2848
   64CHL1   H4A 7148   0.847   2.759  10.066 -0.4076  1.5556  0.8554
   64CHL1   H4B 7149   1.006   2.768  10.153 -2.3447  0.0399  1.3466
   64CHL1    C5 7150   1.019   2.740   9.938 -0.1358 -0.6828 -0.1805
   64CHL1    C6 7151   1.134   2.823   9.930  0.0483 -0.0276 -0.3810
   64CHL1    H6 7152   1.168   2.885  10.013 -1.5547  0.3014  0.0360
   64CHL1    C7 7153   1.184   2.863   9.787 -0.3582  0.1155 -0.7295
   64CHL1   H7A 7154   1.211   2.970   9.777 -0.9782  0.2145 -1.3348
   64CHL1   H7B 7155   1.285   2.817   9.775  0.3585  1.5504 -0.3203
   64CHL1    C8 7156   1.096   2.803   9.665  0.3589 -0.4420  0.1882
   64CHL1    H8 7157   1.013   2.876   9.662 -0.4971 -1.4272 -0.6943
   64CHL1   C14 7158   1.182   2.812   9.539  0.1744 -0.0954 -0.1923
   64CHL1   H14 7159   1.254   2.728   9.552  1.4021  0.9777  0.0830
   64CHL1   C15 7160   1.260   2.935   9.502  1.0771  0.4869  0.2652
   64CHL1  H15A 7161   1.237   3.031   9.553 -1.9872  0.8121 -1.5827
   64CHL1  H15B 7162   1.368   2.930   9.525  0.9044  3.5362  2.0449
   64CHL1   C16 7163   1.249   2.947   9.344 -0.2493 -0.2111  0.3280
   64CHL1  H16A 7164   1.177   3.024   9.312 -0.6494 -0.8747 -0.3840
   64CHL1  H16B 7165   1.352   2.960   9.303 -0.1511 -0.0831  0.6136
   64CHL1   C17 7166   1.183   2.812   9.299 -0.3054 -0.0070  0.2914
   64CHL1   H17 7167   1.262   2.733   9.301 -0.6379 -0.3913 -1.0124
   64CHL1   C13 7168   1.089   2.774   9.420 -0.7021 -0.0746 -0.1463
   64CHL1   C18 7169   0.961   2.861   9.411  0.4285  0.4862  0.0115
   64CHL1  H18A 7170   0.893   2.868   9.499 -0.9259 -0.0028 -0.9887
   64CHL1  H18B 7171   0.983   2.964   9.373  3.4794 -1.6103 -4.2814
   64CHL1  H18C 7172   0.910   2.815   9.324  1.1154  1.8658 -1.1484
   64CHL1   C12 7173   1.046   2.625   9.446 -0.5310 -0.3545 -0.1699
   64CHL1  H12A 7174   0.988   2.589   9.359 -2.2619  1.1678  0.3094
   64CHL1  H12B 7175   1.145   2.575   9.440 -0.4050 -0.3566  1.5527
   64CHL1   C11 7176   0.967   2.601   9.572 -0.5186  0.1058 -0.5013
   64CHL1  H11A 7177   0.866   2.646   9.561 -1.3046 -1.2691  0.8588
   64CHL1  H11B 7178   0.957   2.491   9.582  1.3839  0.0178  0.6723
   64CHL1    C9 7179   1.041   2.664   9.700  0.8345  0.7425 -0.1905
   64CHL1    H9 7180   1.135   2.607   9.716  1.5018  0.9761 -2.9855
   64CHL1   C10 7181   0.954   2.653   9.827  0.2738 -0.8770 -0.2544
   64CHL1   C19 7182   0.812   2.709   9.796  0.3610  0.7164  0.9195
   64CHL1  H19A 7183   0.753   2.727   9.889 -0.7650 -0.3923  0.4348
   64CHL1  H19B 7184   0.827   2.804   9.740  2.7800 -1.0056 -1.4759
   64CHL1  H19C 7185   0.768   2.629   9.733  4.6284  0.1257 -1.5157
   64CHL1    C1 7186   0.945   2.505   9.869  0.4684  0.6083  0.2665
   64CHL1   H1A 7187   0.882   2.447   9.798 -0.9534  2.3824  0.0327
   64CHL1   H1B 7188   1.049   2.469   9.881  0.4823  0.5136 -0.1447
   64CHL1    C2 7189   0.868   2.484   9.998 -0.7192 -0.4153  0.7852
   64CHL1   H2A 7190   0.863   2.376  10.022  1.5132 -0.8610 -0.5554
   64CHL1   H2B 7191   0.765   2.521   9.975  0.2109  1.5486 -0.3535
   64CHL1   C20 7192   1.129   2.812   9.155 -0.0599 -0.5214  1.0826
   64CHL1   H20 7193   1.030   2.863   9.154  0.6767  0.9589  2.3340
   64CHL1   C21 7194   1.092   2.671   9.116  0.0216 -0.2276  0.6528
   64CHL1  H21A 7195   1.078   2.657   9.007  0.3290 -1.5293  0.7748
   64CHL1  H21B 7196   1.006   2.648   9.182  0.6294 -0.1885  1.4734
   64CHL1  H21C 7197   1.181   2.612   9.147 -0.9542 -0.9761  2.0228
   64CHL1   C22 7198   1.225   2.883   9.062  0.2342 -0.4948  0.4384
   64CHL1  H22A 7199   1.169   2.888   8.966  0.1920  0.6665  0.5191
   64CHL1  H22B 7200   1.253   2.986   9.091 -0.9518 -0.2045  0.5736
   64CHL1   C23 7201   1.356   2.808   9.046  0.2201  0.3578  0.1528
   64CHL1  H23A 7202   1.399   2.785   9.146 -0.7881 -1.2349  0.2366
   64CHL1  H23B 7203   1.348   2.711   8.991  1.4242  1.4867 -2.0472
   64CHL1   C24 7204   1.455   2.892   8.964  0.2233 -0.2539  0.6723
   64CHL1  H24A 7205   1.418   2.911   8.861 -0.5446  1.0826  1.1860
   64CHL1  H24B 7206   1.470   2.986   9.021 -1.9642 -0.2779  1.3235
   64CHL1   C25 7207   1.588   2.822   8.961 -0.4089 -0.4731 -0.0024
   64CHL1   H25 7208   1.572   2.722   8.916  2.1328 -0.7032 -0.4630
   64CHL1   C26 7209   1.692   2.901   8.883  0.1204  0.7368  0.5712
   64CHL1  H26A 7210   1.658   2.912   8.778  0.5060  0.3453  0.4035
   64CHL1  H26B 7211   1.701   3.005   8.921  1.4918  0.4876  0.9820
   64CHL1  H26C 7212   1.787   2.842   8.885  0.1845  0.8165 -0.0235
   64CHL1   C27 7213   1.641   2.814   9.102 -0.1325  0.3033 -0.4417
   64CHL1  H27A 7214   1.627   2.912   9.153 -0.8850  0.8408 -1.6902
   64CHL1  H27B 7215   1.588   2.734   9.159 -1.5337  0.7072 -1.1673
   64CHL1  H27C 7216   1.749   2.787   9.104 -0.0423  0.7308  1.1443
   65CHL1    C3 7217   3.812   6.445  10.169  0.2553 -0.5485 -0.0568
   65CHL1    H3 7218   3.790   6.340  10.141  0.8773 -0.7655  0.2704
   65CHL1    O3 7219   3.796   6.455  10.308  0.2262 -0.5364 -0.4030
   65CHL1   H3' 7220   3.820   6.546  10.330  1.1705 -1.2804  1.8195
   65CHL1    C4 7221   3.943   6.504  10.121  0.1749 -0.0962 -0.3722
   65CHL1   H4A 7222   3.960   6.598  10.177 -2.3212  0.8836 -1.1848
   65CHL1   H4B 7223   4.016   6.431  10.162  0.3477 -1.0882 -2.3605
   65CHL1    C5 7224   3.977   6.526   9.978  0.0952 -0.0439  0.2748
   65CHL1    C6 7225   4.091   6.489   9.926 -0.3129 -0.1939  0.1903
   65CHL1    H6 7226   4.169   6.443   9.989  2.4032  1.7058 -1.6672
   65CHL1    C7 7227   4.125   6.531   9.784 -0.8725  0.2093 -0.0519
   65CHL1   H7A 7228   4.224   6.582   9.786 -1.3994  1.1958  2.1583
   65CHL1   H7B 7229   4.137   6.447   9.713 -3.8164  0.2653 -0.6544
   65CHL1    C8 7230   4.027   6.638   9.713 -0.1216 -0.1310  0.2737
   65CHL1    H8 7231   4.049   6.744   9.740  2.4666 -0.4998 -0.2156
   65CHL1   C14 7232   4.038   6.622   9.564  0.1015 -0.0064 -0.4012
   65CHL1   H14 7233   4.002   6.519   9.545 -0.5873  0.4811 -1.8993
   65CHL1   C15 7234   4.179   6.640   9.506 -0.3376 -0.2665  0.2584
   65CHL1  H15A 7235   4.220   6.736   9.543 -0.4009 -0.9433  2.1096
   65CHL1  H15B 7236   4.237   6.548   9.526 -1.4174 -0.5766  2.0635
   65CHL1   C16 7237   4.160   6.652   9.351  0.1412  0.1338 -0.2672
   65CHL1  H16A 7238   4.223   6.734   9.310 -1.7327  0.9687 -1.5489
   65CHL1  H16B 7239   4.192   6.557   9.303 -0.7090 -0.4037  0.2218
   65CHL1   C17 7240   4.009   6.671   9.329 -0.6236 -0.0691 -0.2755
   65CHL1   H17 7241   3.956   6.575   9.311 -1.1087  0.5564 -2.2965
   65CHL1   C13 7242   3.948   6.704   9.478 -0.2316 -0.5015  0.8253
   65CHL1   C18 7243   3.971   6.854   9.500 -0.0185  0.6580 -0.1605
   65CHL1  H18A 7244   3.882   6.907   9.460 -0.4585 -0.2419 -0.3737
   65CHL1  H18B 7245   3.978   6.896   9.603  0.0563  2.4673 -0.8888
   65CHL1  H18C 7246   4.065   6.881   9.448  0.8417 -0.1182  0.9567
   65CHL1   C12 7247   3.804   6.665   9.512  0.3601  0.4209  0.3880
   65CHL1  H12A 7248   3.736   6.723   9.446  0.3628 -1.9931 -1.8302
   65CHL1  H12B 7249   3.788   6.560   9.479  1.9869  0.4307 -0.4736
   65CHL1   C11 7250   3.779   6.687   9.661 -1.2106  0.1508 -1.0691
   65CHL1  H11A 7251   3.780   6.796   9.682 -0.9382 -0.3369  1.5851
   65CHL1  H11B 7252   3.678   6.647   9.684 -0.5179 -1.6090 -1.0400
   65CHL1    C9 7253   3.881   6.609   9.745 -0.2633 -0.6899  0.7146
   65CHL1    H9 7254   3.864   6.508   9.702 -0.3630 -0.1198 -0.6149
   65CHL1   C10 7255   3.861   6.598   9.903 -0.8114 -0.0920  0.0677
   65CHL1   C19 7256   3.849   6.742   9.959  0.2897  1.1025  0.3966
   65CHL1  H19A 7257   3.940   6.803   9.944  1.1494 -0.6808 -2.0238
   65CHL1  H19B 7258   3.761   6.796   9.918  0.1401  0.7904  0.3004
   65CHL1  H19C 7259   3.838   6.737  10.069 -0.6311  3.0699  0.3999
   65CHL1    C1 7260   3.729   6.522   9.939  0.0811  0.7376 -0.0338
   65CHL1   H1A 7261   3.648   6.574   9.883  0.1407  0.5355 -0.3071
   65CHL1   H1B 7262   3.742   6.422   9.893  0.3105  0.1244  1.3405
   65CHL1    C2 7263   3.693   6.511  10.089  0.1478  0.2680  0.2095
   65CHL1   H2A 7264   3.602   6.447  10.093  1.4916 -1.7110  0.0014
   65CHL1   H2B 7265   3.680   6.612  10.132 -0.6400  0.2557  0.0127
   65CHL1   C20 7266   3.964   6.755   9.207 -0.2047 -0.1554 -0.0566
   65CHL1   H20 7267   4.010   6.855   9.221  1.1350 -0.7127 -0.3750
   65CHL1   C21 7268   3.816   6.766   9.199  0.0330 -0.0512 -0.5376
   65CHL1  H21A 7269   3.780   6.835   9.279 -0.6364  0.1151 -0.9782
   65CHL1  H21B 7270   3.763   6.669   9.200  1.1475 -0.6715 -0.4576
   65CHL1  H21C 7271   3.800   6.825   9.106 -0.5448  4.6303  2.3649
   65CHL1   C22 7272   4.019   6.696   9.069 -0.2391  0.3187  0.2966
   65CHL1  H22A 7273   4.113   6.644   9.099 -1.1222 -1.0936  0.6995
   65CHL1  H22B 7274   3.950   6.615   9.036  0.2647 -0.5216  1.2570
   65CHL1   C23 7275   4.040   6.805   8.962  0.1992 -0.2986  0.4875
   65CHL1  H23A 7276   3.942   6.855   8.947  0.2642 -0.1510  0.5568
   65CHL1  H23B 7277   4.099   6.887   9.009 -1.0611  0.0015  1.5744
   65CHL1   C24 7278   4.114   6.749   8.832 -0.5482  0.7344 -0.8469
   65CHL1  H24A 7279   4.187   6.825   8.796  0.9176 -0.2718 -0.0804
   65CHL1  H24B 7280   4.186   6.674   8.871  0.0406  1.6075 -0.2301
   65CHL1   C25 7281   4.033   6.698   8.719  0.0848  0.2071  0.7312
   65CHL1   H25 7282   3.975   6.606   8.743  0.1937 -0.5214 -1.6777
   65CHL1   C26 7283   3.931   6.799   8.661  0.2178  0.3861 -0.3473
   65CHL1  H26A 7284   3.984   6.879   8.605 -0.2870 -0.0758 -1.5147
   65CHL1  H26B 7285   3.860   6.748   8.593 -1.5926 -0.9081  2.4423
   65CHL1  H26C 7286   3.855   6.836   8.733  0.7489  0.7685  0.0203
   65CHL1   C27 7287   4.134   6.657   8.609  0.3926 -0.1590  0.2261
   65CHL1  H27A 7288   4.083   6.590   8.537  2.5390  1.0735 -2.5447
   65CHL1  H27B 7289   4.163   6.747   8.551 -0.6760  1.0703  1.5666
   65CHL1  H27C 7290   4.223   6.610   8.656  0.8894 -1.6820 -2.1726
   66CHL1    C3 7291   1.198   4.512  10.651  0.0682  0.4831  0.1256
   66CHL1    H3 7292   1.215   4.620  10.633 -2.9547  0.7516 -1.4509
   66CHL1    O3 7293   1.204   4.514  10.794  0.2065 -0.0281 -0.5661
   66CHL1   H3' 7294   1.215   4.424  10.825 -2.5768  0.3789  1.7879
   66CHL1    C4 7295   1.056   4.464  10.609 -0.5299 -0.3324 -0.1473
   66CHL1   H4A 7296   1.044   4.363  10.655  0.3159 -0.7755 -0.8847
   66CHL1   H4B 7297   0.976   4.526  10.655 -0.5004  2.0995 -3.2225
   66CHL1    C5 7298   1.047   4.455  10.458 -0.2712 -0.2375 -0.1044
   66CHL1    C6 7299   0.954   4.532  10.400 -0.0612  0.2508  0.4107
   66CHL1    H6 7300   0.892   4.602  10.458 -3.5792 -1.1825 -1.4214
   66CHL1    C7 7301   0.931   4.528  10.255  0.6562  0.4545 -0.0213
   66CHL1   H7A 7302   0.822   4.530  10.233  0.5732  0.8806  0.4192
   66CHL1   H7B 7303   0.969   4.626  10.220 -0.5235  1.0797  0.4337
   66CHL1    C8 7304   1.011   4.419  10.179  0.3848  0.3621  0.4334
   66CHL1    H8 7305   0.957   4.322  10.184 -1.9608  1.5894 -0.3939
   66CHL1   C14 7306   1.011   4.453  10.033  0.5760 -0.5190  0.1644
   66CHL1   H14 7307   1.070   4.547  10.022 -0.2213 -0.0273  0.0242
   66CHL1   C15 7308   0.880   4.482   9.948 -0.3061  0.6572 -1.0531
   66CHL1  H15A 7309   0.806   4.410   9.990  0.3277  0.7603  0.2747
   66CHL1  H15B 7310   0.856   4.588   9.972  1.2881  0.5831  0.9632
   66CHL1   C16 7311   0.910   4.452   9.807 -0.3508  0.1556  0.2217
   66CHL1  H16A 7312   0.839   4.369   9.785 -0.3428 -0.1461  1.2762
   66CHL1  H16B 7313   0.897   4.537   9.738  1.5848  0.2793 -0.0158
   66CHL1   C17 7314   1.063   4.406   9.805  0.0740 -0.6414  0.9623
   66CHL1   H17 7315   1.112   4.504   9.791 -3.6666  0.9936 -1.5876
   66CHL1   C13 7316   1.091   4.354   9.946 -0.0055  0.1728 -0.5162
   66CHL1   C18 7317   1.038   4.206   9.942  0.0037  0.8460  0.4539
   66CHL1  H18A 7318   1.120   4.145   9.900 -2.0979 -1.2334 -0.7686
   66CHL1  H18B 7319   1.020   4.162  10.042  0.1277  1.4645  0.7511
   66CHL1  H18C 7320   0.951   4.193   9.874  0.1475  0.4710  0.3422
   66CHL1   C12 7321   1.237   4.353   9.995 -0.0165 -0.2606  0.4982
   66CHL1  H12A 7322   1.301   4.292   9.928  0.1132  2.4694 -1.9914
   66CHL1  H12B 7323   1.278   4.456   9.984  0.9713 -0.3247  3.1474
   66CHL1   C11 7324   1.250   4.319  10.138 -0.2351  0.2049 -1.2093
   66CHL1  H11A 7325   1.218   4.214  10.152 -1.8021  0.6238 -1.5328
   66CHL1  H11B 7326   1.350   4.332  10.184 -0.1350 -2.0586 -0.7559
   66CHL1    C9 7327   1.157   4.409  10.228 -0.3416  0.1092  0.8207
   66CHL1    H9 7328   1.200   4.511  10.216  0.7141 -0.3562  0.5498
   66CHL1   C10 7329   1.155   4.378  10.377 -0.4325 -0.2237  0.1043
   66CHL1   C19 7330   1.132   4.232  10.401  0.2676 -0.0182  0.0929
   66CHL1  H19A 7331   1.218   4.178  10.357  1.3064  0.9978  0.8666
   66CHL1  H19B 7332   1.134   4.212  10.510 -3.4250  1.8546  0.5849
   66CHL1  H19C 7333   1.033   4.199  10.362 -0.0342 -1.6518  2.1316
   66CHL1    C1 7334   1.297   4.414  10.433 -0.1692 -0.6416  0.3659
   66CHL1   H1A 7335   1.367   4.340  10.390 -1.4277 -1.1687 -0.8419
   66CHL1   H1B 7336   1.318   4.518  10.402 -1.7032  0.3637  2.5381
   66CHL1    C2 7337   1.301   4.416  10.586 -0.1092  0.6512 -0.8089
   66CHL1   H2A 7338   1.405   4.438  10.619 -0.0403 -0.3092 -0.3594
   66CHL1   H2B 7339   1.279   4.313  10.621  2.3132  1.0438  2.0902
   66CHL1   C20 7340   1.103   4.324   9.682  0.6009  0.3959  0.3576
   66CHL1   H20 7341   1.067   4.219   9.677 -0.5219  0.7201  1.4793
   66CHL1   C21 7342   1.261   4.310   9.675  0.6928 -0.3486 -0.0967
   66CHL1  H21A 7343   1.317   4.402   9.702 -0.0969  0.7755 -2.1626
   66CHL1  H21B 7344   1.297   4.280   9.574 -0.8387  1.1869 -1.1174
   66CHL1  H21C 7345   1.291   4.226   9.741  0.8366  1.0699  1.6802
   66CHL1   C22 7346   1.042   4.390   9.548  0.3702  0.1514 -0.5267
   66CHL1  H22A 7347   0.932   4.400   9.555  0.2864  0.3016 -1.8618
   66CHL1  H22B 7348   1.086   4.491   9.557  0.0820  0.1479  0.9628
   66CHL1   C23 7349   1.069   4.305   9.425 -0.0970 -0.6123 -0.5847
   66CHL1  H23A 7350   1.179   4.310   9.407 -0.0592 -0.4944 -0.3257
   66CHL1  H23B 7351   1.026   4.206   9.451 -0.5897 -0.1857  0.2090
   66CHL1   C24 7352   1.010   4.360   9.296  0.0351  0.7168  0.3502
   66CHL1  H24A 7353   0.908   4.402   9.308  0.4803  1.7850  0.3937
   66CHL1  H24B 7354   1.079   4.442   9.267 -0.8032  0.9467 -1.0688
   66CHL1   C25 7355   0.998   4.260   9.182 -0.3434 -0.8875  0.0381
   66CHL1   H25 7356   0.950   4.165   9.216  1.3444 -2.3992 -1.6776
   66CHL1   C26 7357   0.893   4.320   9.085  0.0077  0.0784 -0.7135
   66CHL1  H26A 7358   0.897   4.268   8.986  0.0799 -0.2908 -0.5185
   66CHL1  H26B 7359   0.797   4.308   9.140  0.3743  0.1289 -0.0656
   66CHL1  H26C 7360   0.911   4.427   9.065  0.4440 -0.1610 -1.6786
   66CHL1   C27 7361   1.123   4.212   9.113 -0.1748  0.0586  0.2526
   66CHL1  H27A 7362   1.180   4.305   9.091 -0.1325 -0.6825 -3.1162
   66CHL1  H27B 7363   1.191   4.148   9.173 -0.2252 -0.6084 -0.3985
   66CHL1  H27C 7364   1.118   4.153   9.019 -1.2004 -0.1664  0.4472
   67CHL1    C3 7365   5.352   5.180  10.406 -1.0080 -0.4233 -0.3880
   67CHL1    H3 7366   5.351   5.289  10.429 -3.3478 -0.7768  1.2458
   67CHL1    O3 7367   5.363   5.105  10.522  0.1073  0.3742 -0.1633
   67CHL1   H3' 7368   5.366   5.015  10.488  0.1843  0.8980 -1.5323
   67CHL1    C4 7369   5.224   5.139  10.332 -0.5458  0.4388 -0.7552
   67CHL1   H4A 7370   5.209   5.029  10.318  0.7787  0.0729  0.4881
   67CHL1   H4B 7371   5.140   5.161  10.400 -0.4467  0.6509 -0.7043
   67CHL1    C5 7372   5.202   5.205  10.200 -0.2117  1.0022 -0.3514
   67CHL1    C6 7373   5.093   5.275  10.176  0.1148 -0.1593  0.0792
   67CHL1    H6 7374   5.025   5.300  10.260 -0.7255  0.7821 -0.8636
   67CHL1    C7 7375   5.068   5.341  10.042  0.2365 -0.1014 -0.1227
   67CHL1   H7A 7376   4.964   5.316  10.015 -0.4571  1.1330  1.3185
   67CHL1   H7B 7377   5.059   5.452  10.052 -4.3301 -0.5709  2.3218
   67CHL1    C8 7378   5.169   5.286   9.938  0.0819  0.5931  0.2047
   67CHL1    H8 7379   5.127   5.186   9.913 -1.5020  1.4136 -0.4937
   67CHL1   C14 7380   5.163   5.369   9.805  0.0780 -0.1389 -0.3388
   67CHL1   H14 7381   5.193   5.472   9.835 -2.2192  0.4932 -0.1427
   67CHL1   C15 7382   5.028   5.371   9.722 -0.2053  0.5032 -0.1048
   67CHL1  H15A 7383   4.971   5.276   9.728  0.1060  0.4611  2.8099
   67CHL1  H15B 7384   4.960   5.457   9.738  0.0769  0.6830  0.1372
   67CHL1   C16 7385   5.066   5.375   9.566  0.1232 -0.5921 -0.0797
   67CHL1  H16A 7386   5.022   5.286   9.516 -0.0066  1.2774 -3.4113
   67CHL1  H16B 7387   5.023   5.459   9.507 -1.9404 -1.2085  0.4792
   67CHL1   C17 7388   5.225   5.377   9.566 -0.0230 -0.3169  0.6799
   67CHL1   H17 7389   5.248   5.485   9.573  0.0311 -0.1611 -1.6001
   67CHL1   C13 7390   5.264   5.314   9.698 -0.2811  0.7808 -0.9186
   67CHL1   C18 7391   5.244   5.158   9.670  0.2956  0.5201  0.3504
   67CHL1  H18A 7392   5.246   5.092   9.760  0.7160  0.3236  0.2010
   67CHL1  H18B 7393   5.150   5.134   9.615  0.8689  1.3682 -1.0196
   67CHL1  H18C 7394   5.328   5.115   9.611  0.0801 -0.3368  0.6599
   67CHL1   C12 7395   5.404   5.347   9.757 -0.6963 -0.0751 -0.3397
   67CHL1  H12A 7396   5.486   5.322   9.687  0.4796  0.3251  0.8931
   67CHL1  H12B 7397   5.404   5.458   9.765 -1.6689  0.1380 -2.6425
   67CHL1   C11 7398   5.429   5.265   9.889  0.2199  0.5747  0.7095
   67CHL1  H11A 7399   5.433   5.161   9.851 -2.3087  0.2953  1.1615
   67CHL1  H11B 7400   5.528   5.292   9.933  0.1702 -1.4388  2.1541
   67CHL1    C9 7401   5.314   5.278   9.994  0.0935 -0.1132  0.3339
   67CHL1    H9 7402   5.331   5.381  10.032 -1.6936 -0.0836  1.0969
   67CHL1   C10 7403   5.317   5.183  10.113 -0.6151 -0.1089  0.0406
   67CHL1   C19 7404   5.311   5.035  10.070  0.9814 -0.2749  0.2401
   67CHL1  H19A 7405   5.393   5.014   9.999  0.7440  1.5903 -0.6002
   67CHL1  H19B 7406   5.316   4.974  10.163  0.6491 -0.8470 -0.1095
   67CHL1  H19C 7407   5.215   5.009  10.019  2.5968 -0.8737 -2.5928
   67CHL1    C1 7408   5.451   5.219  10.177 -0.1619  0.4164 -0.1539
   67CHL1   H1A 7409   5.534   5.186  10.110 -0.8616  3.8941 -2.9232
   67CHL1   H1B 7410   5.451   5.330  10.188  1.4298  0.6794 -2.5534
   67CHL1    C2 7411   5.481   5.160  10.319  0.3550  0.2964 -0.0241
   67CHL1   H2A 7412   5.567   5.209  10.369 -0.4411  0.6387  1.0059
   67CHL1   H2B 7413   5.501   5.051  10.309  1.2635  0.3580  1.0230
   67CHL1   C20 7414   5.278   5.336   9.428 -0.3394  0.2347 -0.0154
   67CHL1   H20 7415   5.250   5.230   9.408  1.0012  0.0299 -0.8542
   67CHL1   C21 7416   5.431   5.347   9.426 -0.0586  0.0802  0.5489
   67CHL1  H21A 7417   5.464   5.266   9.494  0.5637  1.1521  1.5284
   67CHL1  H21B 7418   5.471   5.443   9.465  0.4002  0.4246 -0.7209
   67CHL1  H21C 7419   5.469   5.326   9.323  0.0839  1.1377  0.3814
   67CHL1   C22 7420   5.218   5.405   9.309  0.5679 -0.0909  0.0166
   67CHL1  H22A 7421   5.109   5.416   9.330  0.6246  0.2382  0.1473
   67CHL1  H22B 7422   5.249   5.512   9.306 -0.4192  0.1748 -1.5136
   67CHL1   C23 7423   5.241   5.336   9.175  0.2164 -0.1774  0.4968
   67CHL1  H23A 7424   5.348   5.306   9.165  0.5773  1.6710 -1.7191
   67CHL1  H23B 7425   5.177   5.245   9.176  0.1561 -0.2015 -2.0415
   67CHL1   C24 7426   5.193   5.408   9.045 -0.5346 -0.8266  0.2827
   67CHL1  H24A 7427   5.226   5.343   8.961 -1.8839 -1.5805  0.3132
   67CHL1  H24B 7428   5.083   5.414   9.056 -0.7200  3.7146 -3.0302
   67CHL1   C25 7429   5.249   5.546   8.997 -0.6008  0.5664 -0.4986
   67CHL1   H25 7430   5.202   5.611   9.073  2.5604  0.6604  1.4758
   67CHL1   C26 7431   5.404   5.553   9.010 -0.3180 -0.4353 -0.2275
   67CHL1  H26A 7432   5.444   5.492   8.926  1.6294 -0.3897  0.6317
   67CHL1  H26B 7433   5.450   5.653   8.995 -2.4209  0.5101 -0.5847
   67CHL1  H26C 7434   5.440   5.519   9.110  0.1929 -1.1004 -0.6344
   67CHL1   C27 7435   5.197   5.599   8.865  0.3667 -0.1895 -0.0563
   67CHL1  H27A 7436   5.094   5.629   8.890  0.2465 -0.8569  0.2577
   67CHL1  H27B 7437   5.249   5.689   8.825  2.3088 -0.2846  2.1639
   67CHL1  H27C 7438   5.196   5.530   8.778  0.4374  0.5258 -0.6270
   68CHL1    C3 7439   3.468   6.232  10.278  0.1681 -0.2638 -0.1871
   68CHL1    H3 7440   3.546   6.309  10.257 -0.2204  0.4452  0.8855
   68CHL1    O3 7441   3.463   6.200  10.416 -0.1259  0.4615 -0.1390
   68CHL1   H3' 7442   3.553   6.209  10.447 -1.1327  2.6011  2.2768
   68CHL1    C4 7443   3.330   6.284  10.228  0.2527 -0.0619  0.5901
   68CHL1   H4A 7444   3.260   6.200  10.248 -1.1271  1.6138  3.0243
   68CHL1   H4B 7445   3.312   6.368  10.298 -3.5553 -0.7708  0.5555
   68CHL1    C5 7446   3.341   6.321  10.075 -0.0112  1.1042 -0.9562
   68CHL1    C6 7447   3.322   6.446  10.033  0.0093  0.0088 -0.1191
   68CHL1    H6 7448   3.290   6.522  10.106  2.2005  4.5107 -3.5769
   68CHL1    C7 7449   3.341   6.476   9.887 -0.2052  0.1602 -0.6256
   68CHL1   H7A 7450   3.259   6.548   9.863 -0.3993 -0.0916 -0.7125
   68CHL1   H7B 7451   3.434   6.536   9.877 -1.2566  2.1802  1.2426
   68CHL1    C8 7452   3.353   6.358   9.791  0.2057  0.4047  0.2543
   68CHL1    H8 7453   3.244   6.342   9.771  0.2014 -1.2844  1.5588
   68CHL1   C14 7454   3.419   6.409   9.663 -0.3431  0.4570 -0.4630
   68CHL1   H14 7455   3.525   6.428   9.691 -0.6014  0.0996  0.7670
   68CHL1   C15 7456   3.379   6.545   9.603  0.5720  0.2323  0.3604
   68CHL1  H15A 7457   3.268   6.550   9.601  0.5237 -1.0406 -1.6467
   68CHL1  H15B 7458   3.420   6.624   9.669 -0.0968  0.2358  0.7756
   68CHL1   C16 7459   3.448   6.534   9.465  0.3507 -0.5256  0.3950
   68CHL1  H16A 7460   3.367   6.556   9.392  0.6310 -1.7155 -0.2826
   68CHL1  H16B 7461   3.524   6.615   9.466 -1.5090  1.2733  0.4921
   68CHL1   C17 7462   3.506   6.395   9.441 -0.2445 -0.4480  0.2478
   68CHL1   H17 7463   3.611   6.402   9.475  0.1418 -0.7023 -0.8923
   68CHL1   C13 7464   3.431   6.311   9.546 -0.0606 -0.3412 -0.1015
   68CHL1   C18 7465   3.289   6.277   9.512 -0.1587 -0.4807 -0.0753
   68CHL1  H18A 7466   3.234   6.238   9.600 -1.5804  0.3118 -0.5802
   68CHL1  H18B 7467   3.240   6.368   9.471 -0.0115 -0.6886 -0.7205
   68CHL1  H18C 7468   3.288   6.198   9.434  0.2541  0.1817 -0.7555
   68CHL1   C12 7469   3.506   6.186   9.608  0.1948 -0.1057 -0.5823
   68CHL1  H12A 7470   3.514   6.101   9.536  2.6179 -1.3491  1.0456
   68CHL1  H12B 7471   3.609   6.226   9.623  0.5390 -0.3872 -2.1058
   68CHL1   C11 7472   3.456   6.133   9.739  0.2105 -0.2725  0.7334
   68CHL1  H11A 7473   3.360   6.078   9.730 -0.1106 -0.1395  3.0520
   68CHL1  H11B 7474   3.540   6.065   9.766  0.9825  0.9890  1.5376
   68CHL1    C9 7475   3.434   6.245   9.851  0.1782 -0.5097  0.2901
   68CHL1    H9 7476   3.532   6.296   9.860 -0.3421  0.8100 -1.4110
   68CHL1   C10 7477   3.386   6.204   9.989  0.1013  0.2904  0.2928
   68CHL1   C19 7478   3.270   6.098   9.979  0.0564  0.3380 -0.4618
   68CHL1  H19A 7479   3.299   6.014   9.912 -0.0496 -1.7075  2.0006
   68CHL1  H19B 7480   3.255   6.046  10.076 -0.1142  0.2473 -0.5388
   68CHL1  H19C 7481   3.175   6.145   9.946  0.1122  1.1929  0.5742
   68CHL1    C1 7482   3.512   6.136  10.053 -0.2592 -1.0583 -0.6352
   68CHL1   H1A 7483   3.529   6.039  10.002  0.4649 -0.0169 -2.4242
   68CHL1   H1B 7484   3.603   6.201  10.054 -0.4113 -0.8446 -0.6913
   68CHL1    C2 7485   3.502   6.108  10.200 -0.1194 -0.1923 -0.7412
   68CHL1   H2A 7486   3.599   6.075  10.243 -0.5445 -0.3252  0.1323
   68CHL1   H2B 7487   3.427   6.032  10.229 -0.5299  0.6681  0.5247
   68CHL1   C20 7488   3.504   6.344   9.298 -1.1599 -0.2979  0.2421
   68CHL1   H20 7489   3.397   6.355   9.268 -0.9833 -2.4944 -1.2821
   68CHL1   C21 7490   3.546   6.194   9.296  0.0288 -0.6029 -0.2531
   68CHL1  H21A 7491   3.460   6.127   9.319  1.1798 -2.2891 -0.7392
   68CHL1  H21B 7492   3.638   6.173   9.353 -0.6424 -0.5759  0.8569
   68CHL1  H21C 7493   3.578   6.176   9.191 -0.5050  1.2773 -0.7637
   68CHL1   C22 7494   3.580   6.442   9.204  0.3329  0.6386  0.5248
   68CHL1  H22A 7495   3.593   6.544   9.245  0.5217  0.1396  1.7054
   68CHL1  H22B 7496   3.685   6.409   9.193  0.5023  0.5756  2.1864
   68CHL1   C23 7497   3.522   6.443   9.067 -0.7645 -0.1059 -0.1529
   68CHL1  H23A 7498   3.494   6.342   9.033  0.3252 -0.1168 -1.0413
   68CHL1  H23B 7499   3.431   6.506   9.064 -0.8375 -0.1868  0.3112
   68CHL1   C24 7500   3.618   6.491   8.963 -0.4015 -0.1321 -0.1078
   68CHL1  H24A 7501   3.662   6.589   8.991  0.8298 -0.5080 -0.6723
   68CHL1  H24B 7502   3.713   6.434   8.952 -1.3442 -1.5391 -1.1834
   68CHL1   C25 7503   3.560   6.511   8.825  0.3424 -0.1961  0.1409
   68CHL1   H25 7504   3.455   6.548   8.821  0.9005  1.3226 -1.8093
   68CHL1   C26 7505   3.644   6.620   8.758  1.0326 -0.3585  0.1079
   68CHL1  H26A 7506   3.744   6.591   8.721  2.3251  1.8801  1.6596
   68CHL1  H26B 7507   3.585   6.637   8.665  0.9660 -1.6902 -0.0982
   68CHL1  H26C 7508   3.646   6.707   8.828  3.4956  0.2655 -0.6855
   68CHL1   C27 7509   3.572   6.383   8.739 -0.4221  0.7654  0.2419
   68CHL1  H27A 7510   3.508   6.305   8.784 -1.1137  0.3052 -1.4924
   68CHL1  H27B 7511   3.536   6.396   8.635 -1.3587  0.7439  0.5651
   68CHL1  H27C 7512   3.674   6.339   8.730 -0.0998  1.3747  0.7851
   69CHL1    C3 7513   2.253   4.476   6.831 -0.4412  0.4565 -0.3149
   69CHL1    H3 7514   2.154   4.481   6.881  0.3963  2.6485  1.2277
   69CHL1    O3 7515   2.233   4.488   6.694  0.0629  0.2466  0.3871
   69CHL1   H3' 7516   2.243   4.398   6.664 -0.3152  0.0368  0.8849
   69CHL1    C4 7517   2.333   4.596   6.893  0.1479  0.1961  0.0990
   69CHL1   H4A 7518   2.432   4.610   6.846 -0.3622 -0.9865 -1.3577
   69CHL1   H4B 7519   2.285   4.689   6.857  1.4536  0.8110 -0.0595
   69CHL1    C5 7520   2.346   4.588   7.039 -0.0092 -0.4044  0.8513
   69CHL1    C6 7521   2.300   4.685   7.119 -0.1689  0.0057  0.8586
   69CHL1    H6 7522   2.250   4.777   7.084  0.3222  0.7470  2.0458
   69CHL1    C7 7523   2.314   4.681   7.265  0.2827  0.0298 -0.1143
   69CHL1   H7A 7524   2.361   4.775   7.301  2.8264 -2.3212  3.0661
   69CHL1   H7B 7525   2.212   4.666   7.305 -0.0026 -3.2299 -1.8927
   69CHL1    C8 7526   2.411   4.569   7.320  0.3568  0.3474  0.0867
   69CHL1    H8 7527   2.512   4.613   7.303  0.9592 -1.3764 -0.9975
   69CHL1   C14 7528   2.389   4.536   7.465  0.6450  0.0977 -0.5977
   69CHL1   H14 7529   2.289   4.488   7.469  0.3753  0.7240  0.2936
   69CHL1   C15 7530   2.379   4.656   7.562 -0.2638  0.3719  0.3928
   69CHL1  H15A 7531   2.450   4.730   7.520 -1.0653  1.4343  0.9015
   69CHL1  H15B 7532   2.277   4.700   7.561  0.5735  2.4041  1.7736
   69CHL1   C16 7533   2.426   4.609   7.694 -0.1676 -0.4300  0.4708
   69CHL1  H16A 7534   2.527   4.645   7.725 -0.1942  1.0002 -1.0008
   69CHL1  H16B 7535   2.355   4.622   7.778 -1.5841 -0.1590 -0.7550
   69CHL1   C17 7536   2.441   4.455   7.672  0.3281 -0.3643  0.2733
   69CHL1   H17 7537   2.339   4.413   7.682 -0.6921  1.5537 -1.8022
   69CHL1   C13 7538   2.492   4.440   7.524  0.9625  0.0474 -0.5984
   69CHL1   C18 7539   2.633   4.507   7.505 -0.8385 -0.4154 -0.2407
   69CHL1  H18A 7540   2.664   4.499   7.399  1.0804  0.3531  0.2476
   69CHL1  H18B 7541   2.640   4.614   7.536  1.0797 -0.7411  0.4856
   69CHL1  H18C 7542   2.710   4.449   7.559  1.4604  1.4992 -1.4060
   69CHL1   C12 7543   2.473   4.303   7.452 -0.7826  0.5267 -0.7954
   69CHL1  H12A 7544   2.556   4.234   7.480 -1.6051 -0.4620 -0.7459
   69CHL1  H12B 7545   2.377   4.257   7.485 -0.9816  1.0918 -0.5937
   69CHL1   C11 7546   2.484   4.321   7.298 -0.6098  0.9465 -0.8007
   69CHL1  H11A 7547   2.590   4.347   7.277 -0.5483  0.7869 -0.6861
   69CHL1  H11B 7548   2.476   4.222   7.249 -0.2739  1.4834 -1.9450
   69CHL1    C9 7549   2.392   4.437   7.243  0.2723  0.0389  0.8147
   69CHL1    H9 7550   2.288   4.400   7.256  0.3202 -1.3314 -2.1697
   69CHL1   C10 7551   2.405   4.453   7.093 -0.2830  0.4432 -0.2406
   69CHL1   C19 7552   2.550   4.452   7.061 -0.7356 -0.9020 -0.7711
   69CHL1  H19A 7553   2.604   4.521   7.129 -2.4807  0.3647 -0.6300
   69CHL1  H19B 7554   2.589   4.349   7.074 -0.4598 -0.5715  1.2314
   69CHL1  H19C 7555   2.569   4.465   6.952 -0.4083 -0.2736 -0.6417
   69CHL1    C1 7556   2.337   4.328   7.017  0.5293  0.2371 -0.0870
   69CHL1   H1A 7557   2.375   4.228   7.044 -1.1324 -0.6567 -0.9854
   69CHL1   H1B 7558   2.234   4.323   7.058 -0.7186  1.9046 -2.8330
   69CHL1    C2 7559   2.326   4.348   6.865 -0.5439  0.3447 -0.0897
   69CHL1   H2A 7560   2.259   4.275   6.814 -1.1105  0.6131  0.2633
   69CHL1   H2B 7561   2.427   4.347   6.819 -0.7573 -0.7870 -0.5580
   69CHL1   C20 7562   2.528   4.389   7.777  0.3013 -0.3539 -0.6127
   69CHL1   H20 7563   2.630   4.419   7.745  0.9546 -2.6315 -0.7396
   69CHL1   C21 7564   2.503   4.230   7.771 -0.2625  0.8989  0.1753
   69CHL1  H21A 7565   2.573   4.175   7.837 -1.5840 -0.9767  0.0589
   69CHL1  H21B 7566   2.500   4.184   7.669  0.2564 -0.3323  0.7090
   69CHL1  H21C 7567   2.405   4.217   7.822 -0.0113  0.2549  0.4895
   69CHL1   C22 7568   2.496   4.440   7.920 -0.0447  0.3470  0.0670
   69CHL1  H22A 7569   2.498   4.551   7.933 -2.3422  0.3495  0.6689
   69CHL1  H22B 7570   2.395   4.410   7.957  1.4783 -1.8700  2.5467
   69CHL1   C23 7571   2.598   4.378   8.020  0.1508 -0.4563 -0.7367
   69CHL1  H23A 7572   2.569   4.271   8.030  1.3470 -0.8368 -1.1479
   69CHL1  H23B 7573   2.702   4.378   7.980  0.5929 -1.3163  0.3570
   69CHL1   C24 7574   2.572   4.448   8.149 -0.6883 -0.2309 -0.4170
   69CHL1  H24A 7575   2.596   4.556   8.134  0.2426 -0.2710  0.6990
   69CHL1  H24B 7576   2.466   4.441   8.180 -0.5081 -0.5873  0.1296
   69CHL1   C25 7577   2.654   4.388   8.270 -0.2103 -0.5487  0.3352
   69CHL1   H25 7578   2.629   4.280   8.268 -1.6116 -0.2398  0.4823
   69CHL1   C26 7579   2.811   4.404   8.257 -0.1239  0.0417  0.2249
   69CHL1  H26A 7580   2.830   4.505   8.297 -0.5522  0.5663 -0.8839
   69CHL1  H26B 7581   2.860   4.330   8.324 -1.7382  1.2071  2.7541
   69CHL1  H26C 7582   2.844   4.396   8.151 -0.5820  3.6469 -0.2518
   69CHL1   C27 7583   2.599   4.448   8.410 -0.2654 -0.2726  0.3864
   69CHL1  H27A 7584   2.490   4.453   8.428 -0.2109 -1.3011  1.0418
   69CHL1  H27B 7585   2.640   4.386   8.493  3.4065 -1.8593 -2.4223
   69CHL1  H27C 7586   2.637   4.551   8.428 -0.0385 -0.3416  0.3063
   70CHL1    C3 7587   2.453   0.892   7.067  0.2961  0.6823  0.3443
   70CHL1    H3 7588   2.344   0.874   7.071  0.2278  1.2148  0.8482
   70CHL1    O3 7589   2.499   0.900   6.931  0.0667  0.0276  0.0595
   70CHL1   H3' 7590   2.577   0.957   6.928 -0.8220  1.4080  1.8184
   70CHL1    C4 7591   2.488   1.026   7.130 -0.4794 -0.0533 -0.6954
   70CHL1   H4A 7592   2.597   1.048   7.124 -0.0322 -1.6354  0.9860
   70CHL1   H4B 7593   2.429   1.099   7.071 -2.1208  0.7227  1.8175
   70CHL1    C5 7594   2.450   1.040   7.272 -0.8722 -0.2219 -0.1605
   70CHL1    C6 7595   2.374   1.137   7.320 -0.4822 -0.1410 -0.0077
   70CHL1    H6 7596   2.335   1.216   7.254 -2.6935 -1.5591 -0.4455
   70CHL1    C7 7597   2.349   1.159   7.466  0.3638 -0.5516  0.6203
   70CHL1   H7A 7598   2.354   1.267   7.494  0.4998 -0.9281  2.0801
   70CHL1   H7B 7599   2.244   1.127   7.487 -0.1943 -1.1018 -2.7681
   70CHL1    C8 7600   2.442   1.078   7.557  0.1130 -0.1559 -0.5247
   70CHL1    H8 7601   2.540   1.132   7.558 -0.1541  0.3325  0.8477
   70CHL1   C14 7602   2.380   1.067   7.699  0.0099  0.1146 -0.7449
   70CHL1   H14 7603   2.291   1.000   7.696  0.4261 -0.3813 -2.0151
   70CHL1   C15 7604   2.327   1.188   7.767  0.1612 -0.7643  0.4498
   70CHL1  H15A 7605   2.400   1.270   7.755 -0.8641 -0.3499 -3.7305
   70CHL1  H15B 7606   2.232   1.230   7.726  0.5770  0.0512  0.3172
   70CHL1   C16 7607   2.316   1.151   7.913 -0.2415  0.6536 -0.1000
   70CHL1  H16A 7608   2.369   1.221   7.980 -1.0897  1.7487 -0.5529
   70CHL1  H16B 7609   2.213   1.144   7.953 -0.6114 -0.2496 -1.1801
   70CHL1   C17 7610   2.379   1.009   7.924  0.4404  0.0553  0.4325
   70CHL1   H17 7611   2.296   0.936   7.925 -0.5700  1.0863 -2.3412
   70CHL1   C13 7612   2.474   0.996   7.803  0.3707 -0.4144  0.7692
   70CHL1   C18 7613   2.602   1.080   7.830  0.2851 -0.0933 -0.4722
   70CHL1  H18A 7614   2.572   1.163   7.897 -2.4636  0.3723 -2.1925
   70CHL1  H18B 7615   2.680   1.026   7.888 -0.8113  0.4656  1.5718
   70CHL1  H18C 7616   2.656   1.126   7.744  1.8624  0.2906  0.7005
   70CHL1   C12 7617   2.501   0.857   7.740  0.3324  0.1266  0.4316
   70CHL1  H12A 7618   2.565   0.796   7.808 -0.3953  1.8023  2.6901
   70CHL1  H12B 7619   2.404   0.806   7.722  0.4124  0.8043 -1.9963
   70CHL1   C11 7620   2.562   0.864   7.604  0.1486 -0.2012  0.1685
   70CHL1  H11A 7621   2.660   0.915   7.616 -0.8957  1.9677 -0.2989
   70CHL1  H11B 7622   2.563   0.761   7.562 -2.4076  0.1901 -1.0021
   70CHL1    C9 7623   2.463   0.937   7.510 -0.4955  0.4169  1.1510
   70CHL1    H9 7624   2.366   0.882   7.508 -0.9892  1.2958 -0.7576
   70CHL1   C10 7625   2.517   0.935   7.359  0.4348 -0.2071 -0.3702
   70CHL1   C19 7626   2.667   0.955   7.363 -0.1176  0.4974  0.3772
   70CHL1  H19A 7627   2.718   0.880   7.427  2.9107 -0.0341 -2.5134
   70CHL1  H19B 7628   2.716   0.955   7.263 -2.1091 -2.4951 -0.6640
   70CHL1  H19C 7629   2.694   1.044   7.424 -2.8745 -0.0122  2.4624
   70CHL1    C1 7630   2.476   0.796   7.295  0.1087  0.3544 -0.1513
   70CHL1   H1A 7631   2.517   0.716   7.360 -0.4370  1.9999  2.2559
   70CHL1   H1B 7632   2.368   0.771   7.303  0.7559 -2.7181 -0.0915
   70CHL1    C2 7633   2.524   0.782   7.148 -0.0155 -0.5525 -0.5515
   70CHL1   H2A 7634   2.480   0.688   7.108  1.3343 -1.5084  0.1999
   70CHL1   H2B 7635   2.635   0.782   7.147 -0.0053 -1.8625 -1.8154
   70CHL1   C20 7636   2.448   0.979   8.059 -0.2028 -0.5082 -0.0316
   70CHL1   H20 7637   2.538   1.043   8.072 -1.3983  1.3437 -0.5695
   70CHL1   C21 7638   2.496   0.836   8.061 -0.3459  0.3481 -0.0660
   70CHL1  H21A 7639   2.586   0.828   7.997  0.7241  1.8925  1.2168
   70CHL1  H21B 7640   2.416   0.766   8.027  0.4666 -0.9759  0.6972
   70CHL1  H21C 7641   2.522   0.807   8.166 -0.5811 -0.7986 -0.3160
   70CHL1   C22 7642   2.348   1.010   8.174  0.5165 -0.0130 -0.9657
   70CHL1  H22A 7643   2.289   1.103   8.158 -1.7915 -1.7534 -2.9205
   70CHL1  H22B 7644   2.267   0.937   8.155 -0.3962  1.3044 -2.2686
   70CHL1   C23 7645   2.411   1.010   8.314 -0.2107 -0.1485 -0.2118
   70CHL1  H23A 7646   2.457   0.911   8.331 -2.0964 -0.8249  1.2505
   70CHL1  H23B 7647   2.493   1.086   8.315  0.0664 -0.4457 -0.8403
   70CHL1   C24 7648   2.311   1.035   8.432 -0.6115  0.0903  0.1688
   70CHL1  H24A 7649   2.265   1.134   8.414  0.7595  0.5488 -0.9056
   70CHL1  H24B 7650   2.239   0.951   8.439 -1.2093  0.6025  0.2031
   70CHL1   C25 7651   2.368   1.041   8.574 -0.6900  0.0923 -0.0991
   70CHL1   H25 7652   2.439   1.126   8.581  0.7101 -1.1498  1.3603
   70CHL1   C26 7653   2.260   1.069   8.679 -0.6984 -0.0755 -1.0217
   70CHL1  H26A 7654   2.186   0.986   8.679  0.9971 -1.6494 -3.2561
   70CHL1  H26B 7655   2.298   1.069   8.784 -2.5557 -2.2357 -0.3047
   70CHL1  H26C 7656   2.219   1.171   8.668  0.2143  0.2271 -1.7363
   70CHL1   C27 7657   2.446   0.910   8.617  0.6159 -0.3960  0.1435
   70CHL1  H27A 7658   2.507   0.917   8.710  1.5701 -2.8444 -0.2623
   70CHL1  H27B 7659   2.362   0.837   8.626  1.4247 -1.4628 -0.7017
   70CHL1  H27C 7660   2.517   0.884   8.536  0.4447  0.1044 -0.1648
   71CHL1    C3 7661   1.666   3.335   6.806 -0.1714 -0.3356  0.1889
   71CHL1    H3 7662   1.663   3.440   6.841  1.0058 -1.3236  3.4037
   71CHL1    O3 7663   1.688   3.343   6.662  0.6134 -0.8537  0.2033
   71CHL1   H3' 7664   1.775   3.384   6.654  0.2043 -0.3232 -2.0865
   71CHL1    C4 7665   1.790   3.274   6.873  1.0816 -0.6869  0.2526
   71CHL1   H4A 7666   1.814   3.178   6.822  1.5807 -0.3683 -0.1136
   71CHL1   H4B 7667   1.878   3.336   6.847  0.7201 -0.4103 -0.3092
   71CHL1    C5 7668   1.780   3.254   7.022 -0.0442  0.0789  0.2545
   71CHL1    C6 7669   1.860   3.328   7.105 -0.0476 -0.5503 -0.0136
   71CHL1    H6 7670   1.949   3.383   7.071 -0.7422 -0.2731 -1.4153
   71CHL1    C7 7671   1.845   3.312   7.256 -0.4514  1.0014 -0.3787
   71CHL1   H7A 7672   1.943   3.290   7.302 -1.3278 -2.0880  0.1369
   71CHL1   H7B 7673   1.807   3.406   7.301 -1.6758  0.0864  0.5404
   71CHL1    C8 7674   1.749   3.191   7.296 -0.6086  0.4063 -0.2793
   71CHL1    H8 7675   1.803   3.096   7.275  2.2039  1.6662  0.9302
   71CHL1   C14 7676   1.717   3.202   7.443  0.2659 -0.6686  0.1238
   71CHL1   H14 7677   1.656   3.294   7.456 -1.5912 -1.7046 -1.0716
   71CHL1   C15 7678   1.829   3.221   7.542  0.2045 -0.1557  0.6519
   71CHL1  H15A 7679   1.910   3.147   7.522 -0.8742 -0.9118 -1.0268
   71CHL1  H15B 7680   1.875   3.322   7.550  0.4079 -0.3886  2.6825
   71CHL1   C16 7681   1.762   3.181   7.678 -0.2634 -0.1127  0.1452
   71CHL1  H16A 7682   1.828   3.101   7.717  0.1149 -0.6838 -1.6594
   71CHL1  H16B 7683   1.759   3.264   7.752 -0.8662 -0.1157  0.1328
   71CHL1   C17 7684   1.612   3.145   7.645  0.2333  0.1539  0.5014
   71CHL1   H17 7685   1.552   3.238   7.644 -0.4875 -0.3048  0.8778
   71CHL1   C13 7686   1.618   3.105   7.501  0.3287 -0.7546 -0.0636
   71CHL1   C18 7687   1.670   2.963   7.485 -0.6082 -0.0199  0.4302
   71CHL1  H18A 7688   1.749   2.940   7.560 -1.0001  1.7217  1.3959
   71CHL1  H18B 7689   1.582   2.895   7.489 -2.2568  1.9184 -1.9025
   71CHL1  H18C 7690   1.721   2.938   7.390  1.4535  0.3426  1.3931
   71CHL1   C12 7691   1.483   3.114   7.422 -0.7017  0.4781  0.4888
   71CHL1  H12A 7692   1.411   3.033   7.450 -0.5440  0.7854  1.8147
   71CHL1  H12B 7693   1.429   3.210   7.437 -2.3455 -0.3253 -0.1245
   71CHL1   C11 7694   1.508   3.093   7.269  0.1238  1.0602  0.1968
   71CHL1  H11A 7695   1.550   2.991   7.254  1.1791  1.4117  0.6851
   71CHL1  H11B 7696   1.405   3.114   7.234 -0.1904  0.9158  1.0350
   71CHL1    C9 7697   1.614   3.198   7.210 -0.5473  0.4481 -0.3180
   71CHL1    H9 7698   1.568   3.298   7.227  0.0639  0.2699  2.6909
   71CHL1   C10 7699   1.644   3.176   7.065 -0.5774 -0.1650  0.0456
   71CHL1   C19 7700   1.651   3.026   7.025  0.1384  0.2847 -0.0607
   71CHL1  H19A 7701   1.550   2.983   7.042  0.6338  0.1455  2.7340
   71CHL1  H19B 7702   1.693   3.002   6.925  1.2506 -1.0649  0.7115
   71CHL1  H19C 7703   1.727   2.983   7.094 -3.0200 -3.7596  1.1079
   71CHL1    C1 7704   1.517   3.240   6.987  0.4598  0.5538  0.0614
   71CHL1   H1A 7705   1.416   3.197   7.006  0.2696  0.8602 -0.2517
   71CHL1   H1B 7706   1.517   3.345   7.023 -0.7378 -0.0409  1.8545
   71CHL1    C2 7707   1.533   3.261   6.833  0.1939  0.3419 -0.6874
   71CHL1   H2A 7708   1.439   3.310   6.799 -0.4992  1.9997  3.4469
   71CHL1   H2B 7709   1.521   3.167   6.774 -1.9311 -0.3459  0.8065
   71CHL1   C20 7710   1.542   3.045   7.741 -0.0992  0.3360  0.0865
   71CHL1   H20 7711   1.542   2.938   7.710  1.3837  0.4780 -0.4184
   71CHL1   C21 7712   1.394   3.080   7.742 -0.8011 -0.1460  0.1615
   71CHL1  H21A 7713   1.332   3.027   7.817 -3.1858  2.5283  0.1637
   71CHL1  H21B 7714   1.354   3.057   7.641  1.0157  0.4064 -0.7004
   71CHL1  H21C 7715   1.379   3.188   7.762 -1.0410  0.2316 -1.9461
   71CHL1   C22 7716   1.589   3.052   7.886  0.1165  0.1477  0.1270
   71CHL1  H22A 7717   1.533   2.978   7.947 -1.8187  1.0467 -0.5106
   71CHL1  H22B 7718   1.695   3.019   7.885 -0.3694 -1.4356 -0.6483
   71CHL1   C23 7719   1.571   3.181   7.961 -0.2558 -0.5817 -0.0183
   71CHL1  H23A 7720   1.659   3.195   8.027 -1.8029 -0.2452  2.0258
   71CHL1  H23B 7721   1.568   3.266   7.889 -1.0452 -1.8209 -1.4588
   71CHL1   C24 7722   1.451   3.176   8.058 -0.7437 -0.0541 -0.3148
   71CHL1  H24A 7723   1.358   3.170   7.997  0.8772 -1.2776 -2.7057
   71CHL1  H24B 7724   1.451   3.080   8.113 -3.3698  0.8893  1.4220
   71CHL1   C25 7725   1.446   3.297   8.155 -0.8252  0.3672 -0.6123
   71CHL1   H25 7726   1.475   3.392   8.104  0.0416  1.0578  1.0922
   71CHL1   C26 7727   1.300   3.327   8.200  0.8085  0.1016  0.3728
   71CHL1  H26A 7728   1.261   3.232   8.242  0.8806 -1.6073 -3.2296
   71CHL1  H26B 7729   1.296   3.411   8.272  0.3740  1.1518 -0.8502
   71CHL1  H26C 7730   1.235   3.366   8.119  3.1157 -0.1007 -1.6128
   71CHL1   C27 7731   1.546   3.281   8.272 -0.0784 -0.0265 -0.2833
   71CHL1  H27A 7732   1.646   3.317   8.241  0.3013 -1.9023 -1.3135
   71CHL1  H27B 7733   1.525   3.345   8.360  3.3264  0.4977  0.2138
   71CHL1  H27C 7734   1.551   3.172   8.294  2.9939  0.1912  0.2081
   72CHL1    C3 7735   2.256   2.045   7.122  0.2176 -0.1484  0.1600
   72CHL1    H3 7736   2.331   1.967   7.146  0.5044 -0.4277 -1.5732
   72CHL1    O3 7737   2.280   2.102   6.994 -0.0828 -0.0089 -0.8619
   72CHL1   H3' 7738   2.346   2.170   7.001 -0.0719 -0.0479 -0.5667
   72CHL1    C4 7739   2.119   1.981   7.117 -0.4693  0.0053  0.2211
   72CHL1   H4A 7740   2.038   2.051   7.086 -1.6200 -1.0916  0.7146
   72CHL1   H4B 7741   2.126   1.903   7.038 -1.2572  0.2153 -0.0612
   72CHL1    C5 7742   2.081   1.929   7.251  0.6915 -0.5074 -0.3383
   72CHL1    C6 7743   2.041   1.799   7.268  0.1746  0.1746  1.2533
   72CHL1    H6 7744   2.028   1.740   7.176 -1.6288  0.5575  1.2576
   72CHL1    C7 7745   1.983   1.739   7.393  0.0614  0.3381  0.3085
   72CHL1   H7A 7746   1.891   1.681   7.369 -0.0655  0.8276 -0.3978
   72CHL1   H7B 7747   2.050   1.661   7.435  1.3073  0.6993 -0.9580
   72CHL1    C8 7748   1.946   1.852   7.491 -0.2664 -0.0072 -0.3507
   72CHL1    H8 7749   1.846   1.891   7.463  1.7437  3.1210 -3.6171
   72CHL1   C14 7750   1.935   1.789   7.627  0.6069 -0.3576  0.3297
   72CHL1   H14 7751   2.039   1.756   7.652  0.8619  0.6246  0.5615
   72CHL1   C15 7752   1.857   1.657   7.633  0.3135 -0.3311 -0.1180
   72CHL1  H15A 7753   1.768   1.671   7.569  0.7095  0.4199 -0.5081
   72CHL1  H15B 7754   1.912   1.572   7.588 -1.3805 -1.2663 -0.4607
   72CHL1   C16 7755   1.827   1.641   7.784  0.4841 -0.1078  0.3740
   72CHL1  H16A 7756   1.720   1.612   7.791  0.0121  0.3640 -3.5711
   72CHL1  H16B 7757   1.881   1.558   7.833  1.5320 -0.2154 -0.9216
   72CHL1   C17 7758   1.852   1.781   7.859  0.1142  0.1669  0.3743
   72CHL1   H17 7759   1.956   1.773   7.895  0.0427 -0.7533  0.3857
   72CHL1   C13 7760   1.869   1.880   7.737  0.4095  0.0223  0.3366
   72CHL1   C18 7761   1.727   1.930   7.693  0.1702 -0.0499 -0.3700
   72CHL1  H18A 7762   1.674   1.839   7.660  1.0179 -0.2731 -1.1304
   72CHL1  H18B 7763   1.666   1.974   7.776  0.0821 -0.5784 -0.1534
   72CHL1  H18C 7764   1.728   1.998   7.605 -1.6176 -1.4735 -1.5251
   72CHL1   C12 7765   1.969   1.993   7.755 -0.0289  0.3489 -0.4221
   72CHL1  H12A 7766   1.921   2.071   7.818 -1.7791 -0.2271 -1.0355
   72CHL1  H12B 7767   2.058   1.958   7.812 -0.6749  2.3264  1.8725
   72CHL1   C11 7768   2.026   2.054   7.620  0.4809 -0.9162 -0.6796
   72CHL1  H11A 7769   1.938   2.120   7.602  2.1824  1.3759 -0.7850
   72CHL1  H11B 7770   2.112   2.118   7.648 -1.9195  1.6295  1.1721
   72CHL1    C9 7771   2.058   1.960   7.499  0.4873 -0.5385 -0.6011
   72CHL1    H9 7772   2.153   1.909   7.525  1.1914  1.7101  1.4668
   72CHL1   C10 7773   2.087   2.032   7.367 -0.1017 -0.5372 -0.4539
   72CHL1   C19 7774   1.973   2.141   7.351 -0.0753 -0.7635  0.3159
   72CHL1  H19A 7775   1.999   2.237   7.401  1.6508 -1.4773  0.8217
   72CHL1  H19B 7776   1.948   2.155   7.243 -0.3369 -2.1799  0.1839
   72CHL1  H19C 7777   1.879   2.101   7.394  0.0274  0.5841  1.8518
   72CHL1    C1 7778   2.228   2.103   7.363 -0.4840 -0.3031 -0.0156
   72CHL1   H1A 7779   2.217   2.185   7.437  2.0678 -0.6593  0.8319
   72CHL1   H1B 7780   2.314   2.036   7.385  0.2847 -0.3001 -2.7505
   72CHL1    C2 7781   2.274   2.158   7.229  0.1553 -0.4713 -0.1886
   72CHL1   H2A 7782   2.381   2.188   7.230 -0.2741  1.2297 -2.1871
   72CHL1   H2B 7783   2.212   2.247   7.206  2.2169  1.2611  0.8377
   72CHL1   C20 7784   1.763   1.811   7.988  0.7268  0.2872  0.7020
   72CHL1   H20 7785   1.666   1.851   7.951  0.5726 -3.1937 -3.0607
   72CHL1   C21 7786   1.838   1.909   8.073 -0.9084 -0.2131 -0.3316
   72CHL1  H21A 7787   1.871   2.001   8.020  1.3166 -2.0174 -2.1591
   72CHL1  H21B 7788   1.922   1.857   8.125 -0.1488  0.6062 -0.7254
   72CHL1  H21C 7789   1.781   1.942   8.163  0.1405 -1.2042  0.7202
   72CHL1   C22 7790   1.729   1.670   8.060 -0.2023  0.0681  0.4949
   72CHL1  H22A 7791   1.672   1.609   7.987 -0.6745  0.2707  0.6902
   72CHL1  H22B 7792   1.830   1.632   8.085  0.3129  1.6201  0.8370
   72CHL1   C23 7793   1.638   1.660   8.186 -0.0758  0.3347  0.2829
   72CHL1  H23A 7794   1.675   1.729   8.264 -1.5031 -1.6228  2.7482
   72CHL1  H23B 7795   1.539   1.698   8.154  0.2288 -0.0909 -1.2233
   72CHL1   C24 7796   1.631   1.518   8.238 -0.1126  0.3016  0.2868
   72CHL1  H24A 7797   1.596   1.442   8.165  0.6127 -0.0750  0.3313
   72CHL1  H24B 7798   1.733   1.493   8.274 -0.4326 -2.3898 -0.5974
   72CHL1   C25 7799   1.527   1.514   8.351 -0.5043 -0.3141 -0.3733
   72CHL1   H25 7800   1.542   1.595   8.426 -1.8955 -1.1191  0.8010
   72CHL1   C26 7801   1.382   1.523   8.310  0.6186 -0.2329  0.7728
   72CHL1  H26A 7802   1.309   1.521   8.393 -0.2542 -2.3329 -0.0062
   72CHL1  H26B 7803   1.364   1.616   8.251  0.8056 -0.5342  0.2368
   72CHL1  H26C 7804   1.355   1.431   8.254 -1.3396 -0.3110  1.7902
   72CHL1   C27 7805   1.546   1.376   8.432 -0.3356 -0.2969  1.0716
   72CHL1  H27A 7806   1.537   1.290   8.362  0.2296  0.7150 -0.2763
   72CHL1  H27B 7807   1.645   1.362   8.480  0.4085 -1.9915 -0.8960
   72CHL1  H27C 7808   1.470   1.370   8.513  0.9804  1.7385  2.5240
   73CHL1    C3 7809   1.510   4.920   6.847  0.3374 -0.2364  0.2359
   73CHL1    H3 7810   1.618   4.934   6.865  0.2602  0.3049  0.2945
   73CHL1    O3 7811   1.485   4.936   6.710  1.2424 -0.2555  0.2029
   73CHL1   H3' 7812   1.401   4.890   6.711  1.3703 -0.5011 -0.6418
   73CHL1    C4 7813   1.463   4.785   6.897  0.1133 -0.3730 -0.2094
   73CHL1   H4A 7814   1.357   4.776   6.863  0.0274 -1.0776  0.2436
   73CHL1   H4B 7815   1.516   4.706   6.840 -0.4086 -1.8899  1.3781
   73CHL1    C5 7816   1.473   4.758   7.042 -0.0611 -0.0724 -0.0348
   73CHL1    C6 7817   1.545   4.659   7.089  0.7347 -0.4190  0.0972
   73CHL1    H6 7818   1.595   4.594   7.016  1.3278 -1.5285  1.4680
   73CHL1    C7 7819   1.551   4.624   7.235 -0.3384  0.6675 -0.3155
   73CHL1   H7A 7820   1.527   4.519   7.263  0.3836  0.8638  1.0607
   73CHL1   H7B 7821   1.657   4.646   7.258  0.0563  0.6335 -1.9999
   73CHL1    C8 7822   1.469   4.715   7.329 -0.0152 -0.9014  0.3110
   73CHL1    H8 7823   1.367   4.673   7.343 -0.7439  0.3793 -1.0229
   73CHL1   C14 7824   1.532   4.717   7.470  0.1421 -0.0140  0.2483
   73CHL1   H14 7825   1.624   4.779   7.461 -0.2746  0.4109 -1.1590
   73CHL1   C15 7826   1.558   4.576   7.531  0.3848  0.4843 -0.0025
   73CHL1  H15A 7827   1.471   4.512   7.508  0.1034  0.3856  1.3167
   73CHL1  H15B 7828   1.644   4.524   7.485  0.4482 -0.1078  0.7722
   73CHL1   C16 7829   1.579   4.610   7.675 -0.2050 -0.4217 -0.0426
   73CHL1  H16A 7830   1.530   4.530   7.734 -0.5376 -1.5330 -1.7933
   73CHL1  H16B 7831   1.688   4.614   7.698 -0.0524  0.9033 -0.9199
   73CHL1   C17 7832   1.533   4.750   7.703 -0.8682 -0.2502 -0.4599
   73CHL1   H17 7833   1.629   4.806   7.696 -0.7504 -0.4023 -0.0869
   73CHL1   C13 7834   1.449   4.779   7.581  0.4436  0.6562  0.7635
   73CHL1   C18 7835   1.314   4.716   7.608 -0.1429  0.3534 -0.2523
   73CHL1  H18A 7836   1.256   4.760   7.692  1.5745  0.9431  0.6375
   73CHL1  H18B 7837   1.251   4.722   7.517 -1.4858  0.7704  0.6747
   73CHL1  H18C 7838   1.308   4.609   7.639  0.3812 -0.0246 -1.4208
   73CHL1   C12 7839   1.423   4.924   7.525 -0.8974 -0.5434  0.2130
   73CHL1  H12A 7840   1.370   4.987   7.599 -1.1181  0.1333 -0.5038
   73CHL1  H12B 7841   1.527   4.965   7.521 -1.4599  1.0501  1.4630
   73CHL1   C11 7842   1.370   4.934   7.387 -0.2506  0.0942 -0.1888
   73CHL1  H11A 7843   1.262   4.906   7.386  0.2329 -1.8842 -1.7649
   73CHL1  H11B 7844   1.379   5.039   7.352  1.7259 -0.5258 -1.6725
   73CHL1    C9 7845   1.448   4.853   7.281  0.0603  0.3811  0.1621
   73CHL1    H9 7846   1.545   4.906   7.277  0.8019 -0.9818 -0.0973
   73CHL1   C10 7847   1.403   4.866   7.133 -0.1431  0.2072  0.6217
   73CHL1   C19 7848   1.253   4.828   7.121  0.5768  0.1962  0.6887
   73CHL1  H19A 7849   1.187   4.905   7.165  3.4336  1.8994  2.1412
   73CHL1  H19B 7850   1.218   4.847   7.017  4.5708 -1.3501 -1.0277
   73CHL1  H19C 7851   1.219   4.725   7.145 -0.2739 -0.2673 -2.2363
   73CHL1    C1 7852   1.438   5.010   7.077  1.2489  0.9582 -0.3945
   73CHL1   H1A 7853   1.365   5.082   7.119 -0.3711 -0.0729 -1.3983
   73CHL1   H1B 7854   1.532   5.038   7.129  1.4589 -1.7288  0.7695
   73CHL1    C2 7855   1.431   5.026   6.925  0.7851  0.7144  0.1960
   73CHL1   H2A 7856   1.464   5.128   6.894  1.9758  1.4033  3.5799
   73CHL1   H2B 7857   1.324   5.020   6.894  0.4088  1.3854  1.3084
   73CHL1   C20 7858   1.480   4.783   7.841 -0.4409 -0.0578 -1.5824
   73CHL1   H20 7859   1.373   4.758   7.857 -0.5366  1.9910  1.2500
   73CHL1   C21 7860   1.504   4.936   7.858  0.4649  0.4802 -0.4226
   73CHL1  H21A 7861   1.613   4.956   7.858  0.4804  0.4889 -2.2356
   73CHL1  H21B 7862   1.459   4.966   7.955  0.7768  1.4778 -0.5801
   73CHL1  H21C 7863   1.449   4.995   7.783  2.7774  2.9637 -0.2338
   73CHL1   C22 7864   1.547   4.693   7.946  0.1383  0.1034  0.5331
   73CHL1  H22A 7865   1.520   4.588   7.922  1.1848  0.0771 -0.5427
   73CHL1  H22B 7866   1.656   4.703   7.929 -0.0487 -0.4436 -1.0582
   73CHL1   C23 7867   1.525   4.723   8.092 -0.5596 -0.2065 -0.6128
   73CHL1  H23A 7868   1.568   4.823   8.114 -1.2312 -0.1777  0.5811
   73CHL1  H23B 7869   1.416   4.737   8.108 -0.3976 -0.1346  0.4094
   73CHL1   C24 7870   1.590   4.614   8.178  0.1440 -0.0924  0.2295
   73CHL1  H24A 7871   1.542   4.517   8.152  0.4838 -0.6082  1.4985
   73CHL1  H24B 7872   1.694   4.609   8.139 -0.6678  3.0647 -2.5244
   73CHL1   C25 7873   1.591   4.646   8.325 -0.0742  0.1643 -1.2030
   73CHL1   H25 7874   1.564   4.753   8.338 -0.2767  0.0863 -0.9933
   73CHL1   C26 7875   1.482   4.563   8.398  0.4238 -0.4219  0.4947
   73CHL1  H26A 7876   1.382   4.594   8.360  1.5029  1.7163 -0.6661
   73CHL1  H26B 7877   1.495   4.456   8.369 -0.7118 -0.0782 -1.4125
   73CHL1  H26C 7878   1.488   4.582   8.507  1.8676  0.7312  0.2207
   73CHL1   C27 7879   1.736   4.628   8.379 -0.9947  0.7457 -1.2269
   73CHL1  H27A 7880   1.741   4.642   8.490  2.3412  0.5938 -1.2967
   73CHL1  H27B 7881   1.782   4.536   8.338  0.4918  1.5779 -1.4526
   73CHL1  H27C 7882   1.803   4.708   8.342  0.2834  2.0857  3.5561
   74CHL1    C3 7883   1.230   2.958   6.731 -0.5892 -0.3298 -0.1753
   74CHL1    H3 7884   1.328   3.009   6.730  1.7166 -4.4780  1.2285
   74CHL1    O3 7885   1.186   2.955   6.596  0.2720 -0.3713 -0.5718
   74CHL1   H3' 7886   1.097   2.918   6.596 -0.3971  1.1953 -2.5590
   74CHL1    C4 7887   1.254   2.806   6.772  0.4886 -0.0060 -0.2883
   74CHL1   H4A 7888   1.170   2.743   6.734  1.9511 -1.4439 -1.1825
   74CHL1   H4B 7889   1.347   2.774   6.722  0.5334 -0.0012 -0.2078
   74CHL1    C5 7890   1.266   2.788   6.925  0.6268  0.0261  0.4406
   74CHL1    C6 7891   1.368   2.709   6.971 -0.1121 -0.7193 -0.8005
   74CHL1    H6 7892   1.436   2.655   6.905  2.2593 -1.1908  1.9457
   74CHL1    C7 7893   1.383   2.677   7.123  0.0664 -0.3596 -0.0737
   74CHL1   H7A 7894   1.408   2.571   7.147 -3.2477 -1.0235  0.6873
   74CHL1   H7B 7895   1.464   2.743   7.161  0.4211 -0.6352 -0.3417
   74CHL1    C8 7896   1.255   2.720   7.200  0.0552  0.5802 -0.4106
   74CHL1    H8 7897   1.188   2.633   7.183  2.4840 -1.1362 -1.5228
   74CHL1   C14 7898   1.283   2.721   7.347 -0.0389  0.0519 -0.1691
   74CHL1   H14 7899   1.358   2.801   7.364 -0.4549  0.5213 -0.5588
   74CHL1   C15 7900   1.343   2.591   7.417  0.5836 -0.3924  0.8371
   74CHL1  H15A 7901   1.281   2.499   7.414 -1.0568  0.6527  1.7687
   74CHL1  H15B 7902   1.446   2.576   7.379  1.1614 -0.0856  2.2653
   74CHL1   C16 7903   1.347   2.627   7.569 -0.3299  0.3037  0.0485
   74CHL1  H16A 7904   1.325   2.534   7.626  0.0534 -0.1151 -0.4748
   74CHL1  H16B 7905   1.448   2.656   7.605  0.0802 -1.7488  0.6339
   74CHL1   C17 7906   1.249   2.743   7.581  0.7580 -0.5666 -0.6883
   74CHL1   H17 7907   1.307   2.838   7.578  0.7624 -0.4861  1.2888
   74CHL1   C13 7908   1.172   2.755   7.445 -0.2873 -0.5988  0.0381
   74CHL1   C18 7909   1.060   2.643   7.443 -0.4819  0.3188 -0.3359
   74CHL1  H18A 7910   1.101   2.542   7.466  0.7301  1.0404  0.7459
   74CHL1  H18B 7911   0.985   2.677   7.518  0.9427  1.1273  0.7433
   74CHL1  H18C 7912   1.025   2.640   7.338 -0.4900  1.5088 -0.3813
   74CHL1   C12 7913   1.130   2.902   7.412 -0.2616  0.4003 -0.0831
   74CHL1  H12A 7914   1.035   2.924   7.465 -0.6004 -1.1379 -0.0184
   74CHL1  H12B 7915   1.209   2.978   7.429 -0.3006  0.3688  0.2459
   74CHL1   C11 7916   1.084   2.898   7.257  0.3572 -0.2736  0.0461
   74CHL1  H11A 7917   0.993   2.834   7.255  1.2061 -1.4463 -1.1056
   74CHL1  H11B 7918   1.049   2.997   7.219  2.1901  0.6323  0.6782
   74CHL1    C9 7919   1.196   2.852   7.160 -0.2441 -0.2521 -0.1321
   74CHL1    H9 7920   1.267   2.936   7.177 -3.3803  2.8226 -1.5768
   74CHL1   C10 7921   1.157   2.852   7.012 -0.0886  0.4196  0.0865
   74CHL1   C19 7922   1.021   2.775   6.987 -0.0254  0.3814 -0.0867
   74CHL1  H19A 7923   0.999   2.733   6.886 -1.4956 -2.8249  1.4763
   74CHL1  H19B 7924   1.007   2.695   7.063 -1.2519  0.9073  0.2576
   74CHL1  H19C 7925   0.942   2.850   7.008 -0.2155 -0.1282  1.0361
   74CHL1    C1 7926   1.148   2.995   6.964  0.0820  0.0153  0.1681
   74CHL1   H1A 7927   1.063   3.041   7.018 -1.2137 -0.2607 -1.5987
   74CHL1   H1B 7928   1.245   3.042   6.994 -0.4853  0.5409  1.2232
   74CHL1    C2 7929   1.116   3.015   6.814  0.1253 -0.2601 -0.1535
   74CHL1   H2A 7930   1.121   3.123   6.787 -2.5902 -0.2938 -0.9864
   74CHL1   H2B 7931   1.013   2.984   6.788 -0.3714  1.3075 -0.0792
   74CHL1   C20 7932   1.174   2.742   7.717 -0.2512  0.1772 -0.1276
   74CHL1   H20 7933   1.110   2.652   7.721  2.7547 -2.0085  1.0994
   74CHL1   C21 7934   1.085   2.864   7.722 -0.5689  0.0276 -0.1514
   74CHL1  H21A 7935   1.132   2.963   7.705  1.2355 -0.6196  0.9571
   74CHL1  H21B 7936   1.021   2.861   7.813 -0.7824 -3.1997 -0.3469
   74CHL1  H21C 7937   1.007   2.852   7.643 -2.1100  3.9597  0.6458
   74CHL1   C22 7938   1.268   2.736   7.842 -0.3587  0.5228 -0.5225
   74CHL1  H22A 7939   1.335   2.649   7.825 -1.8815 -0.3380 -2.3633
   74CHL1  H22B 7940   1.331   2.828   7.845 -2.4768  2.0514 -1.3079
   74CHL1   C23 7941   1.186   2.699   7.967 -0.4843  0.0352  0.8598
   74CHL1  H23A 7942   1.133   2.792   7.994 -0.9119  0.2864 -0.7714
   74CHL1  H23B 7943   1.119   2.616   7.933  0.3032 -0.9969  1.7783
   74CHL1   C24 7944   1.260   2.645   8.093  0.1251  0.3634  0.5038
   74CHL1  H24A 7945   1.333   2.566   8.066 -0.0392  0.3657  0.0454
   74CHL1  H24B 7946   1.331   2.728   8.116  0.9027  0.1762 -1.1197
   74CHL1   C25 7947   1.172   2.579   8.213 -0.1095 -0.0672  0.2964
   74CHL1   H25 7948   1.241   2.538   8.290 -0.5304  1.5797  1.5760
   74CHL1   C26 7949   1.078   2.678   8.281  0.1783 -0.1592  0.0667
   74CHL1  H26A 7950   1.048   2.752   8.203 -0.0871  0.4989  0.7891
   74CHL1  H26B 7951   1.001   2.621   8.337  0.2520  0.2272  0.5663
   74CHL1  H26C 7952   1.133   2.734   8.360 -0.3512 -0.7382  0.8498
   74CHL1   C27 7953   1.087   2.461   8.153 -0.3103 -0.6547 -0.2417
   74CHL1  H27A 7954   1.167   2.391   8.119 -1.6303 -2.1353 -0.3844
   74CHL1  H27B 7955   1.034   2.419   8.241  2.4641 -1.4236  1.1222
   74CHL1  H27C 7956   1.008   2.495   8.083  2.3985  1.4426 -2.4087
   75CHL1    C3 7957   4.374   4.890   6.787  0.1265  0.1434 -0.6814
   75CHL1    H3 7958   4.427   4.986   6.770 -0.5534  1.2095  2.7968
   75CHL1    O3 7959   4.310   4.847   6.661 -0.3506 -0.3027  0.0684
   75CHL1   H3' 7960   4.310   4.752   6.675  1.7856 -0.0097  2.4955
   75CHL1    C4 7961   4.473   4.787   6.837 -0.7777 -0.1054 -0.0685
   75CHL1   H4A 7962   4.426   4.687   6.839  1.8120 -1.3453  2.7730
   75CHL1   H4B 7963   4.555   4.794   6.762 -0.2752  1.5803  0.5941
   75CHL1    C5 7964   4.527   4.812   6.976 -0.2356 -0.4207  0.6844
   75CHL1    C6 7965   4.653   4.833   7.005 -0.1623 -0.3933 -0.3017
   75CHL1    H6 7966   4.728   4.827   6.926 -0.8430  1.1596 -1.0771
   75CHL1    C7 7967   4.699   4.853   7.154  0.1830 -0.2975 -0.4332
   75CHL1   H7A 7968   4.795   4.798   7.170  0.5503  0.1181 -1.1646
   75CHL1   H7B 7969   4.734   4.958   7.152  2.9441 -1.1276 -5.2876
   75CHL1    C8 7970   4.596   4.804   7.259 -0.6272 -0.5871 -0.1064
   75CHL1    H8 7971   4.585   4.694   7.247 -0.6102 -0.5216 -0.7472
   75CHL1   C14 7972   4.641   4.849   7.396 -0.9449 -0.1196  0.5332
   75CHL1   H14 7973   4.644   4.959   7.388 -0.6699 -0.1938 -0.4260
   75CHL1   C15 7974   4.784   4.800   7.443  0.3047  0.3225 -0.6428
   75CHL1  H15A 7975   4.785   4.689   7.428 -2.0399  0.2910 -0.8168
   75CHL1  H15B 7976   4.871   4.846   7.392 -0.2868 -0.3910 -2.3219
   75CHL1   C16 7977   4.773   4.821   7.595  0.4155 -0.2776  1.1056
   75CHL1  H16A 7978   4.811   4.733   7.652  0.6162 -1.2237 -0.4804
   75CHL1  H16B 7979   4.834   4.912   7.610 -0.5965  0.4855  0.6136
   75CHL1   C17 7980   4.622   4.864   7.635 -0.3453 -0.0943 -0.0190
   75CHL1   H17 7981   4.626   4.974   7.620  2.0024 -0.2948 -0.9804
   75CHL1   C13 7982   4.545   4.806   7.510  0.6534 -0.7992  0.2269
   75CHL1   C18 7983   4.524   4.653   7.535  0.7631 -0.3550  0.8045
   75CHL1  H18A 7984   4.429   4.633   7.590  1.3789  1.5415  2.6074
   75CHL1  H18B 7985   4.514   4.596   7.440  1.5841 -0.3546  0.7202
   75CHL1  H18C 7986   4.610   4.612   7.591  1.4687  1.3829  1.0085
   75CHL1   C12 7987   4.412   4.874   7.473  0.2173  0.0942 -0.6206
   75CHL1  H12A 7988   4.337   4.856   7.553  0.9290 -2.9802 -0.5663
   75CHL1  H12B 7989   4.429   4.984   7.470 -3.1506  0.6600 -0.5646
   75CHL1   C11 7990   4.354   4.830   7.339  0.0474 -0.0406  0.4811
   75CHL1  H11A 7991   4.338   4.721   7.348 -2.2189  0.2375  0.0996
   75CHL1  H11B 7992   4.256   4.881   7.336  0.0811  0.1772  2.2139
   75CHL1    C9 7993   4.460   4.865   7.224 -0.2286 -0.3990  0.1012
   75CHL1    H9 7994   4.480   4.975   7.228  1.9366 -0.7113 -1.3718
   75CHL1   C10 7995   4.411   4.824   7.082  0.3030  0.4836 -0.3920
   75CHL1   C19 7996   4.331   4.690   7.092  0.1097  1.1099 -0.0428
   75CHL1  H19A 7997   4.243   4.697   7.160 -1.1811  0.6548 -1.6465
   75CHL1  H19B 7998   4.287   4.656   6.996 -3.8863  0.3362  1.9854
   75CHL1  H19C 7999   4.396   4.607   7.128 -3.1178 -1.4194  0.1287
   75CHL1    C1 8000   4.314   4.935   7.031  0.3474  0.6210 -0.0166
   75CHL1   H1A 8001   4.237   4.956   7.108 -0.2123  0.6418 -0.5814
   75CHL1   H1B 8002   4.372   5.031   7.031 -0.8844  1.3729 -0.2552
   75CHL1    C2 8003   4.266   4.921   6.889 -0.0559 -0.3898  0.5498
   75CHL1   H2A 8004   4.225   5.014   6.843  0.7397 -0.0051  0.6176
   75CHL1   H2B 8005   4.176   4.856   6.881 -0.6892  0.4069  1.1414
   75CHL1   C20 8006   4.571   4.825   7.777 -0.6959 -0.1501 -0.1876
   75CHL1   H20 8007   4.541   4.718   7.783  0.3647 -0.4433 -0.0417
   75CHL1   C21 8008   4.440   4.898   7.806 -0.5792 -0.1362 -0.2385
   75CHL1  H21A 8009   4.477   5.002   7.795  2.9215 -1.0877  1.5887
   75CHL1  H21B 8010   4.404   4.885   7.910  2.4597  1.4408  1.0958
   75CHL1  H21C 8011   4.350   4.880   7.743 -0.7417  0.5969 -0.2245
   75CHL1   C22 8012   4.676   4.861   7.879 -0.4738  0.1547  0.1966
   75CHL1  H22A 8013   4.771   4.805   7.863 -0.2554  1.0018 -1.6541
   75CHL1  H22B 8014   4.703   4.968   7.866 -2.4944  0.8603  1.5976
   75CHL1   C23 8015   4.635   4.845   8.020 -0.2437  1.0125 -0.4203
   75CHL1  H23A 8016   4.551   4.915   8.039 -2.1518 -1.2925 -0.1442
   75CHL1  H23B 8017   4.596   4.742   8.033  1.9572  0.0289 -1.2574
   75CHL1   C24 8018   4.734   4.875   8.127 -0.3155 -0.0712 -0.2326
   75CHL1  H24A 8019   4.817   4.804   8.107  0.9286  1.2483  0.1607
   75CHL1  H24B 8020   4.768   4.981   8.118 -0.3539 -0.0350  0.0410
   75CHL1   C25 8021   4.681   4.861   8.273 -0.2219 -0.2238  0.2754
   75CHL1   H25 8022   4.608   4.946   8.275  0.5117  0.4692 -1.5930
   75CHL1   C26 8023   4.617   4.722   8.293  0.1729 -0.3753  0.1945
   75CHL1  H26A 8024   4.529   4.707   8.227  0.4136  1.3691 -0.5278
   75CHL1  H26B 8025   4.690   4.645   8.259  0.1127 -0.0516 -0.6683
   75CHL1  H26C 8026   4.585   4.703   8.398 -1.0476  0.7287  0.0264
   75CHL1   C27 8027   4.790   4.881   8.378 -0.2866 -0.4430 -0.3453
   75CHL1  H27A 8028   4.879   4.819   8.351  0.9215  1.7636 -1.5300
   75CHL1  H27B 8029   4.825   4.986   8.388  2.8946 -1.7550  3.6931
   75CHL1  H27C 8030   4.757   4.846   8.478 -2.4407 -0.2908 -0.9803
   76CHL1    C3 8031   1.143   6.560   7.192  0.0441  0.4985 -0.5237
   76CHL1    H3 8032   1.036   6.534   7.197 -0.0252  1.1375  2.4714
   76CHL1    O3 8033   1.198   6.558   7.057 -0.6558 -0.3096 -0.1884
   76CHL1   H3' 8034   1.253   6.479   7.051 -1.2402 -0.7534  0.2881
   76CHL1    C4 8035   1.151   6.710   7.245 -0.1881  0.4450 -0.2026
   76CHL1   H4A 8036   1.256   6.743   7.230 -0.3863  2.8376  3.1557
   76CHL1   H4B 8037   1.097   6.784   7.182  0.9408  0.6104 -1.0030
   76CHL1    C5 8038   1.110   6.720   7.387 -0.8466  0.2917  0.4154
   76CHL1    C6 8039   1.011   6.813   7.428  0.4347 -0.3531 -0.1088
   76CHL1    H6 8040   0.965   6.883   7.357  2.1272 -1.2662 -2.1858
   76CHL1    C7 8041   0.977   6.830   7.575 -0.6715  0.1074 -0.3671
   76CHL1   H7A 8042   0.978   6.939   7.597 -3.0326 -0.4225  2.7165
   76CHL1   H7B 8043   0.875   6.792   7.595 -0.5038  0.0926  0.4629
   76CHL1    C8 8044   1.071   6.761   7.672  0.5937 -0.1377 -0.7300
   76CHL1    H8 8045   1.162   6.825   7.673 -0.0645  0.8040 -1.0820
   76CHL1   C14 8046   1.011   6.752   7.812 -0.0189  0.5746 -0.1132
   76CHL1   H14 8047   0.923   6.687   7.792  1.7844 -2.4865  1.6035
   76CHL1   C15 8048   0.950   6.882   7.873 -0.4377  0.9060  0.1206
   76CHL1  H15A 8049   1.020   6.965   7.848  1.6756 -0.6468  0.7329
   76CHL1  H15B 8050   0.854   6.898   7.819 -0.3981  3.0329  0.6392
   76CHL1   C16 8051   0.947   6.851   8.027  0.9887 -0.4146 -0.5822
   76CHL1  H16A 8052   1.014   6.929   8.070  0.1434  0.5357 -0.9744
   76CHL1  H16B 8053   0.843   6.865   8.065  0.0166 -0.3044 -3.2275
   76CHL1   C17 8054   1.014   6.711   8.049 -1.0498 -0.1644 -0.1009
   76CHL1   H17 8055   0.934   6.635   8.038 -0.8276 -0.1351 -2.1066
   76CHL1   C13 8056   1.091   6.685   7.921 -0.2639 -0.5360  0.2220
   76CHL1   C18 8057   1.225   6.760   7.929  0.2283 -0.2674 -0.0002
   76CHL1  H18A 8058   1.298   6.711   7.996  0.8704 -0.0433 -0.5290
   76CHL1  H18B 8059   1.271   6.760   7.828  3.3979 -1.5613  1.3845
   76CHL1  H18C 8060   1.206   6.866   7.957  2.0944 -0.4280  1.9926
   76CHL1   C12 8061   1.121   6.538   7.868 -0.0822 -0.0744 -0.3984
   76CHL1  H12A 8062   1.179   6.482   7.945 -0.2701 -0.4434 -0.5229
   76CHL1  H12B 8063   1.025   6.482   7.865  0.5903 -1.3629  0.9818
   76CHL1   C11 8064   1.182   6.532   7.722  0.1460  0.8955 -0.0550
   76CHL1  H11A 8065   1.283   6.578   7.725  1.7623 -2.5982  0.5012
   76CHL1  H11B 8066   1.203   6.426   7.695 -0.4983  1.0627 -1.2768
   76CHL1    C9 8067   1.109   6.622   7.618  0.2191 -0.7279 -0.7116
   76CHL1    H9 8068   1.010   6.574   7.601 -0.7957  1.6511 -1.8487
   76CHL1   C10 8069   1.179   6.622   7.481  0.0837  0.6197  0.1634
   76CHL1   C19 8070   1.330   6.671   7.495 -0.2851 -0.2195  0.6625
   76CHL1  H19A 8071   1.333   6.763   7.556 -0.8956 -0.6279  1.3106
   76CHL1  H19B 8072   1.378   6.587   7.550 -0.2716 -0.5950  0.0809
   76CHL1  H19C 8073   1.385   6.685   7.399  0.1226 -1.5101  0.6938
   76CHL1    C1 8074   1.164   6.480   7.414  0.4748  0.3824 -0.0675
   76CHL1   H1A 8075   1.213   6.403   7.477 -1.1415  0.5417  1.4449
   76CHL1   H1B 8076   1.055   6.461   7.405  0.4085  0.5204  0.4018
   76CHL1    C2 8077   1.225   6.465   7.273 -0.0321 -0.4829  0.4575
   76CHL1   H2A 8078   1.201   6.363   7.237  2.0644 -0.6900 -0.4345
   76CHL1   H2B 8079   1.335   6.480   7.274  0.4555 -3.6758  1.8476
   76CHL1   C20 8080   1.074   6.689   8.183  0.0207 -1.0007  0.3573
   76CHL1   H20 8081   1.143   6.603   8.181  0.9718 -0.2485  0.1976
   76CHL1   C21 8082   0.954   6.660   8.284  0.2634 -0.0447  0.6538
   76CHL1  H21A 8083   0.990   6.624   8.382 -3.6145 -2.4019  1.3311
   76CHL1  H21B 8084   0.887   6.587   8.233 -0.0714  1.9538 -1.9475
   76CHL1  H21C 8085   0.894   6.752   8.304 -0.7549 -0.2812 -1.1995
   76CHL1   C22 8086   1.157   6.814   8.234  0.2753 -0.0135  0.4798
   76CHL1  H22A 8087   1.229   6.848   8.156  1.3173 -0.4267  1.2455
   76CHL1  H22B 8088   1.091   6.901   8.255 -0.9096 -1.0311  1.0800
   76CHL1   C23 8089   1.233   6.792   8.367 -0.0219 -0.0546 -0.3831
   76CHL1  H23A 8090   1.157   6.766   8.444  0.7425 -0.3150  0.3001
   76CHL1  H23B 8091   1.309   6.712   8.352 -0.2513 -0.0622 -1.5137
   76CHL1   C24 8092   1.300   6.923   8.415 -0.1164  0.0671  0.3321
   76CHL1  H24A 8093   1.373   6.959   8.339  0.7117 -0.4442  0.8804
   76CHL1  H24B 8094   1.228   7.005   8.437  1.0097  0.9900  0.6834
   76CHL1   C25 8095   1.375   6.888   8.541  0.6969  0.0200 -0.1945
   76CHL1   H25 8096   1.297   6.855   8.612  0.7761  2.6521  1.1797
   76CHL1   C26 8097   1.477   6.771   8.533 -0.5944 -0.4299 -0.0686
   76CHL1  H26A 8098   1.426   6.674   8.516 -1.8151  0.1811  0.0611
   76CHL1  H26B 8099   1.553   6.796   8.457 -0.2598 -1.5996 -0.1250
   76CHL1  H26C 8100   1.532   6.766   8.629  0.4864  1.0992 -0.6088
   76CHL1   C27 8101   1.439   7.016   8.599 -0.0010 -0.9598 -0.8529
   76CHL1  H27A 8102   1.480   6.993   8.700 -0.8822 -1.9654 -0.7138
   76CHL1  H27B 8103   1.518   7.052   8.529 -0.8732  1.9472 -0.3942
   76CHL1  H27C 8104   1.361   7.094   8.610  0.4118 -0.6695  0.1178
   77CHL1    C3 8105   1.661   5.685   6.868 -0.4833 -0.6818  0.2161
   77CHL1    H3 8106   1.767   5.650   6.866 -0.7180 -1.5084  1.6223
   77CHL1    O3 8107   1.611   5.733   6.746 -0.0174  0.0003 -0.3305
   77CHL1   H3' 8108   1.529   5.771   6.777  0.3720  1.7241 -1.3222
   77CHL1    C4 8109   1.566   5.569   6.918 -0.0744 -0.0325 -0.2374
   77CHL1   H4A 8110   1.457   5.593   6.923  0.2680  1.8441 -1.2018
   77CHL1   H4B 8111   1.587   5.486   6.847  1.6314 -0.0624  0.2958
   77CHL1    C5 8112   1.589   5.510   7.059  0.0849  0.1498  0.5849
   77CHL1    C6 8113   1.623   5.383   7.083 -0.2997  0.0399  0.8392
   77CHL1    H6 8114   1.634   5.311   7.001  1.4984 -0.0952  1.1939
   77CHL1    C7 8115   1.664   5.325   7.220  0.4798 -0.4648 -0.1233
   77CHL1   H7A 8116   1.609   5.230   7.239 -0.0634 -0.1345 -0.0249
   77CHL1   H7B 8117   1.771   5.298   7.228  0.6939  0.5153  0.2998
   77CHL1    C8 8118   1.612   5.428   7.331 -0.9787 -0.0902  0.0399
   77CHL1    H8 8119   1.502   5.436   7.343 -0.8780  2.2381 -0.4238
   77CHL1   C14 8120   1.679   5.386   7.462 -0.6748  0.4174  0.2366
   77CHL1   H14 8121   1.788   5.399   7.447 -0.4589  3.3172  3.8357
   77CHL1   C15 8122   1.641   5.245   7.504  0.1832 -0.0013  0.3214
   77CHL1  H15A 8123   1.533   5.219   7.503  0.5867 -1.7081 -0.2899
   77CHL1  H15B 8124   1.691   5.165   7.445 -1.6927 -1.1325  0.2419
   77CHL1   C16 8125   1.686   5.236   7.648 -0.0643 -0.1696 -0.2019
   77CHL1  H16A 8126   1.614   5.185   7.715  1.6117 -0.2147  1.6001
   77CHL1  H16B 8127   1.772   5.165   7.652  0.8767  0.9310 -0.6454
   77CHL1   C17 8128   1.719   5.380   7.690 -0.1667 -0.2386 -0.1077
   77CHL1   H17 8129   1.827   5.403   7.674 -0.3578  2.2438  1.8807
   77CHL1   C13 8130   1.650   5.477   7.583  0.0005 -0.2892  0.4474
   77CHL1   C18 8131   1.492   5.481   7.602  0.4079  0.1200 -0.2552
   77CHL1  H18A 8132   1.445   5.382   7.621  0.7715 -0.1753 -0.8472
   77CHL1  H18B 8133   1.465   5.535   7.695 -2.5568  0.3469 -1.2223
   77CHL1  H18C 8134   1.435   5.541   7.528 -2.2843 -3.2515 -1.0270
   77CHL1   C12 8135   1.706   5.620   7.545 -0.2099  0.3898 -0.1372
   77CHL1  H12A 8136   1.671   5.696   7.619  2.3387  0.8380  0.6736
   77CHL1  H12B 8137   1.816   5.614   7.554 -0.0835  1.6835 -0.7206
   77CHL1   C11 8138   1.641   5.676   7.416 -0.2559  0.4616 -0.2368
   77CHL1  H11A 8139   1.536   5.698   7.443 -0.6022 -1.0897 -0.2860
   77CHL1  H11B 8140   1.688   5.773   7.392 -0.4573  0.6197  0.0140
   77CHL1    C9 8141   1.654   5.571   7.299  0.5924  0.0048  0.0847
   77CHL1    H9 8142   1.764   5.565   7.279  1.0795  1.6998  2.1229
   77CHL1   C10 8143   1.594   5.626   7.162  0.4466  0.0535 -0.0061
   77CHL1   C19 8144   1.458   5.681   7.195  0.1975 -0.3465 -0.2749
   77CHL1  H19A 8145   1.406   5.703   7.100  1.9016  1.8554 -0.7352
   77CHL1  H19B 8146   1.404   5.591   7.231 -1.3670  0.5778 -0.3006
   77CHL1  H19C 8147   1.454   5.770   7.262  2.9505 -0.6573  0.3803
   77CHL1    C1 8148   1.688   5.741   7.115 -0.1124  0.1556  0.4101
   77CHL1   H1A 8149   1.677   5.829   7.182  1.5940  1.7270 -1.3045
   77CHL1   H1B 8150   1.789   5.694   7.115 -2.0472 -4.2011  1.2498
   77CHL1    C2 8151   1.660   5.797   6.977 -0.4929 -0.6799  0.8311
   77CHL1   H2A 8152   1.721   5.885   6.947 -0.8847  0.0175  2.0441
   77CHL1   H2B 8153   1.559   5.841   6.990 -0.0834  0.1420  1.3333
   77CHL1   C20 8154   1.686   5.407   7.837 -0.3409 -0.4492 -0.2047
   77CHL1   H20 8155   1.582   5.368   7.849 -0.3397 -0.6811 -0.9467
   77CHL1   C21 8156   1.688   5.561   7.865 -0.2782  0.1251 -1.2226
   77CHL1  H21A 8157   1.604   5.624   7.828 -1.1884 -0.4584 -0.1882
   77CHL1  H21B 8158   1.777   5.614   7.824  0.0403 -0.9947 -1.9835
   77CHL1  H21C 8159   1.693   5.571   7.975 -0.0745  1.3737 -1.3345
   77CHL1   C22 8160   1.784   5.324   7.929 -0.3097  0.4365  0.4497
   77CHL1  H22A 8161   1.821   5.239   7.868 -1.0007  1.0688 -0.8552
   77CHL1  H22B 8162   1.879   5.378   7.945  0.1093 -1.0199  3.1923
   77CHL1   C23 8163   1.715   5.276   8.054  0.6849 -0.4417  0.1611
   77CHL1  H23A 8164   1.669   5.368   8.098 -0.7348 -0.6179 -0.9396
   77CHL1  H23B 8165   1.637   5.209   8.014  2.1857 -1.5443 -0.9769
   77CHL1   C24 8166   1.808   5.184   8.147  0.1451 -0.2761  0.4417
   77CHL1  H24A 8167   1.841   5.096   8.088  0.7634  0.7207 -0.7429
   77CHL1  H24B 8168   1.894   5.248   8.179  0.4765 -0.1928 -0.5952
   77CHL1   C25 8169   1.741   5.139   8.275 -0.0684 -1.3495  0.5378
   77CHL1   H25 8170   1.655   5.072   8.250  0.4783 -3.0217  2.8963
   77CHL1   C26 8171   1.839   5.061   8.366  0.1646 -0.3212  0.0125
   77CHL1  H26A 8172   1.811   5.060   8.473  0.7955  2.3006  0.2402
   77CHL1  H26B 8173   1.855   4.962   8.318  1.2905 -0.2348  0.1885
   77CHL1  H26C 8174   1.934   5.119   8.368 -0.0593  0.0747 -0.9232
   77CHL1   C27 8175   1.689   5.263   8.354 -0.6413 -0.4976  0.8562
   77CHL1  H27A 8176   1.639   5.231   8.448  0.4418 -1.1326  1.2220
   77CHL1  H27B 8177   1.770   5.330   8.390  0.4352 -1.9171  1.0985
   77CHL1  H27C 8178   1.608   5.322   8.307  0.1590 -0.9971 -1.1977
   78CHL1    C3 8179   4.399   6.751   6.783 -0.0499  0.3006 -0.1578
   78CHL1    H3 8180   4.295   6.726   6.814  0.6443 -1.6094  0.6832
   78CHL1    O3 8181   4.415   6.745   6.646 -0.0247  0.2387 -0.6220
   78CHL1   H3' 8182   4.413   6.833   6.610  2.0463  0.6240  0.1236
   78CHL1    C4 8183   4.434   6.891   6.840 -0.0834  0.0333 -0.0682
   78CHL1   H4A 8184   4.532   6.929   6.802  0.1079 -0.7733 -0.4138
   78CHL1   H4B 8185   4.358   6.955   6.791 -1.1993  0.4970  2.2181
   78CHL1    C5 8186   4.415   6.892   6.991  0.1837  0.5071 -0.5327
   78CHL1    C6 8187   4.327   6.974   7.043  0.4247 -0.2910  0.4673
   78CHL1    H6 8188   4.281   7.049   6.977  2.0897  1.1421  0.8976
   78CHL1    C7 8189   4.315   6.987   7.196  0.2765 -0.4670  0.0384
   78CHL1   H7A 8190   4.319   7.094   7.226  1.5936 -0.8887  1.4679
   78CHL1   H7B 8191   4.214   6.949   7.219 -0.6214  0.3057 -2.4482
   78CHL1    C8 8192   4.431   6.927   7.274 -0.0217 -0.1899  0.0573
   78CHL1    H8 8193   4.520   6.992   7.265 -0.6321  0.4067 -1.8804
   78CHL1   C14 8194   4.394   6.915   7.424  0.1011  0.6903  0.2171
   78CHL1   H14 8195   4.309   6.844   7.431  0.4228  0.3238  0.4539
   78CHL1   C15 8196   4.345   7.040   7.494 -0.1991 -0.2242  0.4672
   78CHL1  H15A 8197   4.402   7.133   7.472  1.1834 -1.3352 -0.7094
   78CHL1  H15B 8198   4.240   7.068   7.472  0.2498  0.3788 -0.9626
   78CHL1   C16 8199   4.369   7.013   7.645  0.1779 -0.4257  0.2074
   78CHL1  H16A 8200   4.434   7.094   7.684 -3.9878  2.0735  2.3444
   78CHL1  H16B 8201   4.282   7.017   7.714  0.6021  2.8182  0.6225
   78CHL1   C17 8202   4.453   6.879   7.656 -0.1529 -0.5398  0.4822
   78CHL1   H17 8203   4.377   6.799   7.665 -1.6847  0.8924  0.4489
   78CHL1   C13 8204   4.508   6.865   7.513  0.2312 -0.1615  0.4018
   78CHL1   C18 8205   4.636   6.952   7.494 -0.0030 -0.2259  0.1437
   78CHL1  H18A 8206   4.723   6.912   7.551  0.2610 -0.9439 -0.7462
   78CHL1  H18B 8207   4.667   6.974   7.389 -0.5618 -1.7838 -0.3582
   78CHL1  H18C 8208   4.610   7.050   7.538 -0.2067  0.5132 -1.5664
   78CHL1   C12 8209   4.529   6.718   7.468 -0.0816 -0.0846  0.6354
   78CHL1  H12A 8210   4.606   6.662   7.527 -0.2662 -0.5839  0.4078
   78CHL1  H12B 8211   4.437   6.657   7.480  1.5167 -2.3323  2.0367
   78CHL1   C11 8212   4.565   6.719   7.322 -0.0363 -0.3888 -0.4719
   78CHL1  H11A 8213   4.669   6.756   7.304 -0.8276  2.1136 -0.1059
   78CHL1  H11B 8214   4.559   6.614   7.287  0.0554 -0.3391 -0.6369
   78CHL1    C9 8215   4.471   6.794   7.222  0.9817  0.1411 -0.0059
   78CHL1    H9 8216   4.374   6.741   7.231  0.7115  1.0247  2.6166
   78CHL1   C10 8217   4.506   6.799   7.075 -0.0928  0.0173 -0.8936
   78CHL1   C19 8218   4.661   6.838   7.061  0.3888 -0.2240 -0.3530
   78CHL1  H19A 8219   4.723   6.746   7.066  0.5264 -0.0396  1.4507
   78CHL1  H19B 8220   4.676   6.886   6.962 -2.8467  0.2480 -0.6815
   78CHL1  H19C 8221   4.688   6.910   7.141  2.8209 -1.9229  0.3929
   78CHL1    C1 8222   4.471   6.660   7.004 -1.0774  0.5998  0.4844
   78CHL1   H1A 8223   4.536   6.587   7.057 -0.1971  1.1112  0.1283
   78CHL1   H1B 8224   4.364   6.635   7.022 -1.1716 -0.9815 -2.0961
   78CHL1    C2 8225   4.494   6.650   6.853  0.2140  0.4968  0.0136
   78CHL1   H2A 8226   4.462   6.552   6.813 -0.2790  0.6410  0.0518
   78CHL1   H2B 8227   4.597   6.675   6.821  0.6353  0.1104  1.0307
   78CHL1   C20 8228   4.551   6.880   7.772 -0.2866  0.3349  0.9522
   78CHL1   H20 8229   4.636   6.948   7.750 -1.5428  0.8657 -2.6826
   78CHL1   C21 8230   4.622   6.744   7.790  0.5515 -0.7717  0.1174
   78CHL1  H21A 8231   4.679   6.744   7.885  2.0479 -0.4908 -0.7552
   78CHL1  H21B 8232   4.698   6.716   7.713  1.3495 -1.0941  1.0226
   78CHL1  H21C 8233   4.557   6.655   7.804  0.4447 -1.2790 -3.0967
   78CHL1   C22 8234   4.489   6.920   7.912 -0.1681 -0.8916  0.2539
   78CHL1  H22A 8235   4.561   6.908   7.995 -1.6919 -0.4881  1.6463
   78CHL1  H22B 8236   4.467   7.028   7.918  0.8433 -0.6268 -0.7438
   78CHL1   C23 8237   4.362   6.844   7.956  0.1334  0.6078  0.2020
   78CHL1  H23A 8238   4.287   6.865   7.877 -0.5614 -0.5058  0.5572
   78CHL1  H23B 8239   4.375   6.734   7.962  3.1161  0.9684  1.0810
   78CHL1   C24 8240   4.312   6.900   8.096 -0.1771 -0.5124  0.4346
   78CHL1  H24A 8241   4.377   6.878   8.184  1.8462  0.3791 -0.8174
   78CHL1  H24B 8242   4.313   7.011   8.104  3.2072 -0.5562  1.3331
   78CHL1   C25 8243   4.169   6.863   8.132 -0.1318 -0.8128  0.7528
   78CHL1   H25 8244   4.139   6.765   8.088  4.2524 -0.5434 -3.2750
   78CHL1   C26 8245   4.154   6.848   8.286  0.0787 -0.5381  0.2376
   78CHL1  H26A 8246   4.058   6.801   8.315 -2.2428  2.0624 -2.8688
   78CHL1  H26B 8247   4.234   6.791   8.339  1.1402  0.9287  0.2547
   78CHL1  H26C 8248   4.141   6.944   8.339  0.7415  1.0995 -2.4422
   78CHL1   C27 8249   4.064   6.971   8.083 -0.2479 -0.3936  0.7052
   78CHL1  H27A 8250   3.962   6.946   8.119 -0.0211 -1.3227  0.7246
   78CHL1  H27B 8251   4.095   7.065   8.132  0.9081 -0.2897 -0.2053
   78CHL1  H27C 8252   4.053   7.005   7.978  1.0287  0.1534  0.7431
   79CHL1    C3 8253   2.343   6.751   7.012  0.6382  0.3576  0.1935
   79CHL1    H3 8254   2.412   6.664   7.011 -1.7837 -1.6993 -3.6878
   79CHL1    O3 8255   2.341   6.817   6.886 -0.8901  0.6137  0.3611
   79CHL1   H3' 8256   2.338   6.747   6.821  2.1117  2.4539 -1.9219
   79CHL1    C4 8257   2.201   6.706   7.021  0.1028  0.2694  0.2793
   79CHL1   H4A 8258   2.132   6.791   7.001 -0.1208 -0.4404 -2.1898
   79CHL1   H4B 8259   2.182   6.632   6.940 -0.9428  0.1057  0.6675
   79CHL1    C5 8260   2.164   6.650   7.160  0.2747  0.2021 -0.1507
   79CHL1    C6 8261   2.109   6.533   7.169  0.3864  0.4661 -0.5065
   79CHL1    H6 8262   2.077   6.485   7.075  1.7464 -1.8384  0.1718
   79CHL1    C7 8263   2.066   6.472   7.308 -0.6289  1.0511  0.4415
   79CHL1   H7A 8264   1.961   6.435   7.309 -1.1937  2.5433 -1.0024
   79CHL1   H7B 8265   2.123   6.378   7.325 -0.2374  0.9735 -1.2140
   79CHL1    C8 8266   2.095   6.556   7.436  0.0785  0.1158 -0.3242
   79CHL1    H8 8267   2.009   6.622   7.460  0.4829  0.4938  0.1179
   79CHL1   C14 8268   2.129   6.481   7.563 -0.5328  0.0883 -0.3218
   79CHL1   H14 8269   2.216   6.416   7.539 -1.1905 -1.5204  1.5057
   79CHL1   C15 8270   2.025   6.359   7.602 -0.3266 -0.4369  0.7964
   79CHL1  H15A 8271   1.924   6.389   7.568 -0.0382  1.6988  1.6646
   79CHL1  H15B 8272   2.058   6.273   7.541  0.7277  0.1218  0.5585
   79CHL1   C16 8273   2.049   6.347   7.757  0.2938  0.3060 -0.6793
   79CHL1  H16A 8274   1.970   6.389   7.822 -0.6489  0.5971 -1.9833
   79CHL1  H16B 8275   2.079   6.246   7.793 -0.3075  1.5583  3.5942
   79CHL1   C17 8276   2.168   6.442   7.795  0.2428 -0.4378  0.1751
   79CHL1   H17 8277   2.267   6.396   7.778  0.2476 -0.0923 -0.8351
   79CHL1   C13 8278   2.157   6.563   7.689  0.1474 -0.5230 -0.2471
   79CHL1   C18 8279   2.032   6.648   7.728 -0.8701 -0.2939 -0.0301
   79CHL1  H18A 8280   1.957   6.587   7.782 -0.7684 -0.5648 -0.1940
   79CHL1  H18B 8281   2.065   6.732   7.794 -0.9637  0.8523 -1.4198
   79CHL1  H18C 8282   1.976   6.693   7.644 -0.0082  0.3881 -0.2511
   79CHL1   C12 8283   2.280   6.644   7.665 -0.8524  0.0854 -0.2128
   79CHL1  H12A 8284   2.289   6.713   7.751 -3.4609 -1.4162  1.3438
   79CHL1  H12B 8285   2.365   6.572   7.659 -0.8983  0.1189 -1.5861
   79CHL1   C11 8286   2.273   6.727   7.529  0.0676 -0.1474 -0.4811
   79CHL1  H11A 8287   2.197   6.808   7.535 -0.6117 -0.6192 -2.2829
   79CHL1  H11B 8288   2.375   6.768   7.512  0.7209 -1.6930 -0.3533
   79CHL1    C9 8289   2.224   6.648   7.408 -0.1647 -0.0253  0.2295
   79CHL1    H9 8290   2.305   6.574   7.391 -2.8793 -2.1901 -4.2399
   79CHL1   C10 8291   2.211   6.733   7.285 -0.0659  0.0422  0.5172
   79CHL1   C19 8292   2.100   6.836   7.307 -0.2040 -0.7272 -0.2482
   79CHL1  H19A 8293   2.003   6.783   7.318 -0.2973 -0.7859 -1.3023
   79CHL1  H19B 8294   2.122   6.909   7.388 -1.0748 -1.0117  0.2523
   79CHL1  H19C 8295   2.097   6.904   7.220 -1.0527 -0.2592  0.1389
   79CHL1    C1 8296   2.348   6.796   7.259  0.0862  0.1729  0.3824
   79CHL1   H1A 8297   2.370   6.872   7.338 -3.4465  2.4841 -0.7825
   79CHL1   H1B 8298   2.421   6.713   7.263  0.9864  0.9215 -0.2637
   79CHL1    C2 8299   2.376   6.851   7.117 -0.1637 -0.5007 -0.1636
   79CHL1   H2A 8300   2.478   6.894   7.119 -0.0022 -0.8030 -1.5237
   79CHL1   H2B 8301   2.309   6.940   7.113 -0.4438 -0.7635 -1.8191
   79CHL1   C20 8302   2.169   6.481   7.947  0.5677  0.0940 -1.1414
   79CHL1   H20 8303   2.075   6.539   7.955  1.5700  1.5017  0.7603
   79CHL1   C21 8304   2.298   6.566   7.971 -0.2871  0.3618 -0.2804
   79CHL1  H21A 8305   2.281   6.667   7.929  1.4179  0.7225 -0.1058
   79CHL1  H21B 8306   2.390   6.513   7.940  1.0144  1.2961  1.9169
   79CHL1  H21C 8307   2.302   6.577   8.082 -1.1446  2.7284 -0.4679
   79CHL1   C22 8308   2.163   6.357   8.043  0.3949  0.1278  0.8314
   79CHL1  H22A 8309   2.060   6.315   8.041  0.1860  0.6503  0.6201
   79CHL1  H22B 8310   2.236   6.283   8.004  0.2805  0.8767 -0.8352
   79CHL1   C23 8311   2.195   6.380   8.198 -0.8301  0.0222 -0.2610
   79CHL1  H23A 8312   2.302   6.407   8.195 -0.4615 -1.2854  0.7324
   79CHL1  H23B 8313   2.136   6.468   8.230 -2.2965 -1.3371  0.8868
   79CHL1   C24 8314   2.184   6.257   8.282  0.7525  0.0338 -0.3014
   79CHL1  H24A 8315   2.083   6.222   8.310 -0.1568  1.7336 -1.4007
   79CHL1  H24B 8316   2.237   6.171   8.235 -0.2769 -0.9247  0.2633
   79CHL1   C25 8317   2.253   6.277   8.422 -0.0602  0.1218  0.6878
   79CHL1   H25 8318   2.219   6.366   8.478 -1.1467 -0.2072  0.5590
   79CHL1   C26 8319   2.232   6.152   8.505  0.2555  0.5412  0.2854
   79CHL1  H26A 8320   2.123   6.139   8.527  0.2420 -0.1105 -0.1491
   79CHL1  H26B 8321   2.262   6.065   8.443  0.1724  0.0002  0.9903
   79CHL1  H26C 8322   2.297   6.155   8.596  1.7358  1.8489 -0.8058
   79CHL1   C27 8323   2.404   6.298   8.406 -0.3424 -0.1347  0.1263
   79CHL1  H27A 8324   2.433   6.395   8.361  1.4879 -0.3944  0.7376
   79CHL1  H27B 8325   2.457   6.290   8.503 -1.0763  1.7058  0.7018
   79CHL1  H27C 8326   2.450   6.221   8.340 -1.1756 -0.7383  0.2261
   80CHL1    C3 8327   0.486   3.591   6.975 -0.9662 -0.4613 -0.2785
   80CHL1    H3 8328   0.578   3.650   6.955 -0.0170 -2.1794 -1.0978
   80CHL1    O3 8329   0.445   3.531   6.854  0.1001  0.3427  0.5907
   80CHL1   H3' 8330   0.355   3.502   6.872  0.1464  0.0398  0.3347
   80CHL1    C4 8331   0.517   3.484   7.082  0.2095 -0.1511 -0.5123
   80CHL1   H4A 8332   0.434   3.410   7.091  0.3009 -0.4067 -1.5947
   80CHL1   H4B 8333   0.602   3.431   7.035  0.9780 -0.8789  1.6562
   80CHL1    C5 8334   0.562   3.551   7.212 -0.0436 -0.0427  0.2506
   80CHL1    C6 8335   0.687   3.538   7.264  0.0434  0.0551 -0.1213
   80CHL1    H6 8336   0.757   3.463   7.223 -0.5344 -0.8195  0.4774
   80CHL1    C7 8337   0.728   3.589   7.399 -0.4833 -0.1331 -0.2763
   80CHL1   H7A 8338   0.773   3.506   7.458  0.7444 -1.1438 -2.5480
   80CHL1   H7B 8339   0.803   3.670   7.385 -1.2765  0.4783 -1.0897
   80CHL1    C8 8340   0.611   3.647   7.484  0.6398 -0.0268  0.8706
   80CHL1    H8 8341   0.549   3.565   7.524  1.6792 -0.0658  2.4587
   80CHL1   C14 8342   0.666   3.739   7.586 -0.1552 -0.5067 -0.1289
   80CHL1   H14 8343   0.697   3.827   7.527 -2.1782  0.2844 -0.0701
   80CHL1   C15 8344   0.784   3.689   7.674  0.0372  0.3352  0.1761
   80CHL1  H15A 8345   0.759   3.583   7.695  0.3094  0.4025  0.8610
   80CHL1  H15B 8346   0.882   3.699   7.625  0.3523  2.1929  1.1252
   80CHL1   C16 8347   0.779   3.781   7.799 -0.3014  0.0595 -0.9444
   80CHL1  H16A 8348   0.763   3.716   7.887 -0.3035  1.3120  0.0036
   80CHL1  H16B 8349   0.871   3.843   7.803 -0.6593  0.4752  1.9026
   80CHL1   C17 8350   0.665   3.887   7.766 -0.2261 -0.4260  0.2761
   80CHL1   H17 8351   0.715   3.963   7.702  0.7752 -1.7514 -0.5220
   80CHL1   C13 8352   0.563   3.817   7.679 -0.1541 -0.0748 -0.5160
   80CHL1   C18 8353   0.483   3.713   7.764 -0.5865 -0.7645  0.7798
   80CHL1  H18A 8354   0.435   3.640   7.695  1.3980 -1.2243 -0.1426
   80CHL1  H18B 8355   0.551   3.656   7.830  2.2595  1.4780 -0.1340
   80CHL1  H18C 8356   0.402   3.762   7.822 -0.5513  0.4138 -0.1557
   80CHL1   C12 8357   0.471   3.900   7.590  0.2175  0.4236  0.1876
   80CHL1  H12A 8358   0.396   3.953   7.652 -1.3330  1.8241 -2.7920
   80CHL1  H12B 8359   0.524   3.983   7.539 -0.3330 -1.1107 -2.9811
   80CHL1   C11 8360   0.407   3.807   7.480 -0.2586  0.4230  0.4101
   80CHL1  H11A 8361   0.332   3.736   7.520  3.3860 -2.8961  1.6804
   80CHL1  H11B 8362   0.357   3.871   7.405 -1.2697 -0.3300  0.4379
   80CHL1    C9 8363   0.514   3.726   7.394 -1.3204  0.1164  0.6185
   80CHL1    H9 8364   0.582   3.804   7.354  0.0131 -1.5148 -0.3788
   80CHL1   C10 8365   0.458   3.652   7.267 -0.3786 -0.6110 -0.1906
   80CHL1   C19 8366   0.323   3.577   7.313 -0.2429 -0.1913 -0.6525
   80CHL1  H19A 8367   0.299   3.494   7.243 -1.7423 -1.7708  1.6553
   80CHL1  H19B 8368   0.332   3.536   7.416  0.1897 -2.0723 -1.4257
   80CHL1  H19C 8369   0.228   3.635   7.310 -0.2208 -0.0883  0.5463
   80CHL1    C1 8370   0.426   3.761   7.155  0.4908 -0.2453 -0.7334
   80CHL1   H1A 8371   0.337   3.821   7.182  1.2345  0.0048  1.2220
   80CHL1   H1B 8372   0.520   3.818   7.136  2.2570 -2.1851  1.8203
   80CHL1    C2 8373   0.384   3.689   7.018 -0.3510  0.2056 -0.6148
   80CHL1   H2A 8374   0.365   3.767   6.940 -0.2454 -0.2804 -1.1295
   80CHL1   H2B 8375   0.294   3.628   7.036  0.1383 -0.5324 -0.6668
   80CHL1   C20 8376   0.614   3.966   7.897  1.0651  0.2668 -0.0143
   80CHL1   H20 8377   0.511   4.004   7.884  1.2064  1.0289  1.0026
   80CHL1   C21 8378   0.689   4.096   7.902 -0.3938  0.5804 -0.3689
   80CHL1  H21A 8379   0.798   4.080   7.892 -0.8306 -0.5714 -4.3891
   80CHL1  H21B 8380   0.652   4.148   7.992 -3.3237 -3.3451  0.8465
   80CHL1  H21C 8381   0.659   4.152   7.811 -1.4802  2.2235  0.9879
   80CHL1   C22 8382   0.603   3.901   8.038  0.4582 -0.2639 -0.1818
   80CHL1  H22A 8383   0.542   3.808   8.037  0.3125 -0.1897  1.3981
   80CHL1  H22B 8384   0.706   3.869   8.066  0.5548 -2.2768 -2.6202
   80CHL1   C23 8385   0.549   3.988   8.147 -0.5431 -0.2198 -0.9694
   80CHL1  H23A 8386   0.627   4.061   8.178  0.6977 -2.4028  1.2206
   80CHL1  H23B 8387   0.454   4.039   8.122 -0.5632  0.1428 -0.1789
   80CHL1   C24 8388   0.534   3.907   8.277  0.4206  0.7132 -0.2085
   80CHL1  H24A 8389   0.488   3.808   8.257 -1.2132  1.3572  0.3148
   80CHL1  H24B 8390   0.640   3.890   8.308  0.3861 -0.3676 -0.6348
   80CHL1   C25 8391   0.452   3.979   8.381  0.1941  0.5134 -0.5626
   80CHL1   H25 8392   0.352   4.005   8.339 -0.5619  0.8149  1.3446
   80CHL1   C26 8393   0.439   3.899   8.513  0.1884  0.3129  0.3846
   80CHL1  H26A 8394   0.357   3.935   8.580  1.3312  0.6360  1.6199
   80CHL1  H26B 8395   0.429   3.795   8.477 -2.3820  1.3826 -2.2712
   80CHL1  H26C 8396   0.532   3.924   8.569 -1.3781 -0.1836  3.3200
   80CHL1   C27 8397   0.512   4.121   8.415 -0.8711  0.5715  0.0320
   80CHL1  H27A 8398   0.621   4.111   8.435 -0.8662 -0.0491 -0.3094
   80CHL1  H27B 8399   0.508   4.185   8.324  2.6718 -1.6737 -1.7902
   80CHL1  H27C 8400   0.451   4.173   8.492 -0.0407 -1.1470  1.9040
   81CHL1    C3 8401   5.392   3.999   6.967  0.5504 -0.2351 -0.1084
   81CHL1    H3 8402   5.290   3.970   6.997  0.4456 -0.9399 -1.1157
   81CHL1    O3 8403   5.410   3.984   6.831 -0.2590 -0.8898  0.0295
   81CHL1   H3' 8404   5.371   4.067   6.803  1.5730  0.9293  2.6395
   81CHL1    C4 8405   5.431   4.139   7.018 -0.6535  0.5944 -0.1305
   81CHL1   H4A 8406   5.525   4.171   6.969 -0.6494  0.2033 -0.3875
   81CHL1   H4B 8407   5.360   4.211   6.973 -0.1966  1.2875  0.2544
   81CHL1    C5 8408   5.430   4.158   7.166 -0.1627  0.8776 -0.2237
   81CHL1    C6 8409   5.350   4.252   7.213 -0.2085  0.6413 -0.4572
   81CHL1    H6 8410   5.289   4.318   7.150 -0.1296  1.7703  0.6429
   81CHL1    C7 8411   5.335   4.276   7.363  0.2253 -0.2171 -0.7783
   81CHL1   H7A 8412   5.358   4.383   7.383 -3.6992  1.1590 -2.8951
   81CHL1   H7B 8413   5.227   4.253   7.380  0.2991  0.5900  0.8613
   81CHL1    C8 8414   5.426   4.190   7.452 -0.0288  1.1732  0.2047
   81CHL1    H8 8415   5.524   4.240   7.461  0.4398  0.2185  0.4181
   81CHL1   C14 8416   5.366   4.169   7.597  0.4902  0.2119  0.6729
   81CHL1   H14 8417   5.270   4.115   7.585  1.3575 -1.6310  1.9164
   81CHL1   C15 8418   5.313   4.294   7.667  0.2255  0.2490 -0.0893
   81CHL1  H15A 8419   5.396   4.367   7.654 -0.8649  1.5688  0.1714
   81CHL1  H15B 8420   5.219   4.331   7.620  0.4974  0.1197 -0.7408
   81CHL1   C16 8421   5.295   4.242   7.812 -0.0723  0.0315  0.2323
   81CHL1  H16A 8422   5.350   4.316   7.874  1.9539  0.9694 -2.5272
   81CHL1  H16B 8423   5.189   4.234   7.841 -0.4390  1.9329 -0.5472
   81CHL1   C17 8424   5.362   4.099   7.818 -0.7949 -0.2019 -1.0628
   81CHL1   H17 8425   5.281   4.025   7.801 -0.7609 -0.6542  0.7074
   81CHL1   C13 8426   5.453   4.094   7.690 -1.3221 -0.0700  0.1717
   81CHL1   C18 8427   5.585   4.173   7.707  0.0992 -0.0894  0.6054
   81CHL1  H18A 8428   5.646   4.139   7.793  0.0523 -2.5514 -0.2961
   81CHL1  H18B 8429   5.649   4.191   7.618  0.4512 -1.1128  0.6479
   81CHL1  H18C 8430   5.563   4.278   7.735  0.3243  0.5227 -1.4322
   81CHL1   C12 8431   5.484   3.956   7.630 -0.1474 -0.7699 -0.0317
   81CHL1  H12A 8432   5.554   3.909   7.703 -0.9190  0.1773  1.3395
   81CHL1  H12B 8433   5.386   3.903   7.623 -0.1942 -0.8168  0.8937
   81CHL1   C11 8434   5.539   3.970   7.490 -0.5568 -0.1594  0.3909
   81CHL1  H11A 8435   5.637   4.022   7.497 -0.5219  0.0047 -1.2352
   81CHL1  H11B 8436   5.558   3.868   7.451  0.7844 -0.1479  1.0097
   81CHL1    C9 8437   5.450   4.050   7.391  0.1287 -0.3830  0.0714
   81CHL1    H9 8438   5.351   4.000   7.384  0.3022 -0.8647  0.9953
   81CHL1   C10 8439   5.500   4.049   7.245  0.3526 -0.4318 -0.0064
   81CHL1   C19 8440   5.648   4.094   7.238  0.4871 -0.5992 -0.3911
   81CHL1  H19A 8441   5.665   4.105   7.128 -0.7287 -0.6468 -0.5931
   81CHL1  H19B 8442   5.675   4.189   7.288  1.1732 -0.2222 -1.4563
   81CHL1  H19C 8443   5.716   4.016   7.277  1.5517  1.2456  1.5334
   81CHL1    C1 8444   5.470   3.908   7.181  0.3233  1.2286  0.1422
   81CHL1   H1A 8445   5.542   3.839   7.230 -0.6600  0.2697  0.2576
   81CHL1   H1B 8446   5.369   3.868   7.206  0.5123  0.0949 -0.8573
   81CHL1    C2 8447   5.491   3.907   7.029 -0.1123 -0.5422 -0.2405
   81CHL1   H2A 8448   5.481   3.802   6.994 -0.6557 -0.2812 -0.8541
   81CHL1   H2B 8449   5.593   3.939   6.996 -0.6190 -0.4250 -1.7133
   81CHL1   C20 8450   5.421   4.094   7.957 -0.2138 -0.0204 -0.2116
   81CHL1   H20 8451   5.505   4.163   7.982  0.2251 -1.7096  3.2504
   81CHL1   C21 8452   5.498   3.962   7.967  0.1284 -0.0863  0.2036
   81CHL1  H21A 8453   5.593   3.962   7.910  1.4566 -1.8276  2.3277
   81CHL1  H21B 8454   5.437   3.877   7.930 -1.3448  0.2317  1.7900
   81CHL1  H21C 8455   5.526   3.936   8.071  0.6766 -1.4171 -0.2752
   81CHL1   C22 8456   5.319   4.100   8.070  0.0517 -0.9438  0.0084
   81CHL1  H22A 8457   5.381   4.106   8.162  0.5798  2.8302 -0.5090
   81CHL1  H22B 8458   5.280   4.204   8.066 -0.3856 -1.1089 -0.0891
   81CHL1   C23 8459   5.206   3.998   8.086 -0.1550 -0.1683 -0.4916
   81CHL1  H23A 8460   5.133   3.999   8.002  1.2566 -0.1917 -1.7408
   81CHL1  H23B 8461   5.256   3.899   8.084  2.6927  1.2186 -0.0776
   81CHL1   C24 8462   5.125   4.005   8.219 -0.2343 -0.3980  0.2632
   81CHL1  H24A 8463   5.076   4.105   8.226  0.1325  0.0779 -3.2077
   81CHL1  H24B 8464   5.037   3.938   8.207 -0.9177  0.7970 -1.8468
   81CHL1   C25 8465   5.202   3.961   8.345 -0.7198  0.4074 -0.2957
   81CHL1   H25 8466   5.298   4.017   8.352 -0.6816  0.4824 -1.3356
   81CHL1   C26 8467   5.128   3.990   8.475  0.6650  0.3110 -0.8379
   81CHL1  H26A 8468   5.122   4.098   8.500 -2.0116 -0.2314  0.9963
   81CHL1  H26B 8469   5.023   3.957   8.463  0.1046  2.0030 -0.6041
   81CHL1  H26C 8470   5.172   3.939   8.563  3.2727 -1.2469 -2.9416
   81CHL1   C27 8471   5.234   3.809   8.351 -0.1733 -0.2668 -0.3076
   81CHL1  H27A 8472   5.301   3.781   8.267  0.3747 -0.9318  0.3438
   81CHL1  H27B 8473   5.283   3.785   8.448  1.8844  3.5133 -0.3166
   81CHL1  H27C 8474   5.137   3.755   8.339 -0.5553  0.5192 -0.8000
   82CHL1    C3 8475   6.547   5.049   6.973 -0.7443 -0.2214  0.6068
   82CHL1    H3 8476   6.629   4.976   6.959 -2.2653 -1.7374 -0.5695
   82CHL1    O3 8477   6.510   5.077   6.839  0.2200 -0.3169  0.3538
   82CHL1   H3' 8478   6.435   5.020   6.821 -0.2301  0.7601 -1.2597
   82CHL1    C4 8479   6.427   4.975   7.028 -0.9839  0.1236  0.2293
   82CHL1   H4A 8480   6.340   5.041   7.008 -0.1845  1.2873  0.4991
   82CHL1   H4B 8481   6.398   4.883   6.973 -0.3764  0.3186 -0.4180
   82CHL1    C5 8482   6.426   4.960   7.182 -0.5930  0.4906 -0.0514
   82CHL1    C6 8483   6.405   4.838   7.240 -0.6259  0.0309  0.6266
   82CHL1    H6 8484   6.382   4.757   7.168 -0.3118  0.4948 -0.0003
   82CHL1    C7 8485   6.390   4.819   7.386  0.2580 -0.6756 -0.5789
   82CHL1   H7A 8486   6.293   4.769   7.408 -0.8147  1.9974  0.9226
   82CHL1   H7B 8487   6.464   4.751   7.433  2.4336  0.5131 -2.2182
   82CHL1    C8 8488   6.398   4.941   7.481 -0.1814 -0.2931 -0.3366
   82CHL1    H8 8489   6.298   4.986   7.495 -0.2446 -0.8361  1.0571
   82CHL1   C14 8490   6.455   4.913   7.624  0.0504 -0.0185 -0.6185
   82CHL1   H14 8491   6.559   4.875   7.626  0.0464 -0.0501 -1.1368
   82CHL1   C15 8492   6.389   4.802   7.699  0.5380  0.1085 -0.3252
   82CHL1  H15A 8493   6.278   4.803   7.694  0.4338 -2.5572  0.7008
   82CHL1  H15B 8494   6.434   4.703   7.675  1.7325  0.0890  1.8639
   82CHL1   C16 8495   6.420   4.832   7.849 -0.0805  0.4612  0.6095
   82CHL1  H16A 8496   6.332   4.812   7.914 -0.9055  1.4273 -0.1918
   82CHL1  H16B 8497   6.500   4.766   7.888  0.4595  1.3751  1.0540
   82CHL1   C17 8498   6.466   4.982   7.857  1.1619 -0.2195 -0.1173
   82CHL1   H17 8499   6.576   4.973   7.870  0.9245 -0.1051  2.2297
   82CHL1   C13 8500   6.444   5.038   7.710  0.9334 -0.3549 -0.4938
   82CHL1   C18 8501   6.309   5.110   7.713 -0.2498  0.1478 -0.9009
   82CHL1  H18A 8502   6.280   5.144   7.611 -3.6538  0.1731 -0.0086
   82CHL1  H18B 8503   6.235   5.039   7.755  1.4861 -0.1978  1.6645
   82CHL1  H18C 8504   6.308   5.195   7.783  0.1684 -1.0907  0.6269
   82CHL1   C12 8505   6.553   5.135   7.653  0.1457 -0.1291 -0.3443
   82CHL1  H12A 8506   6.567   5.219   7.725 -2.5282 -1.0149  1.2777
   82CHL1  H12B 8507   6.651   5.082   7.648  0.0733 -0.2260 -0.6610
   82CHL1   C11 8508   6.517   5.166   7.508 -0.8251 -0.2020  0.5090
   82CHL1  H11A 8509   6.431   5.236   7.498  2.5739  3.9980 -0.9544
   82CHL1  H11B 8510   6.601   5.224   7.463 -0.6509  0.8262  2.1158
   82CHL1    C9 8511   6.493   5.043   7.415 -0.5194 -0.4795 -0.2417
   82CHL1    H9 8512   6.590   4.990   7.412 -0.0537  0.3909 -0.7043
   82CHL1   C10 8513   6.454   5.077   7.271  0.1630  0.4909 -0.1443
   82CHL1   C19 8514   6.331   5.178   7.270  0.1938 -0.0390  0.4235
   82CHL1  H19A 8515   6.350   5.286   7.288 -0.8216  0.9301 -3.7809
   82CHL1  H19B 8516   6.284   5.183   7.169  0.6890  0.8330  0.2330
   82CHL1  H19C 8517   6.258   5.132   7.340  1.8093  0.7172  2.6751
   82CHL1    C1 8518   6.578   5.148   7.204  0.0605 -0.8574 -0.0848
   82CHL1   H1A 8519   6.599   5.240   7.261 -0.1913 -1.0455  0.3119
   82CHL1   H1B 8520   6.661   5.075   7.211  0.7238  0.0876  2.1636
   82CHL1    C2 8521   6.562   5.179   7.052  0.5147 -0.5169  0.6442
   82CHL1   H2A 8522   6.655   5.231   7.019 -0.0829 -0.5988 -1.2286
   82CHL1   H2B 8523   6.476   5.249   7.040  0.5699 -0.1382  2.2823
   82CHL1   C20 8524   6.424   5.061   7.979  0.2655  0.2427 -0.0927
   82CHL1   H20 8525   6.314   5.074   7.975  0.1517 -0.1109  1.3945
   82CHL1   C21 8526   6.504   5.188   7.971  0.0863 -0.3562  0.3176
   82CHL1  H21A 8527   6.607   5.159   7.941 -0.0067 -2.8236  2.2750
   82CHL1  H21B 8528   6.514   5.243   8.067  4.1799 -0.1057 -0.1592
   82CHL1  H21C 8529   6.460   5.250   7.889 -1.0801 -1.2700  0.2486
   82CHL1   C22 8530   6.456   4.998   8.112 -0.5436  0.9464 -0.7712
   82CHL1  H22A 8531   6.430   4.890   8.118 -0.5663  0.9439 -0.9194
   82CHL1  H22B 8532   6.565   5.004   8.133 -0.3310 -0.0197 -1.5371
   82CHL1   C23 8533   6.377   5.062   8.227  0.1663  0.3325  0.1591
   82CHL1  H23A 8534   6.439   5.144   8.270  2.5531 -0.9343 -0.7611
   82CHL1  H23B 8535   6.279   5.100   8.191  1.3484  0.6835 -2.8626
   82CHL1   C24 8536   6.348   4.969   8.344 -0.1992  0.8179  0.1764
   82CHL1  H24A 8537   6.284   4.883   8.315 -1.4960  1.4908  0.9784
   82CHL1  H24B 8538   6.444   4.922   8.375  0.5461  2.0118 -0.2829
   82CHL1   C25 8539   6.300   5.045   8.469  0.3577 -0.2047  0.0036
   82CHL1   H25 8540   6.380   5.117   8.494 -0.1429  0.9361 -1.5979
   82CHL1   C26 8541   6.181   5.131   8.438 -0.0056  0.0916  0.0691
   82CHL1  H26A 8542   6.097   5.073   8.395 -0.2339  0.7471 -0.3666
   82CHL1  H26B 8543   6.148   5.187   8.528 -1.4014  0.2888 -0.5526
   82CHL1  H26C 8544   6.210   5.206   8.362  0.2662  1.0927  1.1571
   82CHL1   C27 8545   6.269   4.962   8.595  0.3427 -0.0185 -0.2180
   82CHL1  H27A 8546   6.229   5.026   8.676  2.7085  2.0024 -0.5802
   82CHL1  H27B 8547   6.186   4.891   8.576  0.2021  0.3747 -1.0619
   82CHL1  H27C 8548   6.355   4.898   8.626  0.9083  0.1910 -1.3310
   83CHL1    C3 8549   2.534   6.311   7.133  0.0129 -0.5289  0.3660
   83CHL1    H3 8550   2.568   6.416   7.120 -0.8948 -0.1224  1.2638
   83CHL1    O3 8551   2.492   6.281   7.004  0.2320 -0.0129  0.3553
   83CHL1   H3' 8552   2.399   6.268   7.024 -1.0315  3.4268 -2.8554
   83CHL1    C4 8553   2.664   6.229   7.157  0.7836  0.4261  0.3893
   83CHL1   H4A 8554   2.640   6.125   7.127  0.7243  0.2686  0.9723
   83CHL1   H4B 8555   2.735   6.260   7.077  1.1860 -1.7055 -0.1017
   83CHL1    C5 8556   2.719   6.238   7.300  0.2025  0.3263  0.6952
   83CHL1    C6 8557   2.849   6.267   7.322  0.2951  0.4956 -0.5039
   83CHL1    H6 8558   2.916   6.266   7.234  0.4905 -1.7265 -0.3770
   83CHL1    C7 8559   2.905   6.296   7.461  0.0017  0.7032  0.4260
   83CHL1   H7A 8560   3.004   6.249   7.476 -0.9321 -1.7520 -0.8277
   83CHL1   H7B 8561   2.909   6.404   7.487 -1.3311  1.2389 -1.4718
   83CHL1    C8 8562   2.816   6.238   7.572 -0.6556 -0.3586  0.2955
   83CHL1    H8 8563   2.834   6.128   7.574  1.9498  0.0590  1.1342
   83CHL1   C14 8564   2.849   6.296   7.713 -0.8838  0.1766 -0.2467
   83CHL1   H14 8565   2.839   6.407   7.713  1.8299  0.4833 -1.6195
   83CHL1   C15 8566   2.993   6.277   7.761  0.4616  0.4070  0.1317
   83CHL1  H15A 8567   3.028   6.172   7.749 -1.4264 -0.3814  1.0932
   83CHL1  H15B 8568   3.049   6.348   7.697 -3.4512  2.7652 -0.8991
   83CHL1   C16 8569   2.983   6.315   7.907 -0.2640 -0.1334  0.0764
   83CHL1  H16A 8570   3.054   6.255   7.969 -0.5700  0.2255  0.7824
   83CHL1  H16B 8571   3.007   6.421   7.931 -1.4631  0.3948 -0.9922
   83CHL1   C17 8572   2.831   6.308   7.948 -0.0221 -0.1144  0.3484
   83CHL1   H17 8573   2.795   6.413   7.955  0.0907  0.0174 -0.9149
   83CHL1   C13 8574   2.764   6.238   7.832 -1.5543 -0.2738 -0.6066
   83CHL1   C18 8575   2.789   6.083   7.841 -0.1741  0.1220 -0.4007
   83CHL1  H18A 8576   2.750   6.031   7.750 -1.3010  1.6104 -0.7972
   83CHL1  H18B 8577   2.894   6.049   7.849  0.0452  0.8653 -0.1011
   83CHL1  H18C 8578   2.721   6.054   7.923  1.3682 -0.2409  0.7727
   83CHL1   C12 8579   2.620   6.284   7.810  0.3831 -0.1846 -0.8144
   83CHL1  H12A 8580   2.557   6.248   7.893 -0.5469 -0.9386 -1.8266
   83CHL1  H12B 8581   2.611   6.395   7.809  0.7720 -0.1462 -0.0170
   83CHL1   C11 8582   2.577   6.230   7.671  0.6037  0.8813 -0.2683
   83CHL1  H11A 8583   2.565   6.119   7.674  0.0744  0.9279 -0.6325
   83CHL1  H11B 8584   2.480   6.282   7.654 -0.1944 -0.2698  0.7090
   83CHL1    C9 8585   2.669   6.278   7.547 -0.6347  0.1725  0.1007
   83CHL1    H9 8586   2.653   6.388   7.556 -1.1132  0.1112  0.0053
   83CHL1   C10 8587   2.616   6.237   7.415  0.1042  0.4094  0.1226
   83CHL1   C19 8588   2.571   6.089   7.423 -0.0581 -0.5604  0.1368
   83CHL1  H19A 8589   2.658   6.023   7.447  2.3257  2.8971  1.3866
   83CHL1  H19B 8590   2.492   6.076   7.500 -0.1884 -1.1337 -0.0916
   83CHL1  H19C 8591   2.530   6.057   7.325  1.6556 -1.8340 -0.1978
   83CHL1    C1 8592   2.490   6.326   7.377  0.4543 -0.8378 -0.3974
   83CHL1   H1A 8593   2.415   6.304   7.455 -0.0805  1.4134 -0.2244
   83CHL1   H1B 8594   2.503   6.436   7.384 -2.3543 -0.5366  0.7488
   83CHL1    C2 8595   2.429   6.299   7.239  0.1697 -0.0324 -0.2862
   83CHL1   H2A 8596   2.334   6.354   7.218 -0.1415 -0.8643 -1.1266
   83CHL1   H2B 8597   2.395   6.193   7.234  0.7434 -0.2177 -0.1992
   83CHL1   C20 8598   2.811   6.249   8.086  0.3515  0.3815  0.5651
   83CHL1   H20 8599   2.826   6.139   8.075  0.7910  0.4698  0.3194
   83CHL1   C21 8600   2.668   6.269   8.145  0.7355 -1.0020  0.1227
   83CHL1  H21A 8601   2.646   6.378   8.139  0.5997 -0.8813  2.3188
   83CHL1  H21B 8602   2.660   6.253   8.255 -0.6423 -0.7600  0.0667
   83CHL1  H21C 8603   2.589   6.215   8.088  0.8687 -0.8185 -0.2377
   83CHL1   C22 8604   2.914   6.292   8.193 -0.5155  0.1319  0.2439
   83CHL1  H22A 8605   2.902   6.236   8.288  0.3892  2.6624  1.9219
   83CHL1  H22B 8606   3.018   6.273   8.161 -0.0845 -0.0594  1.7527
   83CHL1   C23 8607   2.899   6.424   8.251  0.6765 -0.5891 -0.7118
   83CHL1  H23A 8608   2.870   6.484   8.161  3.1731  1.7551 -0.0548
   83CHL1  H23B 8609   2.814   6.434   8.321  0.9096 -0.9281 -0.3824
   83CHL1   C24 8610   3.022   6.488   8.313  0.9168 -1.1136 -0.1105
   83CHL1  H24A 8611   3.104   6.503   8.239  1.8021  0.6143  1.1741
   83CHL1  H24B 8612   2.996   6.591   8.346  0.2834 -0.7670 -1.6497
   83CHL1   C25 8613   3.093   6.430   8.440 -0.6398 -0.2338  0.3664
   83CHL1   H25 8614   3.135   6.331   8.413  1.6000  0.8850 -0.3314
   83CHL1   C26 8615   3.214   6.512   8.484  0.3845  0.7594 -0.2048
   83CHL1  H26A 8616   3.185   6.608   8.531 -0.1351  0.5642 -0.1327
   83CHL1  H26B 8617   3.279   6.460   8.559 -0.6402  1.6385  1.3180
   83CHL1  H26C 8618   3.274   6.540   8.394  1.2249 -0.5115 -0.0602
   83CHL1   C27 8619   3.003   6.414   8.560 -0.0617  0.0560 -0.6339
   83CHL1  H27A 8620   2.937   6.502   8.580  1.2476  0.9554 -0.2020
   83CHL1  H27B 8621   2.939   6.333   8.519 -2.0998  0.8255  0.9637
   83CHL1  H27C 8622   3.061   6.370   8.644  0.4601 -2.2413 -2.1514
   84CHL1    C3 8623   4.543   2.295   6.977  0.3573  0.0026 -0.6040
   84CHL1    H3 8624   4.434   2.318   6.969 -0.1906 -2.6576 -1.0164
   84CHL1    O3 8625   4.608   2.285   6.847 -0.1330 -0.9175 -0.1952
   84CHL1   H3' 8626   4.539   2.241   6.797 -1.2053 -2.2619  2.3603
   84CHL1    C4 8627   4.613   2.410   7.065 -0.0867 -0.1950 -0.0113
   84CHL1   H4A 8628   4.717   2.372   7.070  0.0634  0.3181  0.6857
   84CHL1   H4B 8629   4.601   2.507   7.012 -1.0070  1.8711  3.8094
   84CHL1    C5 8630   4.538   2.409   7.198  0.4751 -0.0414  0.4315
   84CHL1    C6 8631   4.462   2.510   7.248  0.1117  0.2070 -0.4778
   84CHL1    H6 8632   4.451   2.602   7.189  2.1910  0.5818 -0.3106
   84CHL1    C7 8633   4.398   2.518   7.383 -0.0260 -0.7651 -0.2308
   84CHL1   H7A 8634   4.405   2.615   7.437 -1.3432 -1.7439  1.7827
   84CHL1   H7B 8635   4.288   2.508   7.372 -0.3199  1.1259  0.7106
   84CHL1    C8 8636   4.452   2.409   7.485  0.7487 -0.8169  0.3692
   84CHL1    H8 8637   4.558   2.430   7.511  0.3876 -0.5014  1.6261
   84CHL1   C14 8638   4.359   2.400   7.606  0.2381 -0.3355  0.9487
   84CHL1   H14 8639   4.268   2.362   7.556  0.7209 -2.8589  1.9011
   84CHL1   C15 8640   4.323   2.527   7.689  0.6502  0.0131  0.2454
   84CHL1  H15A 8641   4.410   2.592   7.714 -0.7931  2.4553 -0.8593
   84CHL1  H15B 8642   4.246   2.591   7.640  1.8141  1.0525 -0.2412
   84CHL1   C16 8643   4.262   2.469   7.815 -0.0524 -0.9768 -0.5347
   84CHL1  H16A 8644   4.301   2.530   7.899  1.4748 -0.5076 -1.5696
   84CHL1  H16B 8645   4.151   2.477   7.812 -0.1103 -1.9532 -1.5357
   84CHL1   C17 8646   4.289   2.316   7.813 -0.0386 -0.5175  0.4459
   84CHL1   H17 8647   4.194   2.270   7.779  0.6150 -1.9795  0.5589
   84CHL1   C13 8648   4.386   2.292   7.698 -0.1562  0.8303 -0.2110
   84CHL1   C18 8649   4.525   2.322   7.751 -0.0783 -0.3545 -0.5104
   84CHL1  H18A 8650   4.537   2.416   7.808 -1.9038 -0.5960  0.3284
   84CHL1  H18B 8651   4.552   2.235   7.816 -0.1083 -1.9137 -2.5188
   84CHL1  H18C 8652   4.603   2.323   7.672 -0.7301  0.9629 -1.1348
   84CHL1   C12 8653   4.373   2.156   7.630 -0.2728  0.1579 -0.4595
   84CHL1  H12A 8654   4.396   2.071   7.697  1.3947  1.0395  0.1056
   84CHL1  H12B 8655   4.276   2.131   7.582 -0.3258  1.7294 -1.1918
   84CHL1   C11 8656   4.474   2.151   7.508  0.2462  0.8133 -0.4341
   84CHL1  H11A 8657   4.578   2.159   7.545  0.6010  2.1736 -1.6596
   84CHL1  H11B 8658   4.475   2.046   7.472  3.4740  0.7642 -0.3733
   84CHL1    C9 8659   4.455   2.275   7.406 -0.2729 -0.5019  0.0333
   84CHL1    H9 8660   4.353   2.251   7.371 -0.6245  1.9159 -0.7269
   84CHL1   C10 8661   4.547   2.276   7.274  0.1633 -0.3690  0.5014
   84CHL1   C19 8662   4.688   2.236   7.326 -0.4627  0.2219 -0.0105
   84CHL1  H19A 8663   4.766   2.256   7.250 -0.6554  0.9452 -0.0225
   84CHL1  H19B 8664   4.713   2.288   7.421  1.2088  0.2701 -0.4682
   84CHL1  H19C 8665   4.692   2.126   7.341  0.2884  0.3173  0.5344
   84CHL1    C1 8666   4.494   2.163   7.181  0.3150  0.6817 -0.3475
   84CHL1   H1A 8667   4.511   2.064   7.230 -1.4793  1.3274  1.6598
   84CHL1   H1B 8668   4.384   2.169   7.167 -0.1505 -2.7977  1.2902
   84CHL1    C2 8669   4.561   2.160   7.049  0.4243 -0.0838 -0.0710
   84CHL1   H2A 8670   4.515   2.075   6.994  3.1537 -1.6756  0.0288
   84CHL1   H2B 8671   4.669   2.142   7.068  0.4626  0.6671  0.4266
   84CHL1   C20 8672   4.311   2.243   7.958  0.0600 -0.5306  0.6073
   84CHL1   H20 8673   4.342   2.136   7.958 -0.0392 -0.6137  3.7692
   84CHL1   C21 8674   4.176   2.232   8.034  0.2152 -0.4988 -0.4782
   84CHL1  H21A 8675   4.114   2.153   7.987  0.2898 -0.3375 -0.8446
   84CHL1  H21B 8676   4.126   2.331   8.027  1.4677  0.1425 -0.4254
   84CHL1  H21C 8677   4.195   2.192   8.136  0.9501 -0.7990 -0.7355
   84CHL1   C22 8678   4.402   2.321   8.053 -0.1936  0.3110 -0.0902
   84CHL1  H22A 8679   4.494   2.358   8.003  1.7692 -2.0552  1.6349
   84CHL1  H22B 8680   4.344   2.404   8.099 -0.5421  0.5785 -1.0077
   84CHL1   C23 8681   4.458   2.229   8.171  0.0121  1.3147 -0.2964
   84CHL1  H23A 8682   4.398   2.136   8.160  2.4534 -0.3831  0.1644
   84CHL1  H23B 8683   4.560   2.195   8.140 -0.2592 -0.5904  0.8124
   84CHL1   C24 8684   4.435   2.281   8.318 -1.1900  0.2883 -0.5164
   84CHL1  H24A 8685   4.462   2.388   8.322  2.2713 -0.5656  0.5386
   84CHL1  H24B 8686   4.327   2.262   8.333 -0.5497 -2.7762  0.6815
   84CHL1   C25 8687   4.532   2.211   8.418  0.1824 -0.0267 -0.3078
   84CHL1   H25 8688   4.639   2.225   8.394  1.0837 -2.4964  2.0057
   84CHL1   C26 8689   4.501   2.285   8.549 -0.0849 -0.8667  0.4266
   84CHL1  H26A 8690   4.395   2.274   8.581 -0.5997  1.2939 -0.4198
   84CHL1  H26B 8691   4.564   2.247   8.632 -1.1332 -0.9771  1.1843
   84CHL1  H26C 8692   4.510   2.396   8.543  0.0288 -0.8411  1.0065
   84CHL1   C27 8693   4.504   2.067   8.426 -0.5567  0.9074  0.5215
   84CHL1  H27A 8694   4.529   2.007   8.336 -0.8266 -1.3122  1.8762
   84CHL1  H27B 8695   4.574   2.020   8.499 -1.5541 -0.0131  0.9034
   84CHL1  H27C 8696   4.398   2.047   8.452 -0.6307  1.5040  0.6772
   85CHL1    C3 8697   4.036   6.356   6.934  0.1311  0.6801  0.1883
   85CHL1    H3 8698   3.939   6.409   6.946  0.6239  1.3201  1.4328
   85CHL1    O3 8699   4.059   6.323   6.792 -0.2523 -0.5219 -0.6882
   85CHL1   H3' 8700   4.058   6.411   6.755  1.9849 -0.0377  0.2898
   85CHL1    C4 8701   4.158   6.424   6.987  0.0472 -0.4651 -0.5617
   85CHL1   H4A 8702   4.251   6.363   6.977  0.6724  0.0304  1.8703
   85CHL1   H4B 8703   4.169   6.515   6.924 -0.2010  0.3108  0.4923
   85CHL1    C5 8704   4.134   6.461   7.138 -0.1972 -0.7596 -0.0880
   85CHL1    C6 8705   4.139   6.588   7.176  0.3217 -0.2796  0.4404
   85CHL1    H6 8706   4.152   6.669   7.104 -1.9855 -1.1232 -1.0056
   85CHL1    C7 8707   4.123   6.635   7.320 -0.4740  0.1817  0.1855
   85CHL1   H7A 8708   4.205   6.700   7.356 -0.5058  0.6134 -0.5165
   85CHL1   H7B 8709   4.028   6.693   7.331  0.0567  0.9628  0.6883
   85CHL1    C8 8710   4.117   6.515   7.416  0.6970 -0.0899  0.6745
   85CHL1    H8 8711   4.217   6.473   7.441  0.3171 -0.9257  0.8095
   85CHL1   C14 8712   4.041   6.554   7.545 -0.5606  0.7064 -0.5166
   85CHL1   H14 8713   3.933   6.564   7.522 -0.6476 -2.6430 -1.7662
   85CHL1   C15 8714   4.096   6.686   7.621 -0.4482 -0.0803  0.3332
   85CHL1  H15A 8715   4.206   6.692   7.606 -0.2610  0.2781  1.8037
   85CHL1  H15B 8716   4.036   6.771   7.582 -0.6375 -0.9352 -1.3074
   85CHL1   C16 8717   4.062   6.653   7.772 -0.3911  0.7418  0.7325
   85CHL1  H16A 8718   4.156   6.672   7.829 -0.0976  0.6110  0.2925
   85CHL1  H16B 8719   3.999   6.736   7.811 -0.9749 -0.4612  2.4206
   85CHL1   C17 8720   3.984   6.521   7.778  0.7095 -0.3147 -0.5350
   85CHL1   H17 8721   3.876   6.533   7.755  0.7114  1.7429  0.4096
   85CHL1   C13 8722   4.044   6.445   7.657 -0.8529 -0.3741  0.4192
   85CHL1   C18 8723   4.180   6.393   7.686 -0.2170  0.2633  0.0919
   85CHL1  H18A 8724   4.227   6.350   7.596 -0.6038  0.9161 -0.4267
   85CHL1  H18B 8725   4.249   6.472   7.722 -1.6216  1.2725  0.6202
   85CHL1  H18C 8726   4.175   6.316   7.767  2.3662 -0.7039 -0.6429
   85CHL1   C12 8727   3.959   6.328   7.605 -0.0858 -0.0836  0.4433
   85CHL1  H12A 8728   3.954   6.242   7.675  1.9703 -1.2985 -0.8589
   85CHL1  H12B 8729   3.858   6.373   7.593 -0.3566 -0.4901  1.1749
   85CHL1   C11 8730   4.012   6.287   7.469  0.4085 -0.1289  0.1005
   85CHL1  H11A 8731   4.108   6.242   7.502  0.1826  0.2059  1.2303
   85CHL1  H11B 8732   3.953   6.205   7.423 -1.0832  0.3875  1.0735
   85CHL1    C9 8733   4.043   6.390   7.361 -0.0519  0.6314 -0.5576
   85CHL1    H9 8734   3.939   6.423   7.340 -0.8558 -0.7840  1.1255
   85CHL1   C10 8735   4.101   6.338   7.231 -0.1480 -0.8877 -0.7308
   85CHL1   C19 8736   4.229   6.250   7.263 -0.0880  0.3340  0.3109
   85CHL1  H19A 8737   4.205   6.172   7.339 -1.8369  0.7225  0.1603
   85CHL1  H19B 8738   4.267   6.204   7.169 -1.5458 -0.2893  0.0187
   85CHL1  H19C 8739   4.311   6.310   7.309 -1.3920  2.4163 -0.0035
   85CHL1    C1 8740   3.992   6.254   7.158  0.1093  0.8621  0.2265
   85CHL1   H1A 8741   3.968   6.159   7.209 -1.2244  0.8862 -0.3344
   85CHL1   H1B 8742   3.895   6.310   7.150 -0.2643  0.2023  0.1280
   85CHL1    C2 8743   4.017   6.221   7.009 -0.0527 -0.2730 -0.3956
   85CHL1   H2A 8744   3.927   6.173   6.963 -0.8752 -1.0434  1.9365
   85CHL1   H2B 8745   4.113   6.170   6.986  0.2708  0.8368 -1.5394
   85CHL1   C20 8746   3.986   6.433   7.908  0.2026  0.8506  0.0142
   85CHL1   H20 8747   3.979   6.325   7.881 -2.3043  1.0793 -0.3758
   85CHL1   C21 8748   3.859   6.458   7.998 -0.3198 -0.1802  0.4490
   85CHL1  H21A 8749   3.868   6.554   8.052  1.7058  0.6804 -1.3172
   85CHL1  H21B 8750   3.837   6.382   8.076  0.8163 -0.5988  0.3754
   85CHL1  H21C 8751   3.767   6.464   7.936 -0.2686 -0.3347  0.3552
   85CHL1   C22 8752   4.110   6.439   8.000  0.3123  0.0411  0.6782
   85CHL1  H22A 8753   4.207   6.471   7.954 -1.2155  2.3098 -1.0759
   85CHL1  H22B 8754   4.079   6.511   8.078  0.0051  0.5332  0.1073
   85CHL1   C23 8755   4.152   6.306   8.067 -0.0139  0.3564 -0.3475
   85CHL1  H23A 8756   4.070   6.248   8.114  0.8916  0.5099  1.4706
   85CHL1  H23B 8757   4.202   6.237   7.995  0.9411 -0.2045  0.8258
   85CHL1   C24 8758   4.257   6.323   8.189  0.1937 -0.2174  0.1746
   85CHL1  H24A 8759   4.190   6.373   8.262 -2.4309 -2.3068 -0.7309
   85CHL1  H24B 8760   4.266   6.223   8.236 -0.2758 -0.1729  0.3659
   85CHL1   C25 8761   4.382   6.406   8.160  0.2324  0.2036 -1.1280
   85CHL1   H25 8762   4.364   6.489   8.090 -0.6271  1.7021  0.8332
   85CHL1   C26 8763   4.454   6.460   8.284 -0.7379  0.5682 -0.6649
   85CHL1  H26A 8764   4.565   6.451   8.275 -0.5565  1.3112  0.6391
   85CHL1  H26B 8765   4.429   6.565   8.309  1.0109  1.0197 -0.7361
   85CHL1  H26C 8766   4.419   6.406   8.374 -0.5154 -0.6478 -1.2888
   85CHL1   C27 8767   4.475   6.313   8.085 -1.0731  0.3352  0.0963
   85CHL1  H27A 8768   4.424   6.251   8.008 -4.1878  0.9994  1.5497
   85CHL1  H27B 8769   4.564   6.365   8.045 -1.7117  1.9763  0.7418
   85CHL1  H27C 8770   4.512   6.241   8.160 -0.3621  0.8697  0.2672
   86CHL1    C3 8771   6.555   4.147   6.976  0.8794  0.1541 -0.4660
   86CHL1    H3 8772   6.545   4.045   7.020 -1.0411 -0.6986 -2.7406
   86CHL1    O3 8773   6.623   4.124   6.852 -0.1017  0.4298 -0.1354
   86CHL1   H3' 8774   6.552   4.089   6.797 -0.6777  0.0057  0.8702
   86CHL1    C4 8775   6.425   4.219   6.947 -0.1814 -0.9884 -0.4034
   86CHL1   H4A 8776   6.449   4.322   6.913 -2.9711  0.3143  1.4042
   86CHL1   H4B 8777   6.365   4.172   6.866 -2.0055  0.1248  0.2762
   86CHL1    C5 8778   6.346   4.234   7.077  0.6546  0.2913 -0.3961
   86CHL1    C6 8779   6.225   4.182   7.086 -0.1203 -0.1634  0.3414
   86CHL1    H6 8780   6.185   4.108   7.015 -2.5626 -0.5962  2.0659
   86CHL1    C7 8781   6.141   4.205   7.210 -0.5498 -0.3301 -0.0784
   86CHL1   H7A 8782   6.034   4.214   7.182 -0.7605  0.1404  0.8502
   86CHL1   H7B 8783   6.139   4.106   7.262  0.0410 -0.5352 -0.4463
   86CHL1    C8 8784   6.185   4.317   7.298  0.4230  0.0144  0.4852
   86CHL1    H8 8785   6.167   4.419   7.258  0.2290 -0.7871 -1.5544
   86CHL1   C14 8786   6.119   4.307   7.435  0.0855 -0.5052  0.1886
   86CHL1   H14 8787   6.169   4.221   7.484 -1.5067 -1.6756 -0.1685
   86CHL1   C15 8788   5.971   4.285   7.434 -0.0641 -0.9301  0.2954
   86CHL1  H15A 8789   5.928   4.363   7.368 -0.5237  2.0502  3.9703
   86CHL1  H15B 8790   5.936   4.183   7.407  0.2664 -0.9716  0.0202
   86CHL1   C16 8791   5.929   4.314   7.581  0.1985 -0.6715 -0.1396
   86CHL1  H16A 8792   5.842   4.384   7.580 -0.6633 -1.7285 -0.6452
   86CHL1  H16B 8793   5.905   4.223   7.640  1.0140  0.3038  1.7446
   86CHL1   C17 8794   6.045   4.387   7.647  0.0941  0.3409 -0.1470
   86CHL1   H17 8795   6.084   4.302   7.706 -1.2141 -1.2275 -1.5005
   86CHL1   C13 8796   6.151   4.417   7.534  0.3154  0.1183 -0.4432
   86CHL1   C18 8797   6.113   4.555   7.476  0.0850 -1.0687  0.1257
   86CHL1  H18A 8798   6.137   4.634   7.550 -1.9591 -1.9931  1.8128
   86CHL1  H18B 8799   6.175   4.596   7.393  0.5528  2.4761  2.1305
   86CHL1  H18C 8800   6.007   4.550   7.444 -0.0227 -0.6771  0.4209
   86CHL1   C12 8801   6.302   4.403   7.572 -0.2751 -0.4522  0.0908
   86CHL1  H12A 8802   6.333   4.495   7.625 -0.5425  1.3277 -2.7294
   86CHL1  H12B 8803   6.325   4.323   7.646 -1.4857 -1.9300 -1.0708
   86CHL1   C11 8804   6.391   4.393   7.444  0.5868 -0.1362  0.6725
   86CHL1  H11A 8805   6.405   4.495   7.403  1.4540 -0.2605  0.6574
   86CHL1  H11B 8806   6.495   4.361   7.465  0.8890 -1.7753 -3.0633
   86CHL1    C9 8807   6.335   4.294   7.326  0.0923  0.5753  0.3301
   86CHL1    H9 8808   6.348   4.190   7.362 -1.3287  1.0070  2.2074
   86CHL1   C10 8809   6.416   4.313   7.189 -0.2316 -0.2733  0.3893
   86CHL1   C19 8810   6.421   4.461   7.144 -0.0052  0.0339  0.1146
   86CHL1  H19A 8811   6.455   4.480   7.040 -0.6359  1.2015  0.1008
   86CHL1  H19B 8812   6.315   4.494   7.147 -0.5327 -1.6681  3.6576
   86CHL1  H19C 8813   6.479   4.530   7.210  1.4203 -2.1270  1.1656
   86CHL1    C1 8814   6.558   4.249   7.204 -0.3996 -0.6377  0.0659
   86CHL1   H1A 8815   6.615   4.306   7.280  0.5727 -0.8694 -0.4758
   86CHL1   H1B 8816   6.553   4.148   7.248 -0.8966  0.8703  3.6117
   86CHL1    C2 8817   6.646   4.227   7.069 -0.2369 -0.1884  0.0588
   86CHL1   H2A 8818   6.743   4.177   7.089  1.2554  2.5102 -0.2856
   86CHL1   H2B 8819   6.664   4.327   7.025 -1.7219 -0.3064 -0.8672
   86CHL1   C20 8820   6.015   4.505   7.741  0.1950  0.0631  0.3276
   86CHL1   H20 8821   5.978   4.596   7.689 -1.4058 -1.6357 -1.5453
   86CHL1   C21 8822   6.140   4.544   7.814 -0.4337  0.1058 -1.0652
   86CHL1  H21A 8823   6.205   4.463   7.853 -0.7176 -0.2271 -1.2717
   86CHL1  H21B 8824   6.107   4.607   7.899  1.3057 -0.5392  0.1158
   86CHL1  H21C 8825   6.200   4.597   7.737  0.5891 -0.3091 -0.5622
   86CHL1   C22 8826   5.899   4.465   7.842  0.3187 -0.2850 -0.5613
   86CHL1  H22A 8827   5.889   4.559   7.900  0.0992  0.4661 -1.7898
   86CHL1  H22B 8828   5.805   4.471   7.782 -0.4197 -1.3103  0.4847
   86CHL1   C23 8829   5.921   4.341   7.927  0.0064 -0.1931 -0.1133
   86CHL1  H23A 8830   5.913   4.253   7.860 -3.7063  1.3006 -1.7894
   86CHL1  H23B 8831   6.024   4.341   7.968 -0.5019 -0.4645  1.1649
   86CHL1   C24 8832   5.815   4.329   8.040 -0.7425 -0.3715 -1.1152
   86CHL1  H24A 8833   5.829   4.422   8.100  0.4533 -1.8804  0.9994
   86CHL1  H24B 8834   5.711   4.331   8.000 -1.6634  2.3339  1.1981
   86CHL1   C25 8835   5.823   4.203   8.136 -0.0120 -0.3743  0.0994
   86CHL1   H25 8836   5.834   4.119   8.065  0.6111 -1.3264  1.3045
   86CHL1   C26 8837   5.949   4.216   8.224 -0.1215 -0.1673  0.3523
   86CHL1  H26A 8838   6.043   4.218   8.166 -0.9551  1.3202 -0.9528
   86CHL1  H26B 8839   5.953   4.300   8.297  0.9657 -0.8768  1.1336
   86CHL1  H26C 8840   5.956   4.128   8.292 -0.9180  0.5803  1.4225
   86CHL1   C27 8841   5.701   4.186   8.225 -0.2508  0.1046 -0.2108
   86CHL1  H27A 8842   5.685   4.084   8.265  0.5050 -0.4216 -1.2397
   86CHL1  H27B 8843   5.706   4.270   8.298  0.6116  0.1245 -0.2884
   86CHL1  H27C 8844   5.613   4.202   8.160 -0.8100  0.4700  0.6230
   87CHL1    C3 8845   6.439   2.020   7.104  0.3666  0.6863 -0.6786
   87CHL1    H3 8846   6.535   2.059   7.144  1.1923 -1.2062 -0.7414
   87CHL1    O3 8847   6.449   2.010   6.963 -0.5651  0.1227  0.5747
   87CHL1   H3' 8848   6.368   1.969   6.932 -1.5175  2.3250  0.0585
   87CHL1    C4 8849   6.397   1.882   7.158 -0.0927  0.5306 -0.0638
   87CHL1   H4A 8850   6.320   1.832   7.096  1.7125 -0.6835 -1.3601
   87CHL1   H4B 8851   6.484   1.813   7.148 -2.1912 -2.4514  1.5327
   87CHL1    C5 8852   6.371   1.899   7.306  0.5382  0.1751 -0.2195
   87CHL1    C6 8853   6.437   1.824   7.391 -0.0675  0.1718  0.1393
   87CHL1    H6 8854   6.501   1.745   7.349 -1.5662 -0.7483 -0.4485
   87CHL1    C7 8855   6.421   1.830   7.542  0.1747  0.0082 -0.1401
   87CHL1   H7A 8856   6.418   1.729   7.588  0.7174 -1.7613 -3.8248
   87CHL1   H7B 8857   6.513   1.881   7.580 -0.4793  0.1776  1.2261
   87CHL1    C8 8858   6.292   1.922   7.594 -0.4954  0.5775  0.7378
   87CHL1    H8 8859   6.213   1.844   7.591  1.0143 -0.9357 -1.3321
   87CHL1   C14 8860   6.304   1.971   7.740 -0.3910  0.1478 -0.3094
   87CHL1   H14 8861   6.384   2.047   7.742  1.2284 -1.4974 -1.4845
   87CHL1   C15 8862   6.347   1.868   7.847 -0.8794  0.2120 -1.2214
   87CHL1  H15A 8863   6.296   1.769   7.836  0.6114 -0.8240  0.8563
   87CHL1  H15B 8864   6.456   1.850   7.863 -0.9345  1.5851  0.8500
   87CHL1   C16 8865   6.296   1.936   7.982 -0.5398  0.3329  0.8205
   87CHL1  H16A 8866   6.223   1.862   8.021 -2.2601  1.5374 -0.0429
   87CHL1  H16B 8867   6.382   1.969   8.044 -0.4741 -1.6550  1.8504
   87CHL1   C17 8868   6.222   2.072   7.937 -0.1793  0.6730 -0.8803
   87CHL1   H17 8869   6.304   2.147   7.941 -0.9434  1.4473  1.0567
   87CHL1   C13 8870   6.180   2.049   7.792  0.1496 -0.7377 -0.0361
   87CHL1   C18 8871   6.054   1.962   7.784  0.5086 -1.0428 -0.1883
   87CHL1  H18A 8872   6.042   1.908   7.881  2.8856 -0.0342  0.6888
   87CHL1  H18B 8873   5.959   2.019   7.775  1.4672  0.4085 -1.1105
   87CHL1  H18C 8874   6.058   1.889   7.700 -0.8139 -2.7761  1.2022
   87CHL1   C12 8875   6.158   2.171   7.698  0.5220 -0.2288 -0.3382
   87CHL1  H12A 8876   6.070   2.223   7.742  0.8307 -1.1925  1.4562
   87CHL1  H12B 8877   6.250   2.233   7.708  1.2493 -0.7102 -3.4752
   87CHL1   C11 8878   6.148   2.133   7.545 -0.3677  0.6986  0.0028
   87CHL1  H11A 8879   6.047   2.089   7.528  0.3281 -1.4071  1.1294
   87CHL1  H11B 8880   6.140   2.225   7.483  0.4075 -0.5026 -1.9146
   87CHL1    C9 8881   6.269   2.042   7.499 -0.9385  0.1824 -0.4215
   87CHL1    H9 8882   6.358   2.105   7.519 -1.2587  1.1511 -1.9694
   87CHL1   C10 8883   6.267   2.011   7.347  0.2985  0.6397  0.2752
   87CHL1   C19 8884   6.125   1.966   7.305 -0.1786  0.4928  0.5212
   87CHL1  H19A 8885   6.047   2.045   7.301 -0.2111  0.4093 -0.8343
   87CHL1  H19B 8886   6.125   1.927   7.201 -1.7410  1.4742  0.1347
   87CHL1  H19C 8887   6.101   1.878   7.368 -0.1331  0.1308  0.0369
   87CHL1    C1 8888   6.312   2.143   7.275 -0.5147  0.1705  0.2902
   87CHL1   H1A 8889   6.245   2.231   7.287  0.3320  0.5936  1.9806
   87CHL1   H1B 8890   6.410   2.182   7.309  0.4915 -0.8456 -1.3497
   87CHL1    C2 8891   6.326   2.117   7.122  0.4550  0.2294  0.0054
   87CHL1   H2A 8892   6.345   2.216   7.075  2.4920  0.0173  0.3245
   87CHL1   H2B 8893   6.230   2.082   7.079  1.0237  0.3404 -1.3752
   87CHL1   C20 8894   6.121   2.120   8.039 -0.2952 -0.4530  0.0054
   87CHL1   H20 8895   6.033   2.052   8.039 -0.7165  0.0684  1.3229
   87CHL1   C21 8896   6.062   2.266   8.008  0.8140 -0.0493 -0.2507
   87CHL1  H21A 8897   5.988   2.270   7.925 -0.9098 -2.3500  1.1175
   87CHL1  H21B 8898   6.142   2.341   7.992 -0.4706  1.0558 -1.6123
   87CHL1  H21C 8899   6.008   2.302   8.098  0.7490 -2.1376  0.5909
   87CHL1   C22 8900   6.176   2.100   8.184 -0.4147 -0.5091 -0.4447
   87CHL1  H22A 8901   6.088   2.119   8.249  0.2652  1.4500 -0.0660
   87CHL1  H22B 8902   6.227   2.006   8.215 -1.0244 -0.0666  2.0099
   87CHL1   C23 8903   6.265   2.217   8.224 -0.0461 -0.3313  0.0100
   87CHL1  H23A 8904   6.333   2.235   8.139  0.6615  0.1916  0.6816
   87CHL1  H23B 8905   6.206   2.310   8.244 -0.6858 -0.5265 -0.9594
   87CHL1   C24 8906   6.344   2.178   8.353  0.3461 -0.3406  0.1756
   87CHL1  H24A 8907   6.265   2.177   8.430  1.2307 -0.8088  1.0903
   87CHL1  H24B 8908   6.398   2.082   8.341 -0.4126 -0.5926 -1.3752
   87CHL1   C25 8909   6.449   2.287   8.394 -0.1880 -0.0259 -0.2470
   87CHL1   H25 8910   6.514   2.238   8.470  0.3532  0.3695 -0.4529
   87CHL1   C26 8911   6.539   2.340   8.280  0.3541 -0.3627  0.4761
   87CHL1  H26A 8912   6.617   2.406   8.322 -0.8658  1.1523  0.3903
   87CHL1  H26B 8913   6.588   2.253   8.232  1.6633  0.9365 -0.5619
   87CHL1  H26C 8914   6.479   2.400   8.208  2.9412 -0.3834 -1.7648
   87CHL1   C27 8915   6.372   2.395   8.469  0.4353  0.0710  0.6992
   87CHL1  H27A 8916   6.310   2.457   8.401 -0.2406 -1.2704  0.0913
   87CHL1  H27B 8917   6.299   2.357   8.544 -0.5257  0.3614 -0.0726
   87CHL1  H27C 8918   6.439   2.471   8.514  1.7818  0.0920 -1.2911
   88CHL1    C3 8919   4.257   0.594   6.968 -0.0661 -1.0245 -0.0331
   88CHL1    H3 8920   4.328   0.511   6.984  2.3786  0.9594 -0.2024
   88CHL1    O3 8921   4.273   0.642   6.830 -0.3976  0.6387 -0.0654
   88CHL1   H3' 8922   4.197   0.701   6.824 -0.7489  0.3978  1.6839
   88CHL1    C4 8923   4.103   0.562   6.981  0.0239  0.1650 -0.2679
   88CHL1   H4A 8924   4.032   0.636   6.939  2.1833  1.4386 -1.7488
   88CHL1   H4B 8925   4.082   0.472   6.918  1.9871 -2.7553  3.0408
   88CHL1    C5 8926   4.078   0.522   7.127 -0.2053  0.1563 -0.0709
   88CHL1    C6 8927   4.035   0.402   7.162 -1.2043  0.0542 -0.2095
   88CHL1    H6 8928   4.008   0.328   7.084 -1.2667  1.3709 -1.4612
   88CHL1    C7 8929   3.992   0.372   7.303 -0.3227  0.3738 -0.1852
   88CHL1   H7A 8930   3.895   0.318   7.297  0.0600 -0.6032  2.0395
   88CHL1   H7B 8931   4.056   0.299   7.356  0.3768  0.2695 -1.1615
   88CHL1    C8 8932   3.980   0.493   7.403 -0.4361  0.5383  0.0254
   88CHL1    H8 8933   3.878   0.536   7.388 -0.8393 -0.6121 -0.5483
   88CHL1   C14 8934   3.982   0.445   7.550 -0.4592 -0.4643  0.3816
   88CHL1   H14 8935   4.083   0.406   7.575 -0.7700 -0.2205  2.0063
   88CHL1   C15 8936   3.880   0.337   7.596 -0.2213 -0.1361 -0.0335
   88CHL1  H15A 8937   3.782   0.366   7.553 -0.8768  0.0764  1.5587
   88CHL1  H15B 8938   3.898   0.233   7.559  1.4522 -0.1274  0.6923
   88CHL1   C16 8939   3.867   0.347   7.746  0.3432 -0.3065  0.1277
   88CHL1  H16A 8940   3.758   0.355   7.768  0.0658  1.6979 -1.7523
   88CHL1  H16B 8941   3.910   0.265   7.807 -0.0344 -1.6031 -1.3058
   88CHL1   C17 8942   3.953   0.472   7.787 -0.2093 -0.2167 -0.0683
   88CHL1   H17 8943   4.054   0.442   7.823 -0.0669 -0.0586 -0.3340
   88CHL1   C13 8944   3.974   0.560   7.651  0.6030  0.1783 -0.6841
   88CHL1   C18 8945   3.842   0.643   7.635  0.2085  0.5241  0.2702
   88CHL1  H18A 8946   3.835   0.701   7.541  0.4419  0.8664  0.4662
   88CHL1  H18B 8947   3.755   0.574   7.632  1.0254 -0.4542 -1.8977
   88CHL1  H18C 8948   3.839   0.710   7.723 -1.8910  1.5380 -0.5494
   88CHL1   C12 8949   4.093   0.660   7.631 -0.1595 -0.1059  0.5101
   88CHL1  H12A 8950   4.092   0.751   7.695  2.5762 -0.0925  0.5694
   88CHL1  H12B 8951   4.187   0.606   7.654  1.2749  1.7184 -0.9365
   88CHL1   C11 8952   4.101   0.707   7.485 -0.4582 -0.2228  0.0306
   88CHL1  H11A 8953   4.016   0.779   7.474 -0.3329  0.1860  1.5334
   88CHL1  H11B 8954   4.195   0.766   7.479 -1.6024  1.7376  0.7384
   88CHL1    C9 8955   4.098   0.593   7.382 -0.2595 -0.0659  0.3694
   88CHL1    H9 8956   4.193   0.538   7.402 -2.0313 -2.1012  3.6592
   88CHL1   C10 8957   4.106   0.638   7.228  0.2401 -0.1654  0.6934
   88CHL1   C19 8958   3.998   0.739   7.200  0.0520 -0.8934  0.2014
   88CHL1  H19A 8959   3.904   0.697   7.241  0.6435 -0.9701  1.4789
   88CHL1  H19B 8960   4.017   0.835   7.252 -0.3891 -1.5640  1.6210
   88CHL1  H19C 8961   3.978   0.769   7.094  3.3363  2.3571  0.3899
   88CHL1    C1 8962   4.252   0.684   7.198  0.1427 -0.1854  0.1327
   88CHL1   H1A 8963   4.271   0.765   7.271  0.7085 -0.8574  0.7458
   88CHL1   H1B 8964   4.320   0.599   7.223 -0.4900 -0.8148 -0.2711
   88CHL1    C2 8965   4.285   0.723   7.054  0.9887  0.0949  0.1109
   88CHL1   H2A 8966   4.390   0.756   7.040  1.3027 -0.0136  2.0260
   88CHL1   H2B 8967   4.216   0.805   7.025 -0.4080 -1.0705  0.0732
   88CHL1   C20 8968   3.900   0.550   7.906 -1.0540 -0.7421 -0.4957
   88CHL1   H20 8969   3.797   0.583   7.880 -0.8603 -0.6884 -1.2041
   88CHL1   C21 8970   3.998   0.665   7.956 -0.8074  0.2248 -0.1827
   88CHL1  H21A 8971   4.096   0.660   7.904 -0.3495  6.1383 -0.1784
   88CHL1  H21B 8972   4.022   0.655   8.064  1.7392  1.1856 -0.6289
   88CHL1  H21C 8973   3.957   0.766   7.932  1.0363  1.5827  2.1447
   88CHL1   C22 8974   3.887   0.464   8.034 -1.0443  0.1162 -0.3202
   88CHL1  H22A 8975   3.837   0.370   8.004 -1.0131 -0.0865  0.2497
   88CHL1  H22B 8976   3.986   0.452   8.083 -1.6656 -0.0894  0.8932
   88CHL1   C23 8977   3.788   0.505   8.140  0.4332  0.5060  0.6639
   88CHL1  H23A 8978   3.810   0.601   8.193  1.5861 -0.6083  2.2715
   88CHL1  H23B 8979   3.687   0.507   8.095  0.0617 -2.9241  1.2021
   88CHL1   C24 8980   3.792   0.403   8.257 -0.0142 -0.0978 -0.0754
   88CHL1  H24A 8981   3.703   0.434   8.316 -0.7615  0.7338 -1.5902
   88CHL1  H24B 8982   3.776   0.297   8.230 -1.0947  0.3866 -1.4236
   88CHL1   C25 8983   3.906   0.411   8.362 -1.0606  0.3860  0.0782
   88CHL1   H25 8984   4.005   0.376   8.326 -0.4685  1.2101  0.8745
   88CHL1   C26 8985   3.941   0.551   8.407 -0.0714  0.2853  0.3720
   88CHL1  H26A 8986   3.972   0.621   8.327 -0.5610  0.5860  0.4430
   88CHL1  H26B 8987   3.853   0.600   8.455 -2.3640 -1.3425 -2.0508
   88CHL1  H26C 8988   4.023   0.549   8.482  0.7286  0.3941 -0.4980
   88CHL1   C27 8989   3.859   0.330   8.488  0.2089 -0.3588  0.2816
   88CHL1  H27A 8990   3.760   0.351   8.531  0.4375 -1.6619  1.4600
   88CHL1  H27B 8991   3.862   0.224   8.453  0.9929  0.5546 -2.5943
   88CHL1  H27C 8992   3.945   0.339   8.558  0.5448  0.2599 -0.2017
   89CHL1    C3 8993   0.689   3.049   6.844 -0.1588  0.1208 -0.3486
   89CHL1    H3 8994   0.778   2.983   6.834  0.5734  1.0137  0.2172
   89CHL1    O3 8995   0.653   3.094   6.718 -0.3893  0.5365  0.7266
   89CHL1   H3' 8996   0.562   3.126   6.720 -0.4516  0.5806 -1.2354
   89CHL1    C4 8997   0.574   2.968   6.899 -0.0813 -0.1388 -0.1413
   89CHL1   H4A 8998   0.487   3.037   6.906  0.0588  0.1709 -1.3759
   89CHL1   H4B 8999   0.554   2.882   6.831 -1.8677 -2.1450  2.8041
   89CHL1    C5 9000   0.590   2.918   7.041 -0.2490 -0.1860 -0.3757
   89CHL1    C6 9001   0.580   2.785   7.068  0.4533  0.1859 -0.3933
   89CHL1    H6 9002   0.569   2.717   6.982  1.8498  0.4313 -0.7735
   89CHL1    C7 9003   0.604   2.721   7.204  0.8758 -0.1442  0.6044
   89CHL1   H7A 9004   0.521   2.647   7.212  0.2094  0.4918 -0.3457
   89CHL1   H7B 9005   0.701   2.670   7.217  0.5568 -0.6802  0.8812
   89CHL1    C8 9006   0.594   2.824   7.313 -0.1605  0.6526 -0.5748
   89CHL1    H8 9007   0.490   2.861   7.325  0.4483  3.1214 -2.6359
   89CHL1   C14 9008   0.640   2.760   7.445 -0.3127  0.1588 -0.3118
   89CHL1   H14 9009   0.746   2.733   7.424  0.3857  1.6062  1.2059
   89CHL1   C15 9010   0.583   2.620   7.482  0.5766 -0.1092 -0.6584
   89CHL1  H15A 9011   0.476   2.641   7.462  0.1497 -1.2624  0.3035
   89CHL1  H15B 9012   0.616   2.542   7.410  1.2648  1.8618 -2.5367
   89CHL1   C16 9013   0.632   2.609   7.627 -0.4287 -1.1680 -0.2305
   89CHL1  H16A 9014   0.568   2.561   7.704  0.0985 -1.4921  0.0103
   89CHL1  H16B 9015   0.731   2.558   7.624 -0.8103 -1.9533  0.4036
   89CHL1   C17 9016   0.683   2.755   7.672 -0.3723  0.8580  0.2206
   89CHL1   H17 9017   0.794   2.750   7.667 -0.3859 -0.4379  1.0430
   89CHL1   C13 9018   0.636   2.857   7.566 -0.2813  0.2610  0.2410
   89CHL1   C18 9019   0.492   2.895   7.601  0.8221  0.0511  0.3827
   89CHL1  H18A 9020   0.490   2.956   7.693 -1.0165  0.3319  0.1641
   89CHL1  H18B 9021   0.447   2.955   7.519 -0.2326  0.0814  0.9791
   89CHL1  H18C 9022   0.437   2.801   7.620 -0.0589  0.5477  0.2956
   89CHL1   C12 9023   0.733   2.976   7.527  0.4633 -0.5273  0.4727
   89CHL1  H12A 9024   0.740   3.054   7.606 -0.6940  0.9669 -0.8782
   89CHL1  H12B 9025   0.833   2.927   7.524  0.5713 -0.4770  2.5446
   89CHL1   C11 9026   0.696   3.049   7.401 -0.4895 -1.0474 -1.1309
   89CHL1  H11A 9027   0.607   3.112   7.420  0.4240  0.0198 -0.3011
   89CHL1  H11B 9028   0.775   3.120   7.368 -0.6650  0.0747  0.7610
   89CHL1    C9 9029   0.684   2.948   7.278  0.0979  0.3893 -0.1910
   89CHL1    H9 9030   0.787   2.906   7.278 -0.5170 -1.1649  0.7994
   89CHL1   C10 9031   0.642   3.024   7.148  0.2394 -0.3172  0.4124
   89CHL1   C19 9032   0.517   3.106   7.185  0.4821 -0.8303 -0.2930
   89CHL1  H19A 9033   0.546   3.196   7.243  1.0718  0.3435 -2.3669
   89CHL1  H19B 9034   0.471   3.160   7.100  1.8556 -2.4428 -2.1051
   89CHL1  H19C 9035   0.443   3.057   7.251  0.6773 -1.0114 -0.2065
   89CHL1    C1 9036   0.762   3.103   7.080 -0.2768  0.1005 -0.4583
   89CHL1   H1A 9037   0.779   3.183   7.154 -3.6626  1.4544 -1.0774
   89CHL1   H1B 9038   0.840   3.025   7.090 -0.2861 -0.0864 -1.7565
   89CHL1    C2 9039   0.730   3.161   6.943  0.4792  0.3635 -0.8664
   89CHL1   H2A 9040   0.813   3.226   6.906 -0.9185  0.4201 -4.0480
   89CHL1   H2B 9041   0.644   3.230   6.951 -0.6903 -1.3597  1.9923
   89CHL1   C20 9042   0.656   2.782   7.824 -0.2012 -0.4294  0.2813
   89CHL1   H20 9043   0.548   2.785   7.850  0.5540 -0.3559  3.5849
   89CHL1   C21 9044   0.718   2.921   7.867 -0.3111  0.7586  0.1769
   89CHL1  H21A 9045   0.670   3.000   7.806  0.7987  0.6711 -0.8350
   89CHL1  H21B 9046   0.824   2.924   7.833 -0.2703 -0.5110  0.1491
   89CHL1  H21C 9047   0.721   2.943   7.976 -1.7593 -1.5053  0.7215
   89CHL1   C22 9048   0.707   2.675   7.923  0.1344  0.0072  0.1512
   89CHL1  H22A 9049   0.687   2.581   7.868 -0.0841  0.3971 -0.4334
   89CHL1  H22B 9050   0.818   2.687   7.923 -0.0015  1.5989  1.4416
   89CHL1   C23 9051   0.651   2.686   8.070  0.3870  0.1311  0.5960
   89CHL1  H23A 9052   0.717   2.622   8.132 -0.1436  0.0967  1.1229
   89CHL1  H23B 9053   0.656   2.790   8.110 -1.8734 -0.1428  1.6248
   89CHL1   C24 9054   0.502   2.650   8.085  0.0158  0.1135 -0.4173
   89CHL1  H24A 9055   0.449   2.734   8.036  1.3386  0.8737 -0.5602
   89CHL1  H24B 9056   0.491   2.552   8.033 -0.8675 -0.7490  1.3304
   89CHL1   C25 9057   0.452   2.620   8.231 -0.1912 -0.0001  0.5886
   89CHL1   H25 9058   0.499   2.522   8.252 -0.5160 -0.6182 -1.5317
   89CHL1   C26 9059   0.490   2.712   8.345  0.4056  0.1317  0.6643
   89CHL1  H26A 9060   0.599   2.736   8.347  0.4193  0.0235  1.4193
   89CHL1  H26B 9061   0.429   2.804   8.340  0.2745  0.0465  0.6810
   89CHL1  H26C 9062   0.468   2.653   8.437  0.9029 -2.0598 -0.5775
   89CHL1   C27 9063   0.301   2.600   8.234  0.7703  0.6726  0.4023
   89CHL1  H27A 9064   0.246   2.691   8.201 -0.2274  0.2604  0.9168
   89CHL1  H27B 9065   0.277   2.524   8.157 -0.8480  3.5636 -2.0519
   89CHL1  H27C 9066   0.266   2.570   8.335 -1.2141 -0.1789 -0.5104
   90CHL1    C3 9067   0.222   5.362   7.074  0.6736 -0.0540 -0.4959
   90CHL1    H3 9068   0.317   5.314   7.105  1.1374  3.2153  3.5197
   90CHL1    O3 9069   0.195   5.359   6.933  0.2585 -1.1356 -0.3780
   90CHL1   H3' 9070   0.112   5.407   6.933  1.4325  1.2106 -5.3256
   90CHL1    C4 9071   0.092   5.310   7.146 -0.1495  0.1751 -0.0752
   90CHL1   H4A 9072  -0.001   5.369   7.147  0.1955  0.7199  0.6570
   90CHL1   H4B 9073   0.063   5.217   7.093 -0.4092  1.7167 -2.7257
   90CHL1    C5 9074   0.123   5.297   7.292 -0.2032  0.4719  0.6295
   90CHL1    C6 9075   0.125   5.178   7.346  0.2762  0.3666 -0.6845
   90CHL1    H6 9076   0.092   5.090   7.290  1.1162 -0.5931  0.3026
   90CHL1    C7 9077   0.133   5.157   7.494 -0.1032 -0.8094  0.1357
   90CHL1   H7A 9078   0.047   5.093   7.523 -1.1840  0.1501 -0.9111
   90CHL1   H7B 9079   0.235   5.116   7.503  0.7395  0.5116 -2.8778
   90CHL1    C8 9080   0.151   5.283   7.576  0.9683 -0.2616  0.5677
   90CHL1    H8 9081   0.047   5.319   7.589  1.6302  1.5134  1.1150
   90CHL1   C14 9082   0.208   5.264   7.713 -0.6062 -0.7166  0.1613
   90CHL1   H14 9083   0.316   5.240   7.708 -0.2066  0.9530  0.2432
   90CHL1   C15 9084   0.144   5.150   7.799  0.6813 -0.4105  0.2102
   90CHL1  H15A 9085   0.035   5.163   7.787  1.0412  2.1647 -0.6103
   90CHL1  H15B 9086   0.186   5.051   7.773 -0.5171 -0.6560 -0.8610
   90CHL1   C16 9087   0.176   5.199   7.942  0.7344 -0.9066 -0.3793
   90CHL1  H16A 9088   0.077   5.205   7.993 -0.4356 -0.6390 -2.6278
   90CHL1  H16B 9089   0.221   5.116   8.001  1.2482 -0.8089 -0.6344
   90CHL1   C17 9090   0.254   5.338   7.933  0.1971  0.5260  0.4848
   90CHL1   H17 9091   0.363   5.319   7.917  0.5679  2.1400  1.0010
   90CHL1   C13 9092   0.199   5.393   7.798 -0.9106  0.0989 -0.3718
   90CHL1   C18 9093   0.055   5.446   7.811  0.4783 -0.1393  0.0483
   90CHL1  H18A 9094   0.029   5.507   7.722 -1.6679 -1.3863 -0.2047
   90CHL1  H18B 9095  -0.020   5.365   7.806 -0.6156  0.8488  0.0335
   90CHL1  H18C 9096   0.048   5.506   7.905  0.1434 -0.8684  0.4872
   90CHL1   C12 9097   0.296   5.494   7.733 -0.0017 -0.1117  1.0169
   90CHL1  H12A 9098   0.291   5.594   7.783 -0.3416  0.3858  0.0062
   90CHL1  H12B 9099   0.397   5.450   7.735 -0.5001 -1.6042 -3.1254
   90CHL1   C11 9100   0.257   5.527   7.586 -0.1490 -0.2495 -1.0087
   90CHL1  H11A 9101   0.171   5.597   7.590  0.5911  0.6314 -0.2696
   90CHL1  H11B 9102   0.334   5.587   7.531 -1.6015 -0.7212 -3.6243
   90CHL1    C9 9103   0.222   5.395   7.501 -0.1273  0.1953 -0.3376
   90CHL1    H9 9104   0.317   5.344   7.477 -1.4601 -3.8617  2.5858
   90CHL1   C10 9105   0.156   5.419   7.364  0.0991  0.1768 -0.8019
   90CHL1   C19 9106   0.024   5.508   7.390 -0.1242 -0.0548 -0.3326
   90CHL1  H19A 9107   0.056   5.606   7.433 -1.2029 -1.0379  2.9123
   90CHL1  H19B 9108  -0.024   5.536   7.294 -3.8247  0.0859  1.4658
   90CHL1  H19C 9109  -0.041   5.462   7.468  0.8060  0.5515  0.8341
   90CHL1    C1 9110   0.252   5.511   7.285  0.3518  0.5419  0.4320
   90CHL1   H1A 9111   0.249   5.617   7.318 -2.3958  0.7082 -0.2463
   90CHL1   H1B 9112   0.356   5.475   7.298  0.2620  0.6929  1.5835
   90CHL1    C2 9113   0.240   5.505   7.133 -0.0779 -0.6722 -0.2697
   90CHL1   H2A 9114   0.330   5.548   7.084 -0.8687 -1.3417 -2.3294
   90CHL1   H2B 9115   0.149   5.562   7.105  0.3449  0.6854  1.0208
   90CHL1   C20 9116   0.261   5.428   8.061 -0.2514 -0.4739  0.4052
   90CHL1   H20 9117   0.172   5.494   8.059  1.2492  1.5688 -0.3033
   90CHL1   C21 9118   0.393   5.516   8.057  0.2199  0.3191 -0.2692
   90CHL1  H21A 9119   0.429   5.547   8.157  2.2323  1.8354 -1.4118
   90CHL1  H21B 9120   0.379   5.608   7.996  0.5786  0.0810 -0.7220
   90CHL1  H21C 9121   0.479   5.462   8.011 -1.5244 -1.3384 -1.6430
   90CHL1   C22 9122   0.248   5.357   8.196 -1.0096  0.2204  0.4432
   90CHL1  H22A 9123   0.309   5.264   8.199  1.9642  2.1056  1.4343
   90CHL1  H22B 9124   0.298   5.421   8.271 -0.2469 -1.2162  1.1835
   90CHL1   C23 9125   0.110   5.328   8.247  0.7141  0.2839  0.2144
   90CHL1  H23A 9126   0.046   5.416   8.229  0.1302 -0.1658  0.0550
   90CHL1  H23B 9127   0.059   5.239   8.203  1.0913 -0.3895  1.1353
   90CHL1   C24 9128   0.115   5.303   8.399 -0.0779 -0.2195 -0.2655
   90CHL1  H24A 9129   0.177   5.212   8.419  1.2163  0.6354 -0.2984
   90CHL1  H24B 9130   0.160   5.396   8.440 -0.6675  0.2932 -0.7937
   90CHL1   C25 9131  -0.029   5.295   8.461  0.4824 -0.1695 -0.0169
   90CHL1   H25 9132  -0.088   5.383   8.426  0.5732  0.1052  0.5046
   90CHL1   C26 9133  -0.111   5.172   8.410  0.1029 -0.2285 -0.3031
   90CHL1  H26A 9134  -0.213   5.177   8.455 -0.3689  1.6718 -1.5006
   90CHL1  H26B 9135  -0.110   5.165   8.299  1.0254  0.7173 -0.3678
   90CHL1  H26C 9136  -0.058   5.085   8.453 -0.3496 -0.6557 -0.5946
   90CHL1   C27 9137  -0.024   5.304   8.610  0.5836  0.5290 -0.8126
   90CHL1  H27A 9138   0.006   5.407   8.640 -0.3257  1.3742 -2.7317
   90CHL1  H27B 9139  -0.126   5.290   8.650  0.7761 -0.4703 -0.6631
   90CHL1  H27C 9140   0.025   5.228   8.675  0.9969  0.9881 -0.5821
   91CHL1    C3 9141   1.540   6.189   7.380  0.5546 -0.0046  0.1645
   91CHL1    H3 9142   1.488   6.286   7.370 -1.6943 -1.0806  0.9547
   91CHL1    O3 9143   1.590   6.156   7.252  0.3951 -0.6845 -0.5411
   91CHL1   H3' 9144   1.509   6.131   7.206  0.7376  0.4097 -1.7829
   91CHL1    C4 9145   1.661   6.208   7.478  0.0178 -0.1411 -0.8507
   91CHL1   H4A 9146   1.716   6.112   7.481 -0.9177 -0.6822 -0.7822
   91CHL1   H4B 9147   1.738   6.280   7.443  0.7094  1.1200  3.0645
   91CHL1    C5 9148   1.614   6.251   7.614 -0.4832 -0.0637  0.0353
   91CHL1    C6 9149   1.651   6.362   7.674  0.0197  0.5564  0.6249
   91CHL1    H6 9150   1.715   6.424   7.609  0.1523 -0.9830 -0.7300
   91CHL1    C7 9151   1.609   6.405   7.811 -0.1919  0.1594 -0.2693
   91CHL1   H7A 9152   1.700   6.440   7.865 -1.4704  0.9753  1.3960
   91CHL1   H7B 9153   1.542   6.493   7.804  3.6069  3.1317 -0.8820
   91CHL1    C8 9154   1.554   6.290   7.896  0.1844 -0.1772 -0.3590
   91CHL1    H8 9155   1.633   6.218   7.928  1.2943 -0.1112 -2.8163
   91CHL1   C14 9156   1.482   6.350   8.016 -0.1894 -0.3104 -0.3309
   91CHL1   H14 9157   1.406   6.418   7.972 -0.7215 -0.7999 -0.1786
   91CHL1   C15 9158   1.570   6.437   8.100  0.0586  0.3137 -0.5223
   91CHL1  H15A 9159   1.666   6.383   8.117 -1.4600 -2.7497 -1.3659
   91CHL1  H15B 9160   1.590   6.535   8.052 -0.2073  0.2937 -0.6742
   91CHL1   C16 9161   1.488   6.445   8.225  0.6918  0.3821  0.4858
   91CHL1  H16A 9162   1.545   6.405   8.312 -0.1514  1.3370  1.4977
   91CHL1  H16B 9163   1.452   6.549   8.238 -2.0186 -0.6884  1.8588
   91CHL1   C17 9164   1.365   6.355   8.209 -0.3491 -0.0215 -0.1252
   91CHL1   H17 9165   1.283   6.416   8.165 -0.9291  1.0113  2.3418
   91CHL1   C13 9166   1.414   6.250   8.107  0.2050  0.1257  0.9726
   91CHL1   C18 9167   1.509   6.152   8.176  0.4309  0.2199  0.4770
   91CHL1  H18A 9168   1.556   6.092   8.096  0.0379 -1.6163  1.5874
   91CHL1  H18B 9169   1.592   6.190   8.240  0.0320 -0.6547  1.5446
   91CHL1  H18C 9170   1.444   6.078   8.227 -2.7479  0.9998 -2.3001
   91CHL1   C12 9171   1.320   6.172   8.012  0.3599 -0.8803 -0.1813
   91CHL1  H12A 9172   1.262   6.095   8.066 -1.2629 -0.3769 -1.1582
   91CHL1  H12B 9173   1.257   6.257   7.976  0.5028 -1.5150 -1.9601
   91CHL1   C11 9174   1.374   6.109   7.884 -0.1305 -0.3192  0.3854
   91CHL1  H11A 9175   1.432   6.017   7.907 -0.8538 -0.7120  0.6741
   91CHL1  H11B 9176   1.280   6.084   7.829  0.6967 -2.6292 -0.0483
   91CHL1    C9 9177   1.456   6.210   7.803  0.3095 -0.0259 -0.0162
   91CHL1    H9 9178   1.385   6.292   7.778 -2.5366 -2.1094  0.8413
   91CHL1   C10 9179   1.513   6.145   7.674 -0.2999 -0.0663 -0.2305
   91CHL1   C19 9180   1.599   6.019   7.711 -0.0474 -0.2411  0.2467
   91CHL1  H19A 9181   1.645   6.034   7.811  1.3213 -0.0594 -0.3967
   91CHL1  H19B 9182   1.542   5.924   7.717  1.1916 -1.0759 -1.0056
   91CHL1  H19C 9183   1.692   6.011   7.651 -0.0972  1.5313 -0.0960
   91CHL1    C1 9184   1.393   6.107   7.574  0.1363  0.4222 -0.7081
   91CHL1   H1A 9185   1.334   6.024   7.620  1.4305  0.1429  0.4629
   91CHL1   H1B 9186   1.320   6.191   7.571  1.1839  1.3154 -1.5004
   91CHL1    C2 9187   1.443   6.080   7.435  0.1134 -0.2163  0.0951
   91CHL1   H2A 9188   1.349   6.073   7.376  1.0816 -1.7629 -1.2988
   91CHL1   H2B 9189   1.483   5.976   7.442 -3.0312 -1.4156  1.3804
   91CHL1   C20 9190   1.312   6.299   8.341 -0.4931  0.5831  0.1692
   91CHL1   H20 9191   1.377   6.219   8.382  0.4752  0.6369 -1.2469
   91CHL1   C21 9192   1.167   6.257   8.315  0.0935  0.1403  0.7210
   91CHL1  H21A 9193   1.146   6.209   8.217 -5.3912 -1.3454  2.4200
   91CHL1  H21B 9194   1.114   6.355   8.311  0.5665  0.3328 -1.5848
   91CHL1  H21C 9195   1.128   6.196   8.399 -1.3186 -0.3273 -0.2328
   91CHL1   C22 9196   1.301   6.405   8.456  0.3027  0.4872  0.2866
   91CHL1  H22A 9197   1.401   6.418   8.503  0.1600 -0.0393  0.7335
   91CHL1  H22B 9198   1.274   6.505   8.417  0.9117  0.6884  0.3734
   91CHL1   C23 9199   1.203   6.383   8.578 -0.5657 -0.4781 -0.2744
   91CHL1  H23A 9200   1.100   6.377   8.537 -0.0895 -0.2713 -1.5223
   91CHL1  H23B 9201   1.240   6.284   8.613  3.4314  0.4271 -1.7007
   91CHL1   C24 9202   1.211   6.496   8.680 -0.4470  0.0187 -0.3093
   91CHL1  H24A 9203   1.294   6.463   8.747 -2.6740  0.2035  2.6141
   91CHL1  H24B 9204   1.223   6.595   8.631  2.0248 -0.6818 -1.2086
   91CHL1   C25 9205   1.093   6.497   8.781  0.1607 -0.2694  0.4813
   91CHL1   H25 9206   1.105   6.586   8.845  0.9737  0.9473 -1.3118
   91CHL1   C26 9207   0.955   6.517   8.716 -0.6596 -0.1066  0.7753
   91CHL1  H26A 9208   0.964   6.615   8.664  0.0712 -1.4775 -1.7288
   91CHL1  H26B 9209   0.920   6.443   8.641 -1.7631 -0.4528  1.6046
   91CHL1  H26C 9210   0.873   6.515   8.792 -1.2798  0.3334  0.1215
   91CHL1   C27 9211   1.090   6.371   8.874  0.0903  0.0456  0.1335
   91CHL1  H27A 9212   1.021   6.377   8.961 -0.3192  1.2171 -0.2689
   91CHL1  H27B 9213   1.072   6.287   8.804 -0.2550  1.4797 -1.5498
   91CHL1  H27C 9214   1.187   6.349   8.923 -1.6641 -0.0087  3.6959
   92CHL1    C3 9215   4.293   1.683   6.892  0.4816 -0.1664  1.0985
   92CHL1    H3 9216   4.190   1.644   6.879  0.6149 -0.0019 -0.6252
   92CHL1    O3 9217   4.340   1.707   6.758 -0.4478  0.1925  0.0067
   92CHL1   H3' 9218   4.429   1.739   6.770 -0.4654  0.4534 -0.5734
   92CHL1    C4 9219   4.300   1.815   6.974 -0.2885  0.0452 -0.7204
   92CHL1   H4A 9220   4.398   1.868   6.971  0.1143 -0.5767  0.7467
   92CHL1   H4B 9221   4.230   1.886   6.926 -2.1728  0.1003  1.9863
   92CHL1    C5 9222   4.267   1.786   7.125 -0.6824  0.2888 -0.0085
   92CHL1    C6 9223   4.165   1.854   7.187  0.1944 -0.6261  0.6565
   92CHL1    H6 9224   4.116   1.942   7.141 -0.2046 -0.2742  1.7313
   92CHL1    C7 9225   4.136   1.836   7.334 -0.4741  0.4322 -0.0601
   92CHL1   H7A 9226   4.117   1.937   7.376 -0.3755  0.5541 -0.3061
   92CHL1   H7B 9227   4.043   1.777   7.347  0.1713 -1.1335 -2.2938
   92CHL1    C8 9228   4.255   1.771   7.406 -0.2959 -0.5253 -0.0451
   92CHL1    H8 9229   4.329   1.854   7.414 -0.2910 -0.2589 -2.4081
   92CHL1   C14 9230   4.208   1.735   7.547  0.3995 -0.5458 -0.3565
   92CHL1   H14 9231   4.129   1.658   7.533 -1.2538  0.9443  0.5641
   92CHL1   C15 9232   4.140   1.849   7.625  0.5742 -0.1413  0.7838
   92CHL1  H15A 9233   4.173   1.954   7.615 -0.4097  0.0216 -0.9740
   92CHL1  H15B 9234   4.030   1.853   7.606  0.6814  0.3072  0.2391
   92CHL1   C16 9235   4.158   1.799   7.768 -0.2642  0.7063 -0.1130
   92CHL1  H16A 9236   4.230   1.870   7.815 -0.2877  1.0809 -0.6486
   92CHL1  H16B 9237   4.066   1.809   7.830 -1.1942  3.7978 -1.8701
   92CHL1   C17 9238   4.231   1.662   7.765 -0.2176 -0.0408  0.0103
   92CHL1   H17 9239   4.166   1.572   7.758  1.9913 -1.6425 -0.3152
   92CHL1   C13 9240   4.312   1.665   7.636  0.0416 -0.1625 -0.6899
   92CHL1   C18 9241   4.432   1.764   7.655  0.2780 -0.0735  0.2177
   92CHL1  H18A 9242   4.518   1.713   7.705 -0.2521 -1.9837 -0.7753
   92CHL1  H18B 9243   4.474   1.797   7.557  0.6242  0.9062  0.6940
   92CHL1  H18C 9244   4.414   1.854   7.718  0.9245 -2.2195  3.5900
   92CHL1   C12 9245   4.335   1.530   7.561  0.6626 -0.2506 -0.3553
   92CHL1  H12A 9246   4.404   1.456   7.608  0.0191 -0.2594  0.6044
   92CHL1  H12B 9247   4.247   1.463   7.553  0.7412 -0.4353  0.2969
   92CHL1   C11 9248   4.397   1.559   7.425  0.5201  0.2202 -0.6242
   92CHL1  H11A 9249   4.489   1.621   7.431  0.3336  0.2788  3.1647
   92CHL1  H11B 9250   4.421   1.462   7.376  0.3248  0.5343 -1.3462
   92CHL1    C9 9251   4.304   1.643   7.336 -0.3944  0.1218  0.0310
   92CHL1    H9 9252   4.214   1.578   7.325 -1.4673  1.4676  0.7283
   92CHL1   C10 9253   4.348   1.674   7.192 -0.4476  0.3389 -0.0970
   92CHL1   C19 9254   4.495   1.714   7.196  1.1691  0.0136  0.0146
   92CHL1  H19A 9255   4.539   1.751   7.101  1.3234  0.1501  0.1391
   92CHL1  H19B 9256   4.507   1.801   7.265  2.3491 -0.5706  0.5489
   92CHL1  H19C 9257   4.556   1.630   7.236 -1.0715 -0.9418  1.5295
   92CHL1    C1 9258   4.326   1.544   7.104 -0.1035  0.2886 -0.2780
   92CHL1   H1A 9259   4.393   1.468   7.150  0.1491  1.0563  0.6523
   92CHL1   H1B 9260   4.220   1.513   7.109 -0.4199  1.4169  0.2242
   92CHL1    C2 9261   4.361   1.562   6.959  0.0807 -0.6825 -0.3556
   92CHL1   H2A 9262   4.338   1.467   6.907  1.0496 -1.8328  1.2696
   92CHL1   H2B 9263   4.471   1.579   6.963  0.2757 -1.8391 -0.6366
   92CHL1   C20 9264   4.311   1.643   7.900 -0.6599 -0.7781  0.3224
   92CHL1   H20 9265   4.373   1.735   7.915 -4.1911  1.4617  1.6574
   92CHL1   C21 9266   4.398   1.514   7.881 -0.9818 -0.2255 -0.0704
   92CHL1  H21A 9267   4.344   1.423   7.846 -0.7319 -1.0648  1.6414
   92CHL1  H21B 9268   4.442   1.476   7.976  1.0814 -0.1208 -0.9708
   92CHL1  H21C 9269   4.482   1.543   7.815 -1.3642 -1.1322 -0.9761
   92CHL1   C22 9270   4.205   1.637   8.012 -0.1526 -0.2448  0.0385
   92CHL1  H22A 9271   4.136   1.724   8.014 -1.2245 -1.0974  2.9018
   92CHL1  H22B 9272   4.135   1.554   7.990 -0.2319 -0.6620  1.7985
   92CHL1   C23 9273   4.267   1.623   8.154 -0.2714  0.1219 -1.4844
   92CHL1  H23A 9274   4.312   1.521   8.162  0.9140  0.5794 -2.1604
   92CHL1  H23B 9275   4.355   1.689   8.168 -0.9476  0.1020  3.9781
   92CHL1   C24 9276   4.161   1.642   8.268 -0.0158  0.4685 -0.0499
   92CHL1  H24A 9277   4.139   1.751   8.269  0.4587  0.6492 -3.5415
   92CHL1  H24B 9278   4.073   1.583   8.236 -0.5105  1.0646  0.2042
   92CHL1   C25 9279   4.206   1.589   8.410  0.8338 -0.0020 -0.1803
   92CHL1   H25 9280   4.270   1.498   8.402 -0.6418 -1.0320 -0.5180
   92CHL1   C26 9281   4.294   1.685   8.490 -0.0645  0.3520 -0.3612
   92CHL1  H26A 9282   4.386   1.712   8.435  0.2228  1.6274  0.7001
   92CHL1  H26B 9283   4.252   1.786   8.509  0.3710  0.3274  0.7774
   92CHL1  H26C 9284   4.317   1.635   8.587 -0.5450  0.5622 -0.1375
   92CHL1   C27 9285   4.079   1.556   8.488 -0.3867 -0.1911  0.1616
   92CHL1  H27A 9286   4.034   1.463   8.448  1.9930 -2.3210  2.3074
   92CHL1  H27B 9287   4.117   1.539   8.591  0.9191  0.5561 -0.1822
   92CHL1  H27C 9288   4.012   1.645   8.480  0.0843  0.1998  0.5316
   93CHL1    C3 9289   2.945   5.982   6.957  0.0519  0.0842  0.1109
   93CHL1    H3 9290   2.925   6.089   6.981  1.0438  0.2433  0.2840
   93CHL1    O3 9291   2.937   5.988   6.817  0.5215 -0.1645  0.1522
   93CHL1   H3' 9292   2.962   5.898   6.793 -0.2321 -0.7321  1.4546
   93CHL1    C4 9293   3.083   5.946   6.991  0.3478 -0.5244  0.1354
   93CHL1   H4A 9294   3.109   5.849   6.944 -2.6233 -1.2166 -0.1179
   93CHL1   H4B 9295   3.144   6.031   6.953 -0.7438  0.3832  0.3903
   93CHL1    C5 9296   3.102   5.944   7.137 -0.3621  0.3560 -0.3148
   93CHL1    C6 9297   3.201   6.019   7.198 -0.8148  0.8165 -0.3486
   93CHL1    H6 9298   3.269   6.077   7.133 -0.0305  1.4616  1.0210
   93CHL1    C7 9299   3.229   6.024   7.347  0.4597 -0.5010  0.3561
   93CHL1   H7A 9300   3.338   6.021   7.365  0.0815 -3.1526  2.3367
   93CHL1   H7B 9301   3.201   6.126   7.382 -0.1667 -0.5608  0.0480
   93CHL1    C8 9302   3.159   5.916   7.425  0.2746  0.0124 -0.1582
   93CHL1    H8 9303   3.217   5.827   7.394 -0.3644 -1.0867  1.7182
   93CHL1   C14 9304   3.164   5.935   7.572 -0.8358  0.7814 -0.6679
   93CHL1   H14 9305   3.104   6.024   7.602 -0.2245 -0.0294  3.2660
   93CHL1   C15 9306   3.300   5.961   7.637 -0.3861 -1.0367 -0.9518
   93CHL1  H15A 9307   3.368   5.887   7.589  0.6024 -1.8446  1.6228
   93CHL1  H15B 9308   3.342   6.063   7.623  0.7588 -1.1030  1.8494
   93CHL1   C16 9309   3.292   5.933   7.784  0.3895 -0.1333 -0.0848
   93CHL1  H16A 9310   3.359   5.849   7.813  1.0238  0.1330 -0.7548
   93CHL1  H16B 9311   3.327   6.021   7.842  3.6579 -1.4532  0.0636
   93CHL1   C17 9312   3.148   5.884   7.798  0.2702 -0.1530 -0.2234
   93CHL1   H17 9313   3.086   5.976   7.797  1.1098  0.4135 -1.6322
   93CHL1   C13 9314   3.110   5.826   7.659  0.8509 -0.3330 -0.4490
   93CHL1   C18 9315   3.179   5.682   7.646 -0.7637 -0.4202  0.3978
   93CHL1  H18A 9316   3.177   5.648   7.540  1.8696 -1.1906  0.5538
   93CHL1  H18B 9317   3.286   5.688   7.677 -0.7715 -0.5720  0.4517
   93CHL1  H18C 9318   3.137   5.605   7.714  1.9209 -1.8626  0.5058
   93CHL1   C12 9319   2.962   5.820   7.615 -0.0596 -0.1998  0.2942
   93CHL1  H12A 9320   2.913   5.740   7.675 -0.5772 -0.9981 -1.1802
   93CHL1  H12B 9321   2.915   5.918   7.638 -1.8047 -1.2417  1.2877
   93CHL1   C11 9322   2.938   5.798   7.467 -0.1975  0.2160  0.3953
   93CHL1  H11A 9323   2.978   5.697   7.443  0.1372  0.3383  0.4396
   93CHL1  H11B 9324   2.829   5.804   7.442  0.3674  2.1323 -1.7888
   93CHL1    C9 9325   3.018   5.899   7.373 -0.0415 -0.7460 -0.2744
   93CHL1    H9 9326   2.962   5.995   7.386  0.2357 -0.7992  1.3486
   93CHL1   C10 9327   3.006   5.865   7.218 -0.0192 -0.4202  0.7035
   93CHL1   C19 9328   3.041   5.716   7.192  0.2543 -0.2526 -0.3827
   93CHL1  H19A 9329   2.961   5.648   7.229  0.5443 -1.5119 -1.9951
   93CHL1  H19B 9330   3.053   5.704   7.082  1.7537  1.6038 -0.4460
   93CHL1  H19C 9331   3.138   5.700   7.244  0.2846  2.6162  0.5062
   93CHL1    C1 9332   2.860   5.892   7.172 -0.5869  0.3323  0.6242
   93CHL1   H1A 9333   2.787   5.827   7.224 -1.0337  0.3627  0.0393
   93CHL1   H1B 9334   2.830   5.992   7.211 -0.3016  1.4852 -2.0369
   93CHL1    C2 9335   2.841   5.894   7.024  0.5774 -0.2093  0.2910
   93CHL1   H2A 9336   2.738   5.933   7.008  1.1243  1.5893  1.0595
   93CHL1   H2B 9337   2.840   5.794   6.975 -0.7145  0.3350 -0.8276
   93CHL1   C20 9338   3.113   5.812   7.926 -0.4356  0.6336  0.7280
   93CHL1   H20 9339   3.011   5.770   7.916  0.7128 -1.8645 -1.0062
   93CHL1   C21 9340   3.101   5.923   8.031  0.2491 -0.6689 -0.6267
   93CHL1  H21A 9341   3.024   5.993   7.991 -0.5514 -1.4380 -0.4686
   93CHL1  H21B 9342   3.196   5.978   8.048 -0.9945  1.8825 -1.7035
   93CHL1  H21C 9343   3.070   5.883   8.130  0.4749 -0.1997 -0.3657
   93CHL1   C22 9344   3.206   5.697   7.965 -0.6303 -0.1752 -0.5409
   93CHL1  H22A 9345   3.234   5.617   7.894  1.7702  0.4602 -0.3313
   93CHL1  H22B 9346   3.295   5.747   8.008  0.2056 -2.4437  0.4336
   93CHL1   C23 9347   3.147   5.631   8.086  0.2409  0.4113 -0.2517
   93CHL1  H23A 9348   3.112   5.697   8.168  0.2247 -0.0559  0.1150
   93CHL1  H23B 9349   3.053   5.579   8.059 -0.5145  1.5082  0.2139
   93CHL1   C24 9350   3.248   5.535   8.146  1.0239 -0.4137 -0.4093
   93CHL1  H24A 9351   3.238   5.436   8.096 -2.0460  0.6379 -1.9989
   93CHL1  H24B 9352   3.348   5.575   8.122  0.3569 -0.0227 -2.5960
   93CHL1   C25 9353   3.252   5.519   8.300  0.0449 -0.2879  0.3991
   93CHL1   H25 9354   3.264   5.618   8.349 -1.7223  0.5778 -0.8726
   93CHL1   C26 9355   3.121   5.461   8.348 -0.6087 -0.9768 -0.1009
   93CHL1  H26A 9356   3.105   5.458   8.458 -0.4959  2.4597  0.0625
   93CHL1  H26B 9357   3.038   5.528   8.317  2.3174  2.3099 -1.0497
   93CHL1  H26C 9358   3.104   5.361   8.302 -2.3323  0.2132 -2.1415
   93CHL1   C27 9359   3.374   5.432   8.343  0.0538  0.4970 -0.5161
   93CHL1  H27A 9360   3.464   5.497   8.339 -1.3764  2.5764  0.4873
   93CHL1  H27B 9361   3.360   5.395   8.447 -2.4211 -0.3994 -1.1341
   93CHL1  H27C 9362   3.395   5.339   8.285 -1.4252 -0.4474  0.4335
   94CHL1    C3 9363   5.393   2.341   6.914  0.1651 -0.7081 -0.0931
   94CHL1    H3 9364   5.496   2.374   6.938  0.3734 -0.7738 -0.8742
   94CHL1    O3 9365   5.389   2.341   6.775  0.2090 -0.7818  0.4946
   94CHL1   H3' 9366   5.367   2.432   6.754 -2.0075 -1.1636  1.0143
   94CHL1    C4 9367   5.376   2.201   6.985  0.8386  0.3528 -0.3500
   94CHL1   H4A 9368   5.290   2.149   6.938  2.0192 -0.5403 -1.5839
   94CHL1   H4B 9369   5.469   2.154   6.947  2.4758 -0.4741  4.3370
   94CHL1    C5 9370   5.358   2.196   7.134 -0.1226 -0.2502  0.7370
   94CHL1    C6 9371   5.439   2.124   7.213  0.2356 -0.0607 -0.4316
   94CHL1    H6 9372   5.516   2.063   7.164  1.1789  0.0538  0.8747
   94CHL1    C7 9373   5.428   2.120   7.371 -0.4780  0.4329  0.4810
   94CHL1   H7A 9374   5.462   2.032   7.429 -0.9657 -0.2079 -0.1897
   94CHL1   H7B 9375   5.499   2.197   7.408 -1.7511  2.1605 -0.5753
   94CHL1    C8 9376   5.287   2.172   7.414  0.0875 -0.4330  0.0318
   94CHL1    H8 9377   5.216   2.093   7.382 -0.0765 -0.1397 -0.3222
   94CHL1   C14 9378   5.290   2.200   7.566  0.2109 -0.4659  0.5325
   94CHL1   H14 9379   5.374   2.272   7.573 -0.2763  0.3085 -1.2595
   94CHL1   C15 9380   5.317   2.083   7.663  0.4559 -0.0983  0.8096
   94CHL1  H15A 9381   5.254   1.992   7.657  1.6670 -0.7979 -1.8246
   94CHL1  H15B 9382   5.425   2.056   7.669  0.2704 -1.0904 -0.2507
   94CHL1   C16 9383   5.279   2.141   7.794  0.1309 -0.2077 -0.4304
   94CHL1  H16A 9384   5.227   2.064   7.855 -1.8173  1.7076  0.3786
   94CHL1  H16B 9385   5.374   2.175   7.842 -0.9243  3.8768 -1.0462
   94CHL1   C17 9386   5.184   2.262   7.769 -0.6217 -0.0462 -0.6241
   94CHL1   H17 9387   5.245   2.348   7.805 -3.0697  1.6993 -0.4655
   94CHL1   C13 9388   5.163   2.264   7.619  0.1023 -0.6312  0.0719
   94CHL1   C18 9389   5.040   2.168   7.592 -0.1595  0.5123 -0.2322
   94CHL1  H18A 9390   4.943   2.209   7.628 -1.7007 -1.2347 -2.2856
   94CHL1  H18B 9391   5.026   2.145   7.484 -1.7726  1.6191 -0.2905
   94CHL1  H18C 9392   5.050   2.066   7.633 -1.7523 -0.4135 -2.0379
   94CHL1   C12 9393   5.133   2.402   7.550 -0.8275  0.2386  0.0241
   94CHL1  H12A 9394   5.035   2.440   7.586 -1.8709 -2.1769 -0.1215
   94CHL1  H12B 9395   5.213   2.464   7.595 -1.0828 -0.2808  1.2231
   94CHL1   C11 9396   5.136   2.396   7.401  0.2305 -0.0562  0.5919
   94CHL1  H11A 9397   5.052   2.332   7.366  1.3260 -0.5168 -1.2782
   94CHL1  H11B 9398   5.119   2.488   7.342  2.5281 -0.9479 -1.5958
   94CHL1    C9 9399   5.259   2.310   7.341 -0.0586 -0.3726  0.3893
   94CHL1    H9 9400   5.348   2.374   7.361  1.4408 -1.0676 -3.6802
   94CHL1   C10 9401   5.250   2.301   7.183 -0.1807  0.0488  0.1965
   94CHL1   C19 9402   5.108   2.260   7.133  0.4916 -0.4386 -0.3200
   94CHL1  H19A 9403   5.028   2.334   7.156  3.2311  1.7698  2.5841
   94CHL1  H19B 9404   5.111   2.240   7.024  1.0857 -1.0369 -0.1941
   94CHL1  H19C 9405   5.075   2.171   7.190  1.5705 -0.1282  0.7954
   94CHL1    C1 9406   5.275   2.444   7.119  0.5362 -0.4516 -0.7696
   94CHL1   H1A 9407   5.191   2.511   7.147  1.2628  1.1342 -2.3706
   94CHL1   H1B 9408   5.366   2.485   7.168  0.2372 -0.2045 -0.4150
   94CHL1    C2 9409   5.284   2.447   6.968 -0.3479 -0.3926 -0.4155
   94CHL1   H2A 9410   5.301   2.553   6.939 -0.9629 -0.4534 -1.0188
   94CHL1   H2B 9411   5.179   2.437   6.932  0.4993  1.4712 -3.5999
   94CHL1   C20 9412   5.058   2.275   7.859  0.0238  0.3232  0.4923
   94CHL1   H20 9413   4.996   2.184   7.843 -1.2199  1.0830  0.9494
   94CHL1   C21 9414   4.976   2.400   7.830  0.0779 -0.2781  1.0790
   94CHL1  H21A 9415   4.911   2.388   7.740 -1.4624  0.2148  2.1007
   94CHL1  H21B 9416   5.040   2.490   7.817  0.6636 -0.6952  1.0724
   94CHL1  H21C 9417   4.908   2.411   7.917  1.0034  0.2297  1.7384
   94CHL1   C22 9418   5.087   2.269   8.011 -0.1688  0.1847 -0.6042
   94CHL1  H22A 9419   5.185   2.219   8.028 -0.5337  0.0806  1.3817
   94CHL1  H22B 9420   5.111   2.371   8.048  1.0506 -0.9253  1.7797
   94CHL1   C23 9421   4.975   2.199   8.083  0.3158 -0.3899 -0.4460
   94CHL1  H23A 9422   4.877   2.250   8.081  0.3989 -0.1462  1.0606
   94CHL1  H23B 9423   4.960   2.098   8.039 -2.7663 -1.3087  2.5450
   94CHL1   C24 9424   4.987   2.165   8.232 -0.1612  0.6111 -0.8782
   94CHL1  H24A 9425   5.004   2.267   8.273  0.0497 -1.0058  3.3429
   94CHL1  H24B 9426   4.888   2.123   8.260  0.2552  0.3464  0.2534
   94CHL1   C25 9427   5.101   2.065   8.252 -0.2539 -0.0763 -0.5412
   94CHL1   H25 9428   5.188   2.103   8.193  3.1443 -2.2749  2.8038
   94CHL1   C26 9429   5.133   2.051   8.403  0.6832  0.3601 -0.7845
   94CHL1  H26A 9430   5.066   1.989   8.466  0.6160 -0.0005 -1.2042
   94CHL1  H26B 9431   5.224   1.988   8.409 -0.6811 -1.7346 -1.2577
   94CHL1  H26C 9432   5.152   2.141   8.465 -1.3674 -0.7155  1.4912
   94CHL1   C27 9433   5.062   1.924   8.197 -0.5435 -0.1757 -0.4137
   94CHL1  H27A 9434   5.140   1.850   8.225 -0.0052  0.7334  0.5606
   94CHL1  H27B 9435   4.964   1.890   8.237 -1.3732  0.5282 -1.8120
   94CHL1  H27C 9436   5.069   1.920   8.086  1.8802  0.9112 -0.3232
   95CHL1    C3 9437   4.753   1.265   6.609  0.0712 -0.4587  0.2086
   95CHL1    H3 9438   4.747   1.160   6.645  0.5132 -0.7017 -0.4244
   95CHL1    O3 9439   4.697   1.273   6.478  0.2828 -0.1979  0.2007
   95CHL1   H3' 9440   4.602   1.283   6.483  0.2968 -0.3151  0.7634
   95CHL1    C4 9441   4.674   1.368   6.695 -1.0407  0.5127  0.4290
   95CHL1   H4A 9442   4.683   1.472   6.659 -1.1835  0.6553  0.7958
   95CHL1   H4B 9443   4.569   1.335   6.680 -1.1976  0.8702  0.7177
   95CHL1    C5 9444   4.731   1.361   6.836 -1.2412  0.4644 -0.2276
   95CHL1    C6 9445   4.646   1.332   6.933  0.8183 -0.7859 -0.0190
   95CHL1    H6 9446   4.541   1.314   6.908  0.7507 -0.5803  0.1248
   95CHL1    C7 9447   4.679   1.335   7.078 -0.4254 -0.0351  0.6170
   95CHL1   H7A 9448   4.600   1.385   7.138 -1.6945 -0.0853 -0.9785
   95CHL1   H7B 9449   4.690   1.227   7.102 -1.1558 -0.2853 -0.1345
   95CHL1    C8 9450   4.820   1.394   7.112 -0.5758  0.5568 -0.4345
   95CHL1    H8 9451   4.818   1.504   7.103  0.2618  0.6651  0.5086
   95CHL1   C14 9452   4.872   1.345   7.248 -0.3708  0.2098 -0.3102
   95CHL1   H14 9453   4.861   1.235   7.252 -0.6723  0.3013  4.4034
   95CHL1   C15 9454   4.788   1.379   7.374  0.2594 -0.6773 -0.2527
   95CHL1  H15A 9455   4.762   1.486   7.368 -0.9417 -0.6814  3.5983
   95CHL1  H15B 9456   4.692   1.322   7.374 -1.1625  1.5618 -3.4573
   95CHL1   C16 9457   4.891   1.350   7.484 -0.3334 -0.5105 -0.4303
   95CHL1  H16A 9458   4.906   1.446   7.538  0.2977 -1.4588  1.1148
   95CHL1  H16B 9459   4.869   1.272   7.560  0.3764 -1.1330 -0.8628
   95CHL1   C17 9460   5.032   1.311   7.422  0.5712 -0.4216  0.2459
   95CHL1   H17 9461   5.034   1.202   7.403 -1.6726 -0.5425  0.6091
   95CHL1   C13 9462   5.017   1.381   7.281 -0.0940  0.0802  0.1993
   95CHL1   C18 9463   5.032   1.533   7.287 -0.7259  0.9338 -0.3741
   95CHL1  H18A 9464   4.972   1.566   7.374  0.9084  0.7970  0.8219
   95CHL1  H18B 9465   5.136   1.564   7.313  0.0434 -1.0764 -0.9318
   95CHL1  H18C 9466   4.985   1.580   7.198 -2.6117  0.4992  0.3662
   95CHL1   C12 9467   5.114   1.332   7.174 -0.0221  0.2857 -0.0858
   95CHL1  H12A 9468   5.213   1.381   7.189  0.4067 -0.9300  1.1180
   95CHL1  H12B 9469   5.137   1.225   7.192 -1.4126  0.1316  0.7937
   95CHL1   C11 9470   5.080   1.376   7.024  0.1501 -0.2474 -0.3945
   95CHL1  H11A 9471   5.094   1.486   7.017 -1.6294  0.0241 -0.0890
   95CHL1  H11B 9472   5.152   1.334   6.951 -0.0743  0.2404 -0.9010
   95CHL1    C9 9473   4.922   1.346   7.003  0.1103 -0.6455 -0.1863
   95CHL1    H9 9474   4.924   1.237   7.023  1.0228 -0.3425  1.4482
   95CHL1   C10 9475   4.874   1.376   6.858  0.0760  0.0491  0.3950
   95CHL1   C19 9476   4.926   1.517   6.820  0.1044 -0.2591 -0.4373
   95CHL1  H19A 9477   4.899   1.588   6.901 -0.6884 -2.6913  1.5039
   95CHL1  H19B 9478   5.035   1.535   6.808  0.3439 -0.3241  1.4434
   95CHL1  H19C 9479   4.886   1.557   6.725  1.1126  0.2661 -0.6468
   95CHL1    C1 9480   4.957   1.290   6.755 -0.5382  1.3174 -0.6172
   95CHL1   H1A 9481   5.065   1.316   6.761 -0.0235 -1.0773  1.5264
   95CHL1   H1B 9482   4.962   1.182   6.784  0.6628  1.9192  1.5312
   95CHL1    C2 9483   4.906   1.303   6.615 -0.3225  0.2593  0.4890
   95CHL1   H2A 9484   4.958   1.231   6.547 -0.0715  1.1720 -0.3059
   95CHL1   H2B 9485   4.914   1.408   6.580 -0.2580  0.5867  1.4809
   95CHL1   C20 9486   5.149   1.359   7.503 -0.0022 -1.2733  0.2726
   95CHL1   H20 9487   5.154   1.470   7.500 -2.8074 -1.0971  0.8225
   95CHL1   C21 9488   5.281   1.293   7.458  0.2498 -0.0468  0.0721
   95CHL1  H21A 9489   5.365   1.327   7.522 -1.3243  3.3372  0.4535
   95CHL1  H21B 9490   5.303   1.319   7.352 -1.5574 -0.6973 -0.4786
   95CHL1  H21C 9491   5.275   1.183   7.469 -0.8664  0.1066  1.0727
   95CHL1   C22 9492   5.138   1.321   7.649 -0.3283 -0.1567 -0.0479
   95CHL1  H22A 9493   5.035   1.337   7.686 -0.5705 -1.7602  0.0043
   95CHL1  H22B 9494   5.158   1.212   7.655 -0.6638 -0.1845  0.5559
   95CHL1   C23 9495   5.225   1.407   7.738  0.3885  0.0918 -0.4085
   95CHL1  H23A 9496   5.328   1.369   7.721 -1.1152 -4.1782 -0.5074
   95CHL1  H23B 9497   5.217   1.513   7.706  2.2697  0.3549 -0.0696
   95CHL1   C24 9498   5.177   1.400   7.887  0.2475 -0.1158 -0.1291
   95CHL1  H24A 9499   5.158   1.293   7.908 -0.1079 -0.0378 -0.0506
   95CHL1  H24B 9500   5.257   1.439   7.953  0.3163  0.7365 -0.6996
   95CHL1   C25 9501   5.054   1.482   7.923  0.3087  0.0501  0.4712
   95CHL1   H25 9502   4.969   1.481   7.852  0.4636  1.8760  0.2255
   95CHL1   C26 9503   4.993   1.445   8.064  0.0238 -0.2972  0.2967
   95CHL1  H26A 9504   4.884   1.465   8.069  0.0160 -0.8140  2.3107
   95CHL1  H26B 9505   5.016   1.340   8.089 -1.5701 -0.7521 -0.0501
   95CHL1  H26C 9506   5.037   1.511   8.141  0.1166 -0.8488  0.7092
   95CHL1   C27 9507   5.090   1.633   7.923  0.0199  0.2243 -0.8446
   95CHL1  H27A 9508   5.000   1.696   7.939  1.0437  1.4058  0.4522
   95CHL1  H27B 9509   5.165   1.663   7.999  0.3696 -0.6411 -0.8521
   95CHL1  H27C 9510   5.134   1.657   7.823 -0.0753 -0.6366 -1.0992
   96CHL1    C3 9511   5.281   0.310   6.747  0.0644  0.0061  0.7663
   96CHL1    H3 9512   5.220   0.401   6.729  3.2924  1.9489 -0.7500
   96CHL1    O3 9513   5.344   0.276   6.623 -0.5579  0.0111  0.5459
   96CHL1   H3' 9514   5.276   0.300   6.560 -0.4672  1.8190  1.1056
   96CHL1    C4 9515   5.387   0.355   6.846  0.2307  0.0465 -0.1022
   96CHL1   H4A 9516   5.459   0.271   6.853  0.3408 -0.0275 -2.0367
   96CHL1   H4B 9517   5.462   0.428   6.809  0.4924  0.4398  1.1814
   96CHL1    C5 9518   5.338   0.385   6.986  0.2518 -0.6298  0.5284
   96CHL1    C6 9519   5.365   0.503   7.047 -0.2207  0.4808  0.5605
   96CHL1    H6 9520   5.434   0.575   6.999  0.9586 -0.7686  0.3655
   96CHL1    C7 9521   5.307   0.548   7.177 -0.1075 -0.5676  0.6717
   96CHL1   H7A 9522   5.388   0.595   7.237  0.1076 -0.1823  0.0864
   96CHL1   H7B 9523   5.228   0.622   7.154 -0.5212 -0.7948  1.3664
   96CHL1    C8 9524   5.257   0.421   7.254  0.5196  0.0004 -0.0573
   96CHL1    H8 9525   5.338   0.361   7.300 -0.7275 -1.2768  0.4949
   96CHL1   C14 9526   5.170   0.468   7.374 -0.3341 -0.1330 -0.4145
   96CHL1   H14 9527   5.078   0.527   7.354 -0.1884  0.1775 -0.1706
   96CHL1   C15 9528   5.246   0.553   7.472  0.0416  0.4106 -0.0296
   96CHL1  H15A 9529   5.344   0.503   7.487 -0.9206 -2.3996 -2.5985
   96CHL1  H15B 9530   5.265   0.655   7.432  1.0869 -0.9867 -3.3513
   96CHL1   C16 9531   5.169   0.546   7.600  0.1735  0.8674 -0.2245
   96CHL1  H16A 9532   5.232   0.513   7.685 -1.5158 -3.1398 -0.4343
   96CHL1  H16B 9533   5.128   0.648   7.617 -0.8475  0.5106 -0.5414
   96CHL1   C17 9534   5.058   0.434   7.581 -0.3144  0.2343  0.2813
   96CHL1   H17 9535   4.970   0.491   7.546 -1.5149 -1.1560  0.9648
   96CHL1   C13 9536   5.116   0.355   7.461 -0.4089 -0.7753 -0.3783
   96CHL1   C18 9537   5.227   0.263   7.523 -0.3935 -0.6331 -0.3810
   96CHL1  H18A 9538   5.176   0.181   7.578 -2.1418 -0.3151 -1.4986
   96CHL1  H18B 9539   5.304   0.224   7.453 -1.0248  0.3124 -1.6122
   96CHL1  H18C 9540   5.297   0.314   7.592 -0.5458  0.5170 -1.0663
   96CHL1   C12 9541   5.020   0.260   7.375 -0.2587  0.3526 -0.3983
   96CHL1  H12A 9542   4.988   0.168   7.428  2.9056  0.5609  2.0030
   96CHL1  H12B 9543   4.940   0.335   7.359 -1.7156 -0.9197  0.8342
   96CHL1   C11 9544   5.095   0.224   7.245 -0.1162 -0.7601 -0.1360
   96CHL1  H11A 9545   5.173   0.154   7.282  1.8770  2.8921  2.9131
   96CHL1  H11B 9546   5.015   0.180   7.182 -0.8509  1.5810 -0.8889
   96CHL1    C9 9547   5.172   0.331   7.171  0.2936  0.1981  0.4127
   96CHL1    H9 9548   5.093   0.396   7.126 -0.3703  0.7178  2.2702
   96CHL1   C10 9549   5.242   0.282   7.040 -0.2004  0.2477  0.2948
   96CHL1   C19 9550   5.329   0.173   7.088  0.3148  0.3226 -0.4324
   96CHL1  H19A 9551   5.271   0.080   7.105  0.3259  0.0995 -1.6169
   96CHL1  H19B 9552   5.401   0.137   7.011  1.0418  0.0006  0.3872
   96CHL1  H19C 9553   5.394   0.202   7.174  1.4845 -0.0807 -1.1618
   96CHL1    C1 9554   5.134   0.236   6.946  0.5109  0.2964  0.2537
   96CHL1   H1A 9555   5.086   0.141   6.977  0.6124  0.5071  1.0730
   96CHL1   H1B 9556   5.062   0.315   6.917 -0.1726 -0.9533 -1.4925
   96CHL1    C2 9557   5.195   0.193   6.809 -0.5586 -0.0862 -0.1857
   96CHL1   H2A 9558   5.109   0.180   6.740 -0.3578 -1.0957 -0.2563
   96CHL1   H2B 9559   5.254   0.101   6.826 -2.4300 -1.4140 -0.6950
   96CHL1   C20 9560   5.016   0.374   7.713 -0.4606 -0.4229 -0.1142
   96CHL1   H20 9561   5.095   0.301   7.739 -0.2661 -0.4484 -0.7852
   96CHL1   C21 9562   4.885   0.296   7.683 -0.2599 -1.1218 -0.2456
   96CHL1  H21A 9563   4.824   0.278   7.774  0.4715  0.7049  0.6279
   96CHL1  H21B 9564   4.925   0.203   7.637  2.0062 -0.3031  0.0054
   96CHL1  H21C 9565   4.813   0.334   7.608 -0.3231 -1.5480 -0.4045
   96CHL1   C22 9566   5.006   0.484   7.824  0.2817 -0.5240  0.2168
   96CHL1  H22A 9567   5.110   0.518   7.843  1.5878 -3.5676 -1.2370
   96CHL1  H22B 9568   4.944   0.573   7.799  0.7209  0.5788  2.8565
   96CHL1   C23 9569   4.959   0.436   7.957 -0.8395 -0.0209 -0.0777
   96CHL1  H23A 9570   4.849   0.432   7.946 -1.1956  1.6518  2.3681
   96CHL1  H23B 9571   5.003   0.341   7.993 -1.2203 -0.1531  0.0387
   96CHL1   C24 9572   4.995   0.545   8.066 -0.4633  1.1870  0.2114
   96CHL1  H24A 9573   5.106   0.549   8.075 -0.6623  1.7812  2.7127
   96CHL1  H24B 9574   4.957   0.645   8.037 -0.1478  0.8480 -1.4745
   96CHL1   C25 9575   4.937   0.506   8.203  0.4905  0.2224 -0.0785
   96CHL1   H25 9576   4.941   0.395   8.214  0.3443  0.2084 -0.1626
   96CHL1   C26 9577   5.006   0.572   8.328 -0.3502 -0.5444  0.2979
   96CHL1  H26A 9578   4.991   0.682   8.326 -0.1281 -0.4946  1.1584
   96CHL1  H26B 9579   4.954   0.526   8.415  0.0926 -0.2732  0.7123
   96CHL1  H26C 9580   5.115   0.548   8.327  0.0224  1.0496  0.4813
   96CHL1   C27 9581   4.785   0.530   8.205  0.2778 -0.3372  0.0774
   96CHL1  H27A 9582   4.734   0.464   8.130 -1.2197  0.1538  0.6550
   96CHL1  H27B 9583   4.736   0.510   8.302  0.0066  1.5685  0.3408
   96CHL1  H27C 9584   4.756   0.631   8.171  3.9725  0.6377 -0.4286
   97OSM      N 9585   2.601   1.219  11.386  0.5690 -0.0452 -0.4184
   97OSM    C15 9586   2.717   1.196  11.308  0.7589 -0.1787 -0.3653
   97OSM   H15A 9587   2.760   1.102  11.341  1.8572 -0.0054 -1.2754
   97OSM   H15B 9588   2.800   1.263  11.320 -0.6144  1.3942  0.4737
   97OSM   H15C 9589   2.701   1.183  11.201 -0.0825 -1.5304 -0.0951
   97OSM    C14 9590   2.649   1.223  11.528 -0.1178 -1.4727  0.3068
   97OSM   H14A 9591   2.699   1.133  11.559 -0.2207 -1.1089  1.5332
   97OSM   H14B 9592   2.567   1.247  11.594  0.2727  0.1307  0.2144
   97OSM   H14C 9593   2.720   1.302  11.545 -1.2553 -0.5202  0.6932
   97OSM    C13 9594   2.539   1.346  11.344  0.5114 -0.0638 -0.1627
   97OSM   H13A 9595   2.517   1.351  11.238 -0.7209  0.7158  0.1110
   97OSM   H13B 9596   2.606   1.429  11.355  1.5269 -0.8830 -0.1063
   97OSM   H13C 9597   2.445   1.357  11.396 -0.9012 -0.6772 -2.4972
   97OSM    C12 9598   2.499   1.105  11.362 -0.5842  0.2246  0.2475
   97OSM   H12A 9599   2.414   1.124  11.426 -1.4837  0.8371 -1.1109
   97OSM   H12B 9600   2.540   1.010  11.391 -0.3961  0.2001 -0.0998
   97OSM    C11 9601   2.455   1.078  11.214 -0.3053 -0.0329  0.2490
   97OSM   H11A 9602   2.410   1.173  11.180 -0.0384 -0.2052 -0.6130
   97OSM   H11B 9603   2.383   0.993  11.212  0.2495 -0.5063 -2.8599
   97OSM      P 9604   2.628   0.923  11.108  0.1430  0.2280  0.2084
   97OSM    O13 9605   2.764   0.945  11.052  0.7170  0.5873  0.6144
   97OSM    O14 9606   2.625   0.851  11.239  0.7928  0.2978  0.3722
   97OSM    O11 9607   2.529   0.843  11.015 -0.2520 -0.2770  0.1855
   97OSM    O12 9608   2.561   1.064  11.125 -0.0519 -0.1827  0.0616
   97OSM    C1S 9609   2.472   0.906  10.899 -0.0678  0.2895  0.4905
   97OSM    H1S 9610   2.473   1.017  10.894 -2.4036  0.2733 -0.9855
   97OSM    H1T 9611   2.365   0.880  10.909 -0.0043  0.0874  0.6748
   97OSM     NF 9612   2.466   0.934  10.652  0.7296  0.0752  0.5029
   97OSM    HNF 9613   2.391   0.893  10.601  2.6912  0.8886 -3.2437
   97OSM    C2S 9614   2.520   0.850  10.758 -0.6992 -0.1899 -0.4126
   97OSM    H2S 9615   2.631   0.856  10.755 -0.7357  3.1940  2.0475
   97OSM    C3S 9616   2.480   0.693  10.738  0.1306 -0.3447 -1.1056
   97OSM    H3S 9617   2.370   0.679  10.748  0.0181  1.2662  0.2343
   97OSM     O3 9618   2.538   0.618  10.850 -0.2511 -0.6346  0.0967
   97OSM    HO3 9619   2.542   0.681  10.922 -1.4479 -0.4580  0.0227
   97OSM    C4S 9620   2.530   0.645  10.600 -0.1407  0.0416 -0.5983
   97OSM    H4S 9621   2.450   0.663  10.526 -1.1718  1.3142  0.8085
   97OSM    C5S 9622   2.640   0.581  10.570  0.2022 -0.2322 -0.3367
   97OSM    H5S 9623   2.704   0.541  10.650 -0.4854 -0.8428 -0.0913
   97OSM    C6S 9624   2.668   0.531  10.429 -0.2643  0.3622  0.1099
   97OSM    H6S 9625   2.645   0.422  10.424 -3.3866  0.8013  3.3563
   97OSM    H6T 9626   2.775   0.553  10.406 -0.5685  1.2838 -0.4293
   97OSM    C7S 9627   2.591   0.603  10.315 -0.3710 -0.1229  0.2209
   97OSM    H7S 9628   2.625   0.708  10.310 -0.8455  0.0066 -0.3670
   97OSM    H7T 9629   2.483   0.600  10.344  0.2046 -2.0711  2.3667
   97OSM    C8S 9630   2.616   0.542  10.175  0.7637 -0.4663 -0.2225
   97OSM    H8S 9631   2.596   0.433  10.184 -1.0843 -0.1376 -0.1341
   97OSM    H8T 9632   2.723   0.553  10.146  0.3669  0.9854 -1.1882
   97OSM    C9S 9633   2.534   0.601  10.068  0.2820  0.2377  0.2274
   97OSM    H9S 9634   2.555   0.710  10.057  1.1597  0.1425  0.9043
   97OSM    H9T 9635   2.430   0.590  10.105  0.7262 -3.1676  0.6254
   97OSM   C10S 9636   2.548   0.531   9.937 -0.1603 -0.5794  0.2179
   97OSM   H10S 9637   2.517   0.425   9.946 -0.7546 -0.4940 -0.7483
   97OSM   H10T 9638   2.651   0.542   9.896 -0.3830  1.2221  0.0771
   97OSM   C11S 9639   2.448   0.585   9.833  0.5110  0.0953  0.2936
   97OSM   H11S 9640   2.347   0.579   9.881  0.2958  2.4886  0.1753
   97OSM   H11T 9641   2.449   0.506   9.755  1.5617 -0.4882  0.8906
   97OSM   C12S 9642   2.460   0.732   9.796  0.1383 -0.4946  0.0909
   97OSM   H12S 9643   2.445   0.799   9.883 -0.0053  1.1323 -1.1706
   97OSM   H12T 9644   2.378   0.755   9.725  0.6024 -2.3190 -1.0722
   97OSM   C13S 9645   2.591   0.763   9.736 -0.2562  0.1137  0.1919
   97OSM   H13S 9646   2.623   0.682   9.667  1.2805  0.8965 -0.0242
   97OSM   H13T 9647   2.665   0.761   9.819  1.1042  1.0406 -0.9816
   97OSM   C14S 9648   2.610   0.899   9.671  0.0521 -0.0087 -0.1925
   97OSM   H14S 9649   2.715   0.935   9.670  0.7764 -1.9857  2.2104
   97OSM   H14T 9650   2.557   0.981   9.724 -0.1693  0.1438 -0.6494
   97OSM   C15S 9651   2.565   0.908   9.524  0.5880 -0.1404  0.2941
   97OSM   H15S 9652   2.454   0.913   9.525  0.6390  1.0888  0.8179
   97OSM   H15T 9653   2.585   0.807   9.483 -2.1369 -1.2923  1.6263
   97OSM   C16S 9654   2.636   1.027   9.453 -0.7790 -0.1976  0.3549
   97OSM   H16S 9655   2.665   1.102   9.529 -1.2161 -0.5683  0.8932
   97OSM   H16T 9656   2.555   1.070   9.391  0.1586  2.2655  0.8096
   97OSM   C17S 9657   2.757   0.980   9.368  0.0225 -0.0578 -0.7977
   97OSM   H17S 9658   2.794   0.898   9.434 -2.7975 -1.5546 -1.0063
   97OSM   H17T 9659   2.840   1.053   9.363 -0.8364  1.2878  3.2392
   97OSM   C18S 9660   2.719   0.912   9.233 -0.2468 -0.0019 -0.1702
   97OSM   H18S 9661   2.712   0.984   9.148  3.8713  1.8554  0.9334
   97OSM   H18T 9662   2.618   0.867   9.237 -2.4356  4.3378 -2.2152
   97OSM   H18U 9663   2.797   0.837   9.211 -1.5802 -2.6629  3.6358
   97OSM    C1F 9664   2.494   1.060  10.641  0.3996  0.3612 -0.9645
   97OSM     OF 9665   2.599   1.091  10.695 -0.2115  0.2830 -0.8169
   97OSM    C2F 9666   2.400   1.154  10.564 -0.4616 -0.2557  0.0658
   97OSM    H2F 9667   2.365   1.232  10.636 -0.7611 -0.3342  0.0049
   97OSM    H2G 9668   2.311   1.092  10.541  0.6091 -1.6408 -0.3933
   97OSM    C3F 9669   2.454   1.229  10.441  0.3101  0.4808 -0.1127
   97OSM    H3F 9670   2.522   1.313  10.466  0.4573  0.4293 -0.3377
   97OSM    H3G 9671   2.372   1.279  10.385 -0.7519 -2.2870 -1.1157
   97OSM    C4F 9672   2.531   1.141  10.336  0.0713  0.6130 -0.3692
   97OSM    H4F 9673   2.466   1.056  10.306 -1.3183  1.6344 -0.3146
   97OSM    H4G 9674   2.623   1.101  10.385  1.2765  1.0355 -2.2316
   97OSM    C5F 9675   2.575   1.218  10.213 -0.4788 -0.1024  0.8640
   97OSM    H5F 9676   2.645   1.299  10.242 -1.8021  1.6255 -0.6841
   97OSM    H5G 9677   2.483   1.262  10.170 -0.4978 -1.2099 -0.2553
   97OSM    C6F 9678   2.649   1.122  10.108 -0.3407  0.4025  0.1397
   97OSM    H6F 9679   2.571   1.061  10.059 -1.3007  1.3998  0.3823
   97OSM    H6G 9680   2.709   1.052  10.169  0.9917  1.6538  0.2818
   97OSM    C7F 9681   2.722   1.200  10.006 -0.1519  0.0465  0.0533
   97OSM    H7F 9682   2.807   1.147   9.957  1.7400  3.6589 -0.7252
   97OSM    H7G 9683   2.772   1.279  10.067  0.8067 -1.8888  1.8375
   97OSM    C8F 9684   2.624   1.253   9.897  0.4310  0.3105  0.2669
   97OSM    H8F 9685   2.523   1.244   9.943 -0.4295 -1.2429 -1.8337
   97OSM    H8G 9686   2.616   1.182   9.812 -0.8281 -0.3942  0.9665
   97OSM    C9F 9687   2.662   1.388   9.852 -0.8855  0.0482 -0.0799
   97OSM    H9F 9688   2.734   1.433   9.922  1.0184 -3.6299  0.4520
   97OSM   C10F 9689   2.638   1.442   9.732  0.5045 -0.2400 -0.4500
   97OSM   H10F 9690   2.662   1.549   9.722 -2.4347  0.6341  1.0431
   97OSM   C11F 9691   2.566   1.381   9.614 -0.4151 -0.3689 -0.2176
   97OSM   H11F 9692   2.477   1.440   9.585 -0.2729  0.2223  0.5606
   97OSM   H11G 9693   2.529   1.276   9.620 -1.4254 -0.0339 -0.5333
   97OSM   C12F 9694   2.662   1.383   9.497 -0.5452 -0.4512 -0.0208
   97OSM   H12F 9695   2.735   1.299   9.500  1.6924  1.5068  2.8057
   97OSM   H12G 9696   2.732   1.469   9.501  0.4851 -1.2948  0.7332
   97OSM   C13F 9697   2.579   1.372   9.369 -0.4008  0.4542 -0.1764
   97OSM   H13F 9698   2.540   1.474   9.351 -2.8709 -0.6063 -0.9839
   97OSM   H13G 9699   2.494   1.301   9.379 -1.7463  2.0814  0.0189
   97OSM   C14F 9700   2.655   1.335   9.237  0.2035  0.5803 -0.3318
   97OSM   H14F 9701   2.686   1.229   9.247  0.6222  0.8460  1.2723
   97OSM   H14G 9702   2.748   1.391   9.213  2.3839 -2.3011  1.0674
   97OSM   C15F 9703   2.562   1.352   9.121 -0.0255 -0.0978  0.0059
   97OSM   H15F 9704   2.621   1.347   9.027 -1.1872 -0.1179 -0.7332
   97OSM   H15G 9705   2.507   1.448   9.131  1.9699  1.1379 -0.5582
   97OSM   C16F 9706   2.462   1.241   9.113 -0.2347 -0.1314 -1.2567
   97OSM   H16F 9707   2.391   1.264   9.196  1.3163  1.2462 -0.2600
   97OSM   H16G 9708   2.507   1.141   9.131 -2.7285 -1.1119 -0.3051
   97OSM   C17F 9709   2.385   1.228   8.981 -0.2377 -0.5518  0.4313
   97OSM   H17F 9710   2.305   1.153   8.999  0.7495 -1.3810  1.4353
   97OSM   H17G 9711   2.448   1.184   8.901  1.6965 -0.7809  2.0610
   97OSM   C18F 9712   2.306   1.352   8.932  0.4204  0.7904 -0.2814
   97OSM   H18F 9713   2.375   1.439   8.926  1.8847 -0.3626 -0.3513
   97OSM   H18G 9714   2.227   1.389   9.001  1.4469  2.4650  0.0204
   97OSM   H18H 9715   2.265   1.335   8.831  1.3550 -2.5370 -0.1591
   98OSM      N 9716   1.873   0.784  11.352  0.5791 -0.6509  0.0382
   98OSM    C15 9717   1.840   0.722  11.484 -0.1955  0.2581 -0.6826
   98OSM   H15A 9718   1.736   0.732  11.513  0.0653 -0.6551  0.6243
   98OSM   H15B 9719   1.904   0.771  11.555 -0.7477 -0.4484  0.3251
   98OSM   H15C 9720   1.866   0.617  11.473  0.5092  0.2262  1.1786
   98OSM    C14 9721   1.773   0.734  11.250  0.8058  0.5353 -1.0948
   98OSM   H14A 9722   1.810   0.738  11.149 -2.3722 -3.6014 -2.5830
   98OSM   H14B 9723   1.682   0.792  11.243 -1.0248 -2.2116 -0.7918
   98OSM   H14C 9724   1.750   0.633  11.280 -1.1506  0.9396 -1.1805
   98OSM    C13 9725   1.848   0.928  11.362  0.2257 -0.1068 -0.3367
   98OSM   H13A 9726   1.836   0.966  11.262 -2.8670 -0.0123  0.0236
   98OSM   H13B 9727   1.918   0.986  11.419 -1.8972 -0.2618  2.5768
   98OSM   H13C 9728   1.752   0.941  11.410  0.0070  0.2778 -0.8790
   98OSM    C12 9729   2.010   0.747  11.305  1.3452 -0.4987  0.2478
   98OSM   H12A 9730   2.031   0.646  11.337 -1.2489 -0.7769  1.1471
   98OSM   H12B 9731   2.073   0.820  11.354  1.3171  0.1365 -0.6490
   98OSM    C11 9732   2.044   0.759  11.155 -0.6322  0.6024 -0.4711
   98OSM   H11A 9733   1.999   0.677  11.095 -0.4333  0.5356 -0.5276
   98OSM   H11B 9734   2.153   0.741  11.146 -0.8874 -0.6767 -1.1878
   98OSM      P 9735   1.981   0.929  10.963 -0.0662  0.4712 -0.0712
   98OSM    O13 9736   1.835   0.931  10.955  0.0486 -0.0993  0.2403
   98OSM    O14 9737   2.047   1.051  10.923  0.3508  0.2511 -0.3027
   98OSM    O11 9738   2.041   0.818  10.869 -0.0047  0.0512  0.1486
   98OSM    O12 9739   2.024   0.892  11.110 -0.4049 -0.3048 -0.2811
   98OSM    C1S 9740   1.999   0.817  10.730 -0.3663 -0.3003  0.3420
   98OSM    H1S 9741   2.034   0.911  10.683  0.8622 -1.4674 -1.1562
   98OSM    H1T 9742   1.891   0.796  10.723  0.3467 -3.8127 -1.2697
   98OSM     NF 9743   2.031   0.723  10.508  0.4529  0.1563 -0.1744
   98OSM    HNF 9744   1.958   0.671  10.465 -0.3139  1.0350  0.0409
   98OSM    C2S 9745   2.069   0.706  10.645  0.2960  0.9159  0.1453
   98OSM    H2S 9746   2.179   0.714  10.654  0.3728  1.0327 -0.8232
   98OSM    C3S 9747   2.032   0.562  10.705  0.7148 -0.1105  0.1099
   98OSM    H3S 9748   1.922   0.560  10.717  0.8081  1.6368  1.3800
   98OSM     O3 9749   2.082   0.547  10.835 -0.4337  0.0694  0.7047
   98OSM    HO3 9750   2.119   0.633  10.857  0.2417 -0.4001  1.4655
   98OSM    C4S 9751   2.067   0.439  10.618 -0.2240  0.5347 -0.6547
   98OSM    H4S 9752   1.995   0.430  10.535  0.6574 -1.5043 -1.2261
   98OSM    C5S 9753   2.181   0.367  10.631 -0.2398 -0.0551  0.2169
   98OSM    H5S 9754   2.252   0.392  10.712  0.7534 -0.9151 -0.3916
   98OSM    C6S 9755   2.227   0.254  10.544  0.5883 -0.0983 -0.1844
   98OSM    H6S 9756   2.145   0.195  10.497 -2.9406  2.0795  2.9338
   98OSM    H6T 9757   2.292   0.195  10.613  2.2269  0.4921 -1.2018
   98OSM    C7S 9758   2.315   0.301  10.425  0.1685 -0.3023  0.1565
   98OSM    H7S 9759   2.348   0.207  10.375  1.3666  0.6577 -0.8705
   98OSM    H7T 9760   2.394   0.370  10.460 -1.7945  1.5600  1.0609
   98OSM    C8S 9761   2.227   0.372  10.314  0.4994  0.7596  0.4006
   98OSM    H8S 9762   2.288   0.450  10.265  0.7684  0.9657  1.0616
   98OSM    H8T 9763   2.134   0.415  10.359 -0.3729 -1.1118  0.4734
   98OSM    C9S 9764   2.182   0.287  10.196 -0.2937 -0.1634  0.5843
   98OSM    H9S 9765   2.141   0.192  10.238  1.9296 -1.5326 -0.2471
   98OSM    H9T 9766   2.275   0.248  10.148 -1.7753  0.1249 -2.6110
   98OSM   C10S 9767   2.115   0.363  10.084 -0.0173  0.3227  0.3495
   98OSM   H10S 9768   2.168   0.458  10.060 -2.5441  1.6381 -0.1228
   98OSM   H10T 9769   2.017   0.394  10.126  0.2482 -0.4319  1.5524
   98OSM   C11S 9770   2.114   0.287   9.950 -0.2392 -1.1201  0.1275
   98OSM   H11S 9771   2.042   0.203   9.943 -1.2147 -0.4962  2.2733
   98OSM   H11T 9772   2.217   0.245   9.945  1.2134  2.0255  1.9240
   98OSM   C12S 9773   2.085   0.370   9.827 -0.6140  0.3333  0.5521
   98OSM   H12S 9774   2.136   0.330   9.737  0.9600 -0.3723  1.7294
   98OSM   H12T 9775   2.141   0.464   9.843 -0.4159  0.1192  1.1445
   98OSM   C13S 9776   1.934   0.410   9.802  0.1090 -0.6879  0.1749
   98OSM   H13S 9777   1.925   0.493   9.728  1.2919 -2.2717 -1.7947
   98OSM   H13T 9778   1.892   0.465   9.889  0.8274 -0.7292  0.5457
   98OSM   C14S 9779   1.850   0.296   9.760 -0.3405  0.3909  0.1192
   98OSM   H14S 9780   1.824   0.235   9.849  0.4565 -1.6276 -1.0057
   98OSM   H14T 9781   1.923   0.237   9.701 -0.8748  0.3649 -0.5132
   98OSM   C15S 9782   1.725   0.335   9.673 -0.1213  0.4210  0.1053
   98OSM   H15S 9783   1.736   0.428   9.614  1.9143 -0.5354 -1.0823
   98OSM   H15T 9784   1.631   0.347   9.730 -0.5002 -0.4400 -0.3383
   98OSM   C16S 9785   1.708   0.233   9.570 -0.0296  0.2248  0.5428
   98OSM   H16S 9786   1.601   0.217   9.548  0.2114  0.2185 -0.6833
   98OSM   H16T 9787   1.730   0.134   9.615 -0.1362  0.0040  0.1175
   98OSM   C17S 9788   1.794   0.252   9.444 -0.4532 -0.3087  0.2244
   98OSM   H17S 9789   1.899   0.275   9.474 -0.9073  2.3242 -0.0568
   98OSM   H17T 9790   1.760   0.348   9.399 -2.2121 -1.1111 -0.1515
   98OSM   C18S 9791   1.792   0.125   9.356  0.3363 -0.1991  0.0039
   98OSM   H18S 9792   1.826   0.037   9.414 -3.3020 -1.2727  0.6437
   98OSM   H18T 9793   1.853   0.152   9.267  0.5813 -0.2114  0.1698
   98OSM   H18U 9794   1.685   0.117   9.327  0.2423 -1.3333  0.6728
   98OSM    C1F 9795   2.084   0.816  10.429  0.9887  0.7046  0.0079
   98OSM     OF 9796   2.162   0.896  10.481 -0.1742 -0.7764  0.3386
   98OSM    C2F 9797   2.053   0.817  10.279  0.0460  0.2148 -0.2356
   98OSM    H2F 9798   1.970   0.888  10.262  1.1209  1.2262 -1.3530
   98OSM    H2G 9799   2.023   0.714  10.247  1.4042  0.5457 -2.7565
   98OSM    C3F 9800   2.179   0.848  10.201 -0.4536  1.0175 -0.3774
   98OSM    H3F 9801   2.269   0.797  10.242 -0.4649  2.0343  0.9391
   98OSM    H3G 9802   2.194   0.957  10.214  1.2451  0.8327 -0.7287
   98OSM    C4F 9803   2.173   0.808  10.055 -0.4150  0.1341 -1.0229
   98OSM    H4F 9804   2.174   0.698  10.040 -0.0457  0.2260 -1.6788
   98OSM    H4G 9805   2.268   0.847  10.012 -0.6140 -0.2186 -1.7931
   98OSM    C5F 9806   2.057   0.863   9.974  0.2959  0.3246  0.0112
   98OSM    H5F 9807   2.023   0.959  10.019 -0.3346  0.7828 -1.3951
   98OSM    H5G 9808   1.973   0.791   9.979 -0.6303  1.2698 -1.3337
   98OSM    C6F 9809   2.092   0.895   9.829  0.5437  0.0729 -0.2488
   98OSM    H6F 9810   1.991   0.901   9.784 -0.0819 -0.6484  1.0549
   98OSM    H6G 9811   2.144   0.810   9.781  0.9929 -0.2090  0.7346
   98OSM    C7F 9812   2.176   1.023   9.796  0.2532  0.4847  0.7247
   98OSM    H7F 9813   2.279   1.017   9.837  0.7901  0.0279 -0.6594
   98OSM    H7G 9814   2.126   1.119   9.818  0.0714  0.7011 -0.5556
   98OSM    C8F 9815   2.203   1.038   9.645  0.2263  0.1942 -0.7360
   98OSM    H8F 9816   2.237   0.943   9.597 -0.7763 -0.8816  0.6438
   98OSM    H8G 9817   2.280   1.117   9.633 -0.2494  0.7449 -0.1706
   98OSM    C9F 9818   2.079   1.082   9.575  0.7504  0.2756  0.0392
   98OSM    H9F 9819   2.030   1.169   9.621 -1.6853  1.0033 -3.6652
   98OSM   C10F 9820   2.039   1.037   9.455 -0.4394 -0.0289 -0.3201
   98OSM   H10F 9821   1.956   1.093   9.409 -1.4630 -1.5643 -0.3487
   98OSM   C11F 9822   2.100   0.930   9.371 -0.4203  0.3390 -0.3570
   98OSM   H11F 9823   2.035   0.882   9.294 -2.2728  0.1377  1.3265
   98OSM   H11G 9824   2.135   0.848   9.438  0.1409 -0.5935 -1.7475
   98OSM   C12F 9825   2.218   0.970   9.292 -0.2454 -0.4351  0.5142
   98OSM   H12F 9826   2.291   1.024   9.356  1.5818 -2.1542 -0.0394
   98OSM   H12G 9827   2.181   1.038   9.213 -0.4075 -0.7616  0.3081
   98OSM   C13F 9828   2.294   0.862   9.219  0.6991  0.4224  0.3098
   98OSM   H13F 9829   2.311   0.778   9.289 -0.4755 -0.8909 -0.9383
   98OSM   H13G 9830   2.384   0.919   9.187  0.5412 -0.2222 -1.2946
   98OSM   C14F 9831   2.226   0.811   9.093  0.2827 -0.5272  0.3870
   98OSM   H14F 9832   2.236   0.890   9.016  1.8904  1.7720  2.8623
   98OSM   H14G 9833   2.118   0.802   9.121  0.4463  0.4621  1.3985
   98OSM   C15F 9834   2.279   0.669   9.057 -0.2319  0.2131 -0.4024
   98OSM   H15F 9835   2.283   0.601   9.144  3.4381 -2.0762 -2.2471
   98OSM   H15G 9836   2.381   0.693   9.020  0.0409 -0.6446 -0.2125
   98OSM   C16F 9837   2.191   0.599   8.950  0.0359  0.2820 -0.0764
   98OSM   H16F 9838   2.088   0.600   8.991  0.4196 -3.3221  1.1454
   98OSM   H16G 9839   2.235   0.499   8.931 -0.6515  0.3437 -2.0556
   98OSM   C17F 9840   2.196   0.670   8.807  0.5499  0.4396 -0.0012
   98OSM   H17F 9841   2.300   0.656   8.772  1.0928  1.0253  1.3556
   98OSM   H17G 9842   2.170   0.777   8.825  0.6865  0.3482  0.7574
   98OSM   C18F 9843   2.104   0.594   8.718  0.1400  0.0306  0.9192
   98OSM   H18F 9844   2.159   0.499   8.706 -1.7497 -1.0081  0.3393
   98OSM   H18G 9845   2.087   0.645   8.620 -0.5980  0.2712  1.1691
   98OSM   H18H 9846   2.005   0.575   8.762 -0.9772 -2.2550 -2.4082
   99OSM      N 9847   4.763   1.615  10.770 -0.2270  0.1700 -0.3206
   99OSM    C15 9848   4.848   1.496  10.757  0.3624 -0.2156 -0.2306
   99OSM   H15A 9849   4.883   1.445  10.846  0.6715 -2.8368 -1.8062
   99OSM   H15B 9850   4.937   1.531  10.708  0.0333  1.5424  0.4064
   99OSM   H15C 9851   4.805   1.426  10.687 -0.6887 -0.1803  0.3720
   99OSM    C14 9852   4.847   1.726  10.833  0.0549 -0.0471  0.4268
   99OSM   H14A 9853   4.915   1.758  10.756 -0.9455  2.0781  0.3647
   99OSM   H14B 9854   4.906   1.701  10.920  1.6255 -2.4080 -1.2740
   99OSM   H14C 9855   4.800   1.818  10.867  0.7673  0.7055 -0.6130
   99OSM    C13 9856   4.715   1.648  10.638  0.1685 -0.3382 -0.2434
   99OSM   H13A 9857   4.625   1.707  10.652  0.5219 -0.2213  1.6627
   99OSM   H13B 9858   4.698   1.558  10.581  0.3387 -0.4540 -0.1109
   99OSM   H13C 9859   4.787   1.707  10.583  1.7033  0.3764  2.4110
   99OSM    C12 9860   4.646   1.573  10.865 -0.5674  0.3818 -0.3693
   99OSM   H12A 9861   4.671   1.563  10.970  0.3773 -0.6603 -0.6963
   99OSM   H12B 9862   4.615   1.472  10.846  2.9540 -0.5958 -1.1317
   99OSM    C11 9863   4.522   1.666  10.875  0.4824 -0.3246 -0.1401
   99OSM   H11A 9864   4.557   1.770  10.893  0.4928  0.2550 -3.2032
   99OSM   H11B 9865   4.465   1.639  10.966 -1.7047  0.3544 -1.2926
   99OSM      P 9866   4.325   1.551  10.752 -0.3602  0.2473 -0.4652
   99OSM    O13 9867   4.360   1.429  10.825  0.7385 -0.7036  0.2254
   99OSM    O14 9868   4.196   1.612  10.797  0.0559  0.6255 -0.0235
   99OSM    O11 9869   4.305   1.508  10.596  0.1657  0.2578  0.3881
   99OSM    O12 9870   4.445   1.662  10.754 -0.4039 -0.1537 -0.1857
   99OSM    C1S 9871   4.323   1.613  10.504  0.0739 -0.2376  0.1090
   99OSM    H1S 9872   4.429   1.645  10.512  0.1088 -1.0592  3.7585
   99OSM    H1T 9873   4.257   1.700  10.525  0.7306 -0.4258  3.1360
   99OSM     NF 9874   4.315   1.668  10.257 -0.7858 -0.8942  0.4405
   99OSM    HNF 9875   4.226   1.700  10.223 -1.9588 -0.3731  3.8515
   99OSM    C2S 9876   4.296   1.565  10.355 -0.4687  1.1694 -0.4311
   99OSM    H2S 9877   4.375   1.493  10.322 -0.6632  0.2239  1.1013
   99OSM    C3S 9878   4.150   1.504  10.347 -0.3713 -0.1334 -0.6033
   99OSM    H3S 9879   4.078   1.588  10.358 -0.7847 -0.2682 -2.1561
   99OSM     O3 9880   4.130   1.399  10.436  0.2223  0.5605  0.5273
   99OSM    HO3 9881   4.187   1.395  10.513  2.0429  1.4313 -0.7379
   99OSM    C4S 9882   4.124   1.446  10.206 -0.6229  0.2436  0.1170
   99OSM    H4S 9883   4.185   1.357  10.184 -1.4776 -0.2514 -0.2787
   99OSM    C5S 9884   4.032   1.489  10.121  0.3761 -0.9972  0.0489
   99OSM    H5S 9885   3.973   1.578  10.150  1.3870 -0.3299  0.0745
   99OSM    C6S 9886   4.005   1.443   9.977 -0.0645  0.2848  0.0480
   99OSM    H6S 9887   3.899   1.444   9.943  0.1055  1.2615 -0.4677
   99OSM    H6T 9888   4.036   1.337   9.966 -1.7782 -0.1188 -1.1452
   99OSM    C7S 9889   4.082   1.532   9.872  0.1300 -0.2493 -0.0304
   99OSM    H7S 9890   4.190   1.546   9.892 -0.0243  1.5180 -0.3128
   99OSM    H7T 9891   4.047   1.637   9.878 -0.1006 -0.2004 -1.9003
   99OSM    C8S 9892   4.074   1.467   9.726  0.7722 -0.3704  0.1222
   99OSM    H8S 9893   3.975   1.425   9.698  0.5219  1.9798 -2.8370
   99OSM    H8T 9894   4.146   1.384   9.714  0.4696 -0.6377  0.1393
   99OSM    C9S 9895   4.107   1.580   9.625 -0.4195 -0.2494  0.1581
   99OSM    H9S 9896   4.211   1.618   9.629 -1.0014  1.1931  1.9477
   99OSM    H9T 9897   4.039   1.665   9.648 -1.7354 -1.4499  0.7949
   99OSM   C10S 9898   4.090   1.541   9.474  0.1869  0.2728  0.2561
   99OSM   H10S 9899   4.000   1.485   9.442 -1.2071  1.9990  1.0886
   99OSM   H10T 9900   4.171   1.467   9.454 -0.0137  0.6323 -1.9772
   99OSM   C11S 9901   4.110   1.661   9.386 -0.4150  0.1128  0.1082
   99OSM   H11S 9902   4.187   1.727   9.432 -1.4079  3.4319 -2.8063
   99OSM   H11T 9903   4.018   1.722   9.380  0.1153  1.0506  1.3536
   99OSM   C12S 9904   4.170   1.607   9.257 -0.0553 -0.2092 -0.1975
   99OSM   H12S 9905   4.262   1.551   9.283  0.8079  1.9720  1.5476
   99OSM   H12T 9906   4.097   1.532   9.218  1.0233 -0.4001 -1.9163
   99OSM   C13S 9907   4.196   1.714   9.148  0.1214 -0.9588  0.3800
   99OSM   H13S 9908   4.241   1.656   9.065 -2.2706 -0.0433 -1.6322
   99OSM   H13T 9909   4.276   1.779   9.189  1.0129 -2.5653  1.2133
   99OSM   C14S 9910   4.084   1.799   9.087  0.7453 -0.8260  0.3574
   99OSM   H14S 9911   4.113   1.894   9.039 -0.8117  0.4971  1.9755
   99OSM   H14T 9912   4.007   1.832   9.160  0.7895 -0.6786  0.3358
   99OSM   C15S 9913   4.002   1.720   8.977 -0.1910  0.9768  0.8973
   99OSM   H15S 9914   3.905   1.773   8.985 -1.2614 -0.8834  0.3231
   99OSM   H15T 9915   3.987   1.618   9.019 -0.5573  0.1865 -1.1187
   99OSM   C16S 9916   4.061   1.736   8.835  0.8143  1.0533  0.3515
   99OSM   H16S 9917   4.055   1.636   8.788 -1.5051  1.1762  0.3560
   99OSM   H16T 9918   4.169   1.760   8.849  2.3620 -3.1284 -3.2099
   99OSM   C17S 9919   4.000   1.830   8.728  0.6430 -0.2191 -0.0177
   99OSM   H17S 9920   3.912   1.782   8.678  0.0204 -1.7552  2.4769
   99OSM   H17T 9921   4.065   1.824   8.638 -0.6535 -2.2712 -0.8818
   99OSM   C18S 9922   3.962   1.978   8.760 -0.6955  0.3067  0.4556
   99OSM   H18S 9923   3.893   1.983   8.847 -1.3875  0.6776 -0.1107
   99OSM   H18T 9924   3.905   2.010   8.670 -1.4828  1.4159  1.3459
   99OSM   H18U 9925   4.054   2.037   8.775  0.2469 -0.9241 -0.3372
   99OSM    C1F 9926   4.425   1.731  10.223 -0.1451 -0.4504  0.2437
   99OSM     OF 9927   4.533   1.703  10.277 -0.1832  0.2109 -0.4609
   99OSM    C2F 9928   4.412   1.842  10.126 -0.8948  0.5167 -0.2554
   99OSM    H2F 9929   4.392   1.934  10.185  1.2349  1.3065 -0.7011
   99OSM    H2G 9930   4.326   1.816  10.061 -1.5948 -0.4385  1.0277
   99OSM    C3F 9931   4.550   1.842  10.044  0.0643 -0.6207  1.0597
   99OSM    H3F 9932   4.537   1.934   9.983  0.4499 -0.4748  1.1971
   99OSM    H3G 9933   4.643   1.844  10.105  0.8032 -3.8397  0.1604
   99OSM    C4F 9934   4.566   1.718   9.938  0.5941 -0.2816  0.0029
   99OSM    H4F 9935   4.558   1.624   9.997 -0.6572 -0.1857 -0.0088
   99OSM    H4G 9936   4.673   1.721   9.910  1.4534 -3.3445  2.6474
   99OSM    C5F 9937   4.466   1.728   9.818 -0.0907 -0.5154 -0.2363
   99OSM    H5F 9938   4.368   1.735   9.869  0.7527  1.4336  1.1724
   99OSM    H5G 9939   4.481   1.626   9.777 -1.5503 -0.6748 -0.3888
   99OSM    C6F 9940   4.486   1.855   9.725  0.0914  0.2097 -0.4181
   99OSM    H6F 9941   4.462   1.947   9.782 -0.8555  0.1254 -0.6765
   99OSM    H6G 9942   4.406   1.847   9.648 -0.1276 -0.9127 -0.0832
   99OSM    C7F 9943   4.615   1.858   9.643 -0.8526  0.6424 -0.2196
   99OSM    H7F 9944   4.623   1.768   9.578  0.4691 -0.1312  0.9676
   99OSM    H7G 9945   4.703   1.837   9.708 -1.2487 -2.8963 -0.7206
   99OSM    C8F 9946   4.625   1.969   9.545 -0.4983 -0.3530  0.2921
   99OSM    H8F 9947   4.729   1.960   9.507 -0.0776  1.8163  0.8627
   99OSM    H8G 9948   4.623   2.059   9.610 -0.8806 -0.9446  1.1061
   99OSM    C9F 9949   4.519   1.979   9.443 -0.9223 -0.7693 -0.1231
   99OSM    H9F 9950   4.421   1.986   9.493 -2.2843  1.0865 -2.9239
   99OSM   C10F 9951   4.537   1.990   9.311 -0.0413  0.4627  0.4113
   99OSM   H10F 9952   4.449   1.998   9.245  0.3137  2.3561  0.1352
   99OSM   C11F 9953   4.666   1.993   9.234  0.1101 -0.2706  0.5148
   99OSM   H11F 9954   4.684   1.900   9.176  0.1250 -2.0031  3.2060
   99OSM   H11G 9955   4.751   1.985   9.304 -0.8842  1.2320  1.9633
   99OSM   C12F 9956   4.680   2.111   9.132  0.0307  0.4510 -0.3411
   99OSM   H12F 9957   4.653   2.209   9.175 -0.1954  0.3457 -0.2452
   99OSM   H12G 9958   4.597   2.100   9.059  2.0566 -0.8442 -2.5264
   99OSM   C13F 9959   4.812   2.122   9.054  0.3445  0.5655  0.8520
   99OSM   H13F 9960   4.855   2.021   9.036 -1.1359 -0.2939  1.9908
   99OSM   H13G 9961   4.877   2.189   9.115  1.8362  2.6454 -2.8809
   99OSM   C14F 9962   4.797   2.197   8.919  0.5762  0.3273 -0.2901
   99OSM   H14F 9963   4.735   2.287   8.932 -3.1734 -1.8028 -2.4920
   99OSM   H14G 9964   4.755   2.123   8.848 -0.4648 -0.5802  1.2414
   99OSM   C15F 9965   4.929   2.253   8.855  0.4288 -0.1308 -0.5504
   99OSM   H15F 9966   5.010   2.185   8.890 -0.1944 -0.5370  0.1106
   99OSM   H15G 9967   4.958   2.354   8.893 -1.5776  0.1642  0.2498
   99OSM   C16F 9968   4.920   2.264   8.700 -0.1595  0.4815  0.3205
   99OSM   H16F 9969   4.832   2.328   8.679 -0.9745 -0.4405  0.8912
   99OSM   H16G 9970   4.906   2.159   8.665 -2.8897  1.6883 -2.3672
   99OSM   C17F 9971   5.036   2.325   8.623 -0.8308 -0.8215 -0.2662
   99OSM   H17F 9972   5.000   2.348   8.521  1.4086  2.4484 -0.4211
   99OSM   H17G 9973   5.122   2.256   8.610 -0.2969  0.2918 -2.8660
   99OSM   C18F 9974   5.088   2.456   8.688 -0.0279 -0.4068 -0.0938
   99OSM   H18F 9975   5.135   2.442   8.788  0.4045  0.4964 -0.1569
   99OSM   H18G 9976   5.004   2.526   8.703 -0.3215 -1.2494  2.2573
   99OSM   H18H 9977   5.163   2.501   8.619  0.3727  2.3891  2.0721
  100OSM      N 9978   6.736   2.258  10.717 -0.0282 -0.2838 -0.2172
  100OSM    C15 9979   6.856   2.350  10.728  0.1100  0.2420 -0.4142
  100OSM   H15A 9980   6.938   2.281  10.734 -0.4816 -0.3964  0.4810
  100OSM   H15B 9981   6.860   2.410  10.818  3.9840  0.8769 -0.8879
  100OSM   H15C 9982   6.857   2.407  10.636 -2.4238  1.8195  0.4749
  100OSM    C14 9983   6.613   2.339  10.678  0.0980  0.5059  0.0166
  100OSM   H14A 9984   6.589   2.409  10.757 -1.4417  1.7786 -1.5374
  100OSM   H14B 9985   6.528   2.273  10.673  0.6845 -0.2820  0.4929
  100OSM   H14C 9986   6.616   2.399  10.588  1.2675 -0.5124 -0.6442
  100OSM    C13 9987   6.756   2.151  10.619  0.2825  0.2364 -0.2995
  100OSM   H13A 9988   6.773   2.186  10.518  4.4247 -0.7252 -0.0381
  100OSM   H13B 9989   6.672   2.083  10.616 -0.9817  1.5316  3.2315
  100OSM   H13C 9990   6.835   2.083  10.649 -1.2870 -1.1099  0.8924
  100OSM    C12 9991   6.707   2.193  10.846  0.6777  0.2036 -0.4372
  100OSM   H12A 9992   6.693   2.270  10.920  0.6000  1.2719 -1.5422
  100OSM   H12B 9993   6.791   2.134  10.880  1.8744  2.1273  0.0164
  100OSM    C11 9994   6.591   2.086  10.843 -0.1642 -0.6170  0.8079
  100OSM   H11A 9995   6.600   2.039  10.943 -0.1550  0.5979  1.3901
  100OSM   H11B 9996   6.619   2.007  10.769  1.3671  0.7314 -0.0806
  100OSM      P 9997   6.331   2.049  10.823  0.4621 -0.1231 -0.0515
  100OSM    O13 9998   6.358   1.906  10.798 -0.7170 -0.2336 -0.0311
  100OSM    O14 9999   6.256   2.072  10.946  0.5179  0.1802  0.0363
  100OSM    O1110000   6.243   2.111  10.699 -0.0766  0.0487 -0.0989
  100OSM    O1210001   6.457   2.139  10.825  0.0088 -0.0506  0.3775
  100OSM    C1S10002   6.300   2.115  10.571 -0.2862 -0.5094  0.0106
  100OSM    H1S10003   6.296   2.017  10.519 -0.3807  0.0299 -1.0182
  100OSM    H1T10004   6.410   2.130  10.567 -0.3292 -0.2116 -0.1496
  100OSM     NF10005   6.286   2.207  10.340 -0.3556 -0.1154  0.5198
  100OSM    HNF10006   6.345   2.285  10.320  0.5361 -0.5269  1.5299
  100OSM    C2S10007   6.229   2.215  10.475  0.3227  0.2601  0.1974
  100OSM    H2S10008   6.127   2.171  10.475  0.1729  0.5901 -0.7669
  100OSM    C3S10009   6.220   2.361  10.536 -0.1268  0.1880 -0.3483
  100OSM    H3S10010   6.321   2.406  10.526  0.1970 -0.8623 -1.9727
  100OSM     O310011   6.197   2.365  10.678 -0.6765 -0.3417  1.0176
  100OSM    HO310012   6.197   2.274  10.709 -0.4865 -0.5779  0.3475
  100OSM    C4S10013   6.118   2.448  10.462 -0.5411 -0.4571  0.1006
  100OSM    H4S10014   6.014   2.412  10.468 -0.9540  0.6195 -0.4894
  100OSM    C5S10015   6.161   2.556  10.392  0.9818  0.3572  0.0000
  100OSM    H5S10016   6.268   2.577  10.383  1.0576 -0.2650 -0.5449
  100OSM    C6S10017   6.077   2.655  10.308  0.1388 -0.0444 -0.4435
  100OSM    H6S10018   6.131   2.752  10.306  0.8591 -0.4592 -1.4365
  100OSM    H6T10019   5.978   2.678  10.354  0.0295 -1.9009  0.3067
  100OSM    C7S10020   6.070   2.606  10.160 -0.4921 -0.0552 -0.0513
  100OSM    H7S10021   6.005   2.516  10.160 -0.5852  0.0060 -0.9817
  100OSM    H7T10022   6.169   2.574  10.120  0.0942 -1.0661  2.1371
  100OSM    C8S10023   6.016   2.703  10.056 -0.3748  0.2379 -0.6130
  100OSM    H8S10024   6.059   2.800  10.090  1.9053 -0.9823  0.1226
  100OSM    H8T10025   5.906   2.719  10.054 -0.6420 -1.1196  1.3339
  100OSM    C9S10026   6.063   2.677   9.913  0.7871 -0.2466  0.1822
  100OSM    H9S10027   6.027   2.577   9.881  0.1341  0.1022 -0.1947
  100OSM    H9T10028   6.173   2.692   9.910  0.5887  1.0502 -1.8985
  100OSM   C10S10029   5.994   2.766   9.802 -0.2530 -0.1683 -0.1028
  100OSM   H10S10030   6.004   2.874   9.826 -1.3705 -0.0741 -0.0233
  100OSM   H10T10031   5.885   2.741   9.802 -0.4236  0.4948  1.3900
  100OSM   C11S10032   6.044   2.743   9.662  0.3723  0.3240  0.3122
  100OSM   H11S10033   5.983   2.669   9.606  0.2791  1.0211 -0.5242
  100OSM   H11T10034   6.148   2.707   9.657  0.1703 -0.4431  1.2921
  100OSM   C12S10035   6.035   2.871   9.571  0.0587  0.0018  0.0638
  100OSM   H12S10036   6.130   2.929   9.567  0.5797 -0.8732 -0.2977
  100OSM   H12T10037   5.957   2.937   9.614 -1.3161 -0.8770 -1.0338
  100OSM   C13S10038   5.992   2.836   9.426 -0.5257 -0.8339 -0.7793
  100OSM   H13S10039   5.900   2.775   9.429 -0.3623 -1.1136 -1.3746
  100OSM   H13T10040   6.075   2.773   9.389  1.4073  2.2818 -1.9888
  100OSM   C14S10041   5.986   2.958   9.333 -0.2769  0.3997  0.6575
  100OSM   H14S10042   6.085   3.007   9.318 -0.8169  1.4885  0.6102
  100OSM   H14T10043   5.928   3.042   9.375  1.2361  1.5235  0.5401
  100OSM   C15S10044   5.929   2.921   9.192  0.4944  0.6021  0.6764
  100OSM   H15S10045   5.976   2.823   9.169  1.9348  1.5910 -0.7187
  100OSM   H15T10046   5.960   2.991   9.111  4.0028  0.3368  1.7006
  100OSM   C16S10047   5.781   2.907   9.177  0.2422 -0.4705 -0.0087
  100OSM   H16S10048   5.726   3.002   9.157 -0.1740 -0.7471 -0.1963
  100OSM   H16T10049   5.727   2.862   9.263 -0.0231  0.7736  0.4979
  100OSM   C17S10050   5.732   2.820   9.058  0.3395  0.4232  0.0918
  100OSM   H17S10051   5.764   2.855   8.957 -0.0596  0.2101 -0.1103
  100OSM   H17T10052   5.621   2.827   9.051  0.5789  3.2038 -2.1189
  100OSM   C18S10053   5.765   2.678   9.065  0.5303  0.2089  0.7604
  100OSM   H18S10054   5.867   2.668   9.024  0.0748  1.2356 -0.6567
  100OSM   H18T10055   5.703   2.607   9.005  1.3786 -0.2789  0.4478
  100OSM   H18U10056   5.771   2.633   9.166  1.1005 -3.1074 -0.6571
  100OSM    C1F10057   6.283   2.097  10.268 -0.5543 -0.3871  0.5875
  100OSM     OF10058   6.206   2.005  10.295  0.4190  0.3354 -0.3112
  100OSM    C2F10059   6.378   2.090  10.152 -0.1267 -0.5197 -0.5697
  100OSM    H2F10060   6.463   2.027  10.186  3.4162  4.4583  0.3678
  100OSM    H2G10061   6.428   2.184  10.120  0.3750 -0.9530 -1.0602
  100OSM    C3F10062   6.316   2.025  10.030  0.0097 -0.0077 -0.0433
  100OSM    H3F10063   6.263   1.932  10.061 -0.8646  0.9290  1.3332
  100OSM    H3G10064   6.393   2.016   9.951 -0.9592 -0.3458 -0.9564
  100OSM    C4F10065   6.195   2.109   9.967  0.3496 -0.2182  0.1465
  100OSM    H4F10066   6.106   2.127  10.031  0.3159  1.1302 -0.2736
  100OSM    H4G10067   6.158   2.049   9.881  0.0013  1.3790 -0.8365
  100OSM    C5F10068   6.245   2.234   9.904  0.3738 -0.2811 -0.2901
  100OSM    H5F10069   6.352   2.230   9.875  0.5311  3.3530 -0.3733
  100OSM    H5G10070   6.232   2.332   9.954 -0.0184 -0.0553 -0.8330
  100OSM    C6F10071   6.165   2.261   9.770 -0.0568 -0.6590  0.6374
  100OSM    H6F10072   6.055   2.264   9.786 -0.4672 -1.6131 -1.7632
  100OSM    H6G10073   6.180   2.174   9.703  0.0477  0.5222 -0.8820
  100OSM    C7F10074   6.200   2.392   9.691 -0.4749  0.8154  0.3577
  100OSM    H7F10075   6.220   2.465   9.773 -0.0766  0.5996  0.4513
  100OSM    H7G10076   6.108   2.424   9.637 -1.6071 -0.9953  1.1894
  100OSM    C8F10077   6.308   2.383   9.588  0.3120  0.1091 -0.0749
  100OSM    H8F10078   6.276   2.321   9.501 -1.1858 -0.5048  0.8936
  100OSM    H8G10079   6.393   2.323   9.627  0.7602  1.5506  1.2098
  100OSM    C9F10080   6.355   2.513   9.530  0.0066 -0.5585  0.1711
  100OSM    H9F10081   6.403   2.569   9.612 -3.5849  0.6817  1.5221
  100OSM   C10F10082   6.357   2.560   9.406  0.5269 -0.3022 -0.2853
  100OSM   H10F10083   6.385   2.665   9.387  0.6643 -0.2764  0.0645
  100OSM   C11F10084   6.302   2.484   9.281  0.2337  0.1855 -0.4748
  100OSM   H11F10085   6.194   2.509   9.271  0.2157 -0.4515 -2.0148
  100OSM   H11G10086   6.316   2.375   9.290 -1.7998 -0.1850 -1.5379
  100OSM   C12F10087   6.390   2.521   9.162 -0.0439  0.2141  0.6585
  100OSM   H12F10088   6.359   2.452   9.080  0.5672 -0.4427  0.9727
  100OSM   H12G10089   6.499   2.502   9.170 -0.1597 -1.3719 -1.1927
  100OSM   C13F10090   6.371   2.657   9.098 -0.1443 -0.0927 -0.2905
  100OSM   H13F10091   6.382   2.729   9.183 -0.3045 -0.7279  0.2763
  100OSM   H13G10092   6.269   2.680   9.059  0.1480  0.6247 -0.6465
  100OSM   C14F10093   6.475   2.666   8.979  0.2181 -0.3184 -0.5401
  100OSM   H14F10094   6.573   2.617   8.996 -0.5120 -1.6331 -0.0415
  100OSM   H14G10095   6.494   2.772   8.954 -0.8743  0.2837  1.1297
  100OSM   C15F10096   6.406   2.595   8.850 -0.7129 -0.0156 -0.3969
  100OSM   H15F10097   6.295   2.599   8.864 -0.7418  0.3310 -0.7392
  100OSM   H15G10098   6.419   2.485   8.841 -0.1172  0.0914 -0.7937
  100OSM   C16F10099   6.449   2.660   8.724  0.0845  0.0010 -0.9282
  100OSM   H16F10100   6.426   2.768   8.728  2.3882  0.4261  2.0622
  100OSM   H16G10101   6.397   2.624   8.632 -1.4971  0.7547 -0.3557
  100OSM   C17F10102   6.600   2.641   8.701 -0.3213 -0.6791  0.4525
  100OSM   H17F10103   6.620   2.532   8.701 -1.0385 -0.8118 -0.5826
  100OSM   H17G10104   6.650   2.679   8.793 -1.3339 -1.2518  1.2567
  100OSM   C18F10105   6.667   2.706   8.585  0.1870  0.9692 -0.5656
  100OSM   H18F10106   6.651   2.816   8.588 -2.2861  0.8684 -4.9971
  100OSM   H18G10107   6.621   2.676   8.488 -0.0786  0.2492 -0.2160
  100OSM   H18H10108   6.776   2.689   8.576  0.2535  0.6639  0.7270
  101OSM      N10109   2.526   1.966  11.100 -0.7909  0.3508  0.6469
  101OSM    C1510110   2.392   1.955  11.148  0.9925  0.3877 -0.4967
  101OSM   H15A10111   2.338   2.043  11.119 -2.3679 -1.4962 -0.1797
  101OSM   H15B10112   2.377   1.943  11.255  1.7135 -0.9394 -0.5317
  101OSM   H15C10113   2.341   1.879  11.091  0.6296  3.1765 -3.9991
  101OSM    C1410114   2.577   2.104  11.138 -0.1038  0.3527  1.2304
  101OSM   H14A10115   2.541   2.181  11.073 -0.6032 -1.1268 -0.2752
  101OSM   H14B10116   2.685   2.108  11.140 -0.1035  0.1693  1.6256
  101OSM   H14C10117   2.544   2.121  11.240 -0.6568  1.4005  0.8868
  101OSM    C1310118   2.600   1.846  11.147 -0.9966 -0.5732 -0.0994
  101OSM   H13A10119   2.549   1.751  11.136 -0.5247 -0.8708  0.2344
  101OSM   H13B10120   2.608   1.850  11.255 -3.1365 -0.7837  0.0890
  101OSM   H13C10121   2.697   1.845  11.099 -1.1318  0.0524 -0.3882
  101OSM    C1210122   2.527   1.958  10.948  0.2441 -0.1782  0.0947
  101OSM   H12A10123   2.628   1.978  10.914  0.4377 -0.3066  0.5891
  101OSM   H12B10124   2.475   2.042  10.905 -1.5940 -1.2327  0.1958
  101OSM    C1110125   2.478   1.830  10.882  0.3408  0.7298 -0.4392
  101OSM   H11A10126   2.546   1.746  10.906  0.4304  0.8963 -0.1012
  101OSM   H11B10127   2.494   1.841  10.772 -0.8712  0.8696 -0.6133
  101OSM      P10128   2.265   1.673  10.868 -0.1609 -0.1372  0.0729
  101OSM    O1310129   2.316   1.554  10.945  0.0899  0.4606  0.2803
  101OSM    O1410130   2.119   1.703  10.880 -0.2409 -0.4348  0.6712
  101OSM    O1110131   2.292   1.658  10.714  0.0572 -0.0165 -0.1341
  101OSM    O1210132   2.346   1.792  10.916  0.0196 -0.3798 -0.2072
  101OSM    C1S10133   2.250   1.766  10.628 -0.6842 -0.0094 -0.0563
  101OSM    H1S10134   2.308   1.859  10.648 -3.1961  2.1094 -2.3430
  101OSM    H1T10135   2.146   1.797  10.654 -0.3507  1.2296 -0.1797
  101OSM     NF10136   2.225   1.851  10.396 -0.4724  0.5857  0.2826
  101OSM    HNF10137   2.133   1.871  10.363  0.0240 -1.2121 -2.3101
  101OSM    C2S10138   2.256   1.731  10.474 -0.1859 -0.0016 -0.5058
  101OSM    H2S10139   2.357   1.699  10.441  0.4846  2.4529 -0.9488
  101OSM    C3S10140   2.164   1.608  10.448  0.2876  0.2655 -0.1318
  101OSM    H3S10141   2.058   1.632  10.470  0.7243  2.6412 -0.5047
  101OSM     O310142   2.187   1.494  10.527 -0.4531  0.3447  0.6430
  101OSM    HO310143   2.239   1.530  10.599  1.6928  2.0994 -1.6693
  101OSM    C4S10144   2.170   1.569  10.303 -0.5376 -0.0549 -0.1244
  101OSM    H4S10145   2.266   1.589  10.254 -0.7855 -0.7334 -0.8936
  101OSM    C5S10146   2.080   1.503  10.237 -0.0465 -1.1285 -0.1423
  101OSM    H5S10147   1.986   1.481  10.290  1.4343 -1.3161  2.5258
  101OSM    C6S10148   2.094   1.466  10.089 -0.0155 -0.2224 -0.0014
  101OSM    H6S10149   2.021   1.520  10.025  0.1111 -2.3708 -2.0425
  101OSM    H6T10150   2.060   1.362  10.076  1.0401 -0.5809  0.0101
  101OSM    C7S10151   2.235   1.480  10.030  0.0534  0.3792  0.3313
  101OSM    H7S10152   2.315   1.445  10.098  0.2552  0.7520  0.2847
  101OSM    H7T10153   2.258   1.588  10.017 -3.2406  1.3239  1.6420
  101OSM    C8S10154   2.259   1.397   9.899  0.0195 -0.2403 -0.8289
  101OSM    H8S10155   2.265   1.291   9.933 -0.7715  0.2117  0.7941
  101OSM    H8T10156   2.356   1.426   9.852  1.2487 -0.5983  1.3948
  101OSM    C9S10157   2.150   1.413   9.784 -0.0718  0.1242  0.3302
  101OSM    H9S10158   2.051   1.428   9.832 -0.7189 -2.0022 -0.2862
  101OSM    H9T10159   2.150   1.323   9.719 -2.7077  0.2325  0.1343
  101OSM   C10S10160   2.182   1.545   9.710  0.0038 -0.6401 -0.7314
  101OSM   H10S10161   2.291   1.540   9.685  0.1459 -0.4456 -0.1545
  101OSM   H10T10162   2.175   1.629   9.782 -3.2638  0.0104 -1.7790
  101OSM   C11S10163   2.113   1.577   9.573 -0.0567  0.6340 -0.3395
  101OSM   H11S10164   2.154   1.667   9.522  0.2505 -0.5558 -2.2401
  101OSM   H11T10165   2.015   1.615   9.609  0.6031  1.8151  0.2377
  101OSM   C12S10166   2.102   1.445   9.487 -0.7438 -0.2279  0.6821
  101OSM   H12S10167   2.046   1.372   9.550 -0.6353 -0.3595  0.6266
  101OSM   H12T10168   2.202   1.403   9.462 -0.9541  0.0297 -0.6310
  101OSM   C13S10169   2.031   1.462   9.353  0.3936  0.2783 -0.1861
  101OSM   H13S10170   1.921   1.465   9.372  0.5194  1.6540  0.3406
  101OSM   H13T10171   2.053   1.365   9.304  2.2484  1.3517 -1.5133
  101OSM   C14S10172   2.070   1.579   9.263  0.3034 -0.4423 -0.6756
  101OSM   H14S10173   2.177   1.592   9.234  0.1248  2.1124 -0.2667
  101OSM   H14T10174   2.024   1.667   9.310 -1.2148 -0.9379 -1.2055
  101OSM   C15S10175   1.993   1.570   9.128  0.8727 -0.1658 -1.0078
  101OSM   H15S10176   1.892   1.593   9.168  2.3308  0.1348  2.7431
  101OSM   H15T10177   1.993   1.466   9.089  0.0962 -0.6952  0.3983
  101OSM   C16S10178   2.052   1.663   9.022 -0.6966 -0.4445  0.1997
  101OSM   H16S10179   2.163   1.659   9.017 -0.5524  0.8064  1.8530
  101OSM   H16T10180   2.033   1.762   9.069  0.4531 -0.1490  0.0473
  101OSM   C17S10181   1.994   1.657   8.880  0.0336  0.5351 -0.5708
  101OSM   H17S10182   1.885   1.670   8.893 -0.1425 -0.0154 -1.4163
  101OSM   H17T10183   2.000   1.557   8.830  3.2531  1.2363 -1.6978
  101OSM   C18S10184   2.052   1.763   8.793  0.5188  0.5237 -0.6302
  101OSM   H18S10185   2.159   1.737   8.779  0.5439 -0.4275  1.2305
  101OSM   H18T10186   2.038   1.863   8.841 -0.6456  1.7090 -3.3239
  101OSM   H18U10187   2.007   1.756   8.692 -0.9565 -0.8190  0.1015
  101OSM    C1F10188   2.315   1.949  10.404  0.2637  0.0920 -0.2767
  101OSM     OF10189   2.427   1.937  10.456  0.1182  0.0208 -0.5261
  101OSM    C2F10190   2.263   2.082  10.365 -0.3927  0.3653  0.5636
  101OSM    H2F10191   2.223   2.132  10.456  0.0482 -0.7594  1.3906
  101OSM    H2G10192   2.173   2.070  10.301 -1.8907 -1.7508  3.0033
  101OSM    C3F10193   2.362   2.172  10.295 -0.0716  0.0915 -0.2392
  101OSM    H3F10194   2.412   2.124  10.208 -1.0176 -0.8947 -0.2561
  101OSM    H3G10195   2.442   2.210  10.362 -0.5429  0.4047  0.1479
  101OSM    C4F10196   2.283   2.289  10.243  0.9307  0.2748  0.8913
  101OSM    H4F10197   2.203   2.325  10.311 -0.5335 -3.2366  1.1401
  101OSM    H4G10198   2.225   2.245  10.159  0.8873  1.3160  0.3811
  101OSM    C5F10199   2.359   2.417  10.204 -0.3474 -0.2641  0.3653
  101OSM    H5F10200   2.465   2.393  10.228  0.5574 -0.8219 -3.8306
  101OSM    H5G10201   2.323   2.513  10.247 -2.1125 -1.4280  1.5283
  101OSM    C6F10202   2.344   2.447  10.050 -0.4837  0.8158 -0.7907
  101OSM    H6F10203   2.234   2.449  10.034 -0.7026  0.1675  0.6221
  101OSM    H6G10204   2.380   2.546  10.014 -2.7595  2.5482  1.5484
  101OSM    C7F10205   2.409   2.338   9.958 -0.5797 -0.3219 -0.0207
  101OSM    H7F10206   2.370   2.236   9.978 -0.2277 -0.4984 -0.2323
  101OSM    H7G10207   2.510   2.346  10.004 -0.3931 -0.8890 -0.3248
  101OSM    C8F10208   2.422   2.376   9.806 -0.4072 -0.0868 -0.9476
  101OSM    H8F10209   2.514   2.436   9.790  0.5440 -1.1573  0.3629
  101OSM    H8G10210   2.330   2.423   9.765 -0.1065 -1.3554 -3.1811
  101OSM    C9F10211   2.441   2.251   9.729 -0.2340  0.2108 -0.3754
  101OSM    H9F10212   2.478   2.168   9.792 -2.4780  0.8365  1.8144
  101OSM   C10F10213   2.418   2.234   9.598 -0.3307 -0.3818  0.7379
  101OSM   H10F10214   2.436   2.141   9.541  1.3821  0.1588  0.3893
  101OSM   C11F10215   2.371   2.339   9.507  0.5960 -0.2577  0.3075
  101OSM   H11F10216   2.357   2.436   9.559  1.8117  1.2834 -2.1481
  101OSM   H11G10217   2.269   2.312   9.474  1.1207 -1.9446  0.0031
  101OSM   C12F10218   2.472   2.349   9.388  0.3335  0.1215  0.0969
  101OSM   H12F10219   2.493   2.248   9.347 -2.8166 -0.2607 -0.6591
  101OSM   H12G10220   2.567   2.389   9.431 -0.2861  2.0479 -0.3061
  101OSM   C13F10221   2.408   2.447   9.282 -0.1221 -0.4451  0.0970
  101OSM   H13F10222   2.384   2.538   9.341  1.8065  0.7495 -0.9042
  101OSM   H13G10223   2.302   2.415   9.267 -0.1120 -0.4309 -0.0060
  101OSM   C14F10224   2.478   2.471   9.149 -0.3995 -0.3553  0.6015
  101OSM   H14F10225   2.500   2.373   9.100 -1.4156  0.9559 -2.6124
  101OSM   H14G10226   2.572   2.528   9.161 -0.6185  0.0285  0.4875
  101OSM   C15F10227   2.376   2.556   9.067 -0.6859  0.4399 -0.2721
  101OSM   H15F10228   2.326   2.628   9.135  1.4386  1.7222 -0.0206
  101OSM   H15G10229   2.299   2.484   9.033  0.1194  0.8373 -3.0641
  101OSM   C16F10230   2.421   2.622   8.933  0.7369  0.0157  0.3307
  101OSM   H16F10231   2.332   2.674   8.890  1.1319 -0.7124 -1.3871
  101OSM   H16G10232   2.468   2.547   8.866  1.2005  1.0666 -0.5342
  101OSM   C17F10233   2.529   2.724   8.967  0.1318 -0.1314  0.5004
  101OSM   H17F10234   2.615   2.685   9.025 -0.0864 -0.4909  0.5819
  101OSM   H17G10235   2.477   2.801   9.027 -0.0913 -0.2457  0.4522
  101OSM   C18F10236   2.586   2.788   8.838 -0.2017  0.6696  0.7631
  101OSM   H18F10237   2.644   2.878   8.869  0.3172  1.0733 -1.3102
  101OSM   H18G10238   2.500   2.818   8.775 -0.3429 -0.4444  0.4335
  101OSM   H18H10239   2.638   2.718   8.770  0.1410 -2.3808  4.0409
  102OSM      N10240   5.206   3.787  11.065  0.2930 -0.0722 -0.1405
  102OSM    C1510241   5.308   3.886  11.092 -0.1354  0.8173 -0.1194
  102OSM   H15A10242   5.284   3.985  11.056  3.1819  1.6412 -0.1817
  102OSM   H15B10243   5.408   3.873  11.054  0.4635  2.2399  0.9253
  102OSM   H15C10244   5.328   3.895  11.198 -0.0114  0.3836 -0.1036
  102OSM    C1410245   5.225   3.670  11.153  0.1164  0.5579  0.1408
  102OSM   H14A10246   5.221   3.703  11.255 -0.9080  0.6443  0.0810
  102OSM   H14B10247   5.319   3.622  11.133  0.4049  1.8888 -1.8764
  102OSM   H14C10248   5.143   3.600  11.158  1.1920 -0.7787 -0.5906
  102OSM    C1310249   5.076   3.842  11.109  0.1856 -0.2396 -0.3680
  102OSM   H13A10250   5.041   3.913  11.035 -0.8026  0.2523  0.5543
  102OSM   H13B10251   5.109   3.897  11.197  3.0383 -0.7677 -1.0681
  102OSM   H13C10252   4.999   3.772  11.137 -1.0272  1.2238  0.0749
  102OSM    C1210253   5.199   3.741  10.915 -0.2428 -0.4907  0.1313
  102OSM   H12A10254   5.140   3.650  10.909  1.7883 -1.8228 -0.2174
  102OSM   H12B10255   5.302   3.714  10.894 -0.5245 -0.4887 -1.2893
  102OSM    C1110256   5.151   3.832  10.795 -0.1043  0.1004  0.2513
  102OSM   H11A10257   5.161   3.779  10.699  3.7184  2.0310 -0.5114
  102OSM   H11B10258   5.227   3.913  10.799  2.3985 -2.1388 -0.3557
  102OSM      P10259   4.900   3.811  10.798  0.5611  0.4283 -0.6144
  102OSM    O1310260   4.926   3.665  10.767  0.1247 -0.0000  0.0563
  102OSM    O1410261   4.824   3.837  10.919 -0.0315 -0.3244  0.7500
  102OSM    O1110262   4.819   3.881  10.681 -1.4182 -0.2442 -0.1319
  102OSM    O1210263   5.029   3.895  10.813 -0.1691  0.5950 -0.2342
  102OSM    C1S10264   4.891   3.969  10.587 -0.2316 -0.1794 -1.1809
  102OSM    H1S10265   4.950   3.904  10.520 -0.7814 -1.7960 -0.1179
  102OSM    H1T10266   4.965   4.030  10.644 -1.6189  0.5909 -0.1677
  102OSM     NF10267   4.876   4.148  10.422  0.1845 -0.0565 -0.3246
  102OSM    HNF10268   4.911   4.231  10.464  1.6726 -0.6367 -0.3849
  102OSM    C2S10269   4.793   4.061  10.504 -0.0003 -0.4094 -0.5886
  102OSM    H2S10270   4.743   3.990  10.434 -0.3356  0.2768 -1.0487
  102OSM    C3S10271   4.713   4.135  10.612  0.1834 -1.0002  0.3143
  102OSM    H3S10272   4.781   4.161  10.697 -1.5953 -0.0604  1.4729
  102OSM     O310273   4.615   4.061  10.684  0.4644 -0.1485 -0.4207
  102OSM    HO310274   4.603   3.982  10.631 -0.5797 -1.0313  1.1008
  102OSM    C4S10275   4.649   4.266  10.558 -0.1973 -0.0480 -0.1620
  102OSM    H4S10276   4.623   4.269  10.451 -2.7540 -0.4689  0.4157
  102OSM    C5S10277   4.628   4.379  10.620 -0.3738  0.4951 -0.3958
  102OSM    H5S10278   4.665   4.379  10.723  0.4605  1.0208 -0.6931
  102OSM    C6S10279   4.556   4.508  10.571 -0.1197  0.3264 -0.7628
  102OSM    H6S10280   4.626   4.594  10.569  2.3028 -1.5851 -1.0172
  102OSM    H6T10281   4.476   4.532  10.644  1.6147  1.3015  0.8559
  102OSM    C7S10282   4.509   4.496  10.423 -0.4681 -0.4333  0.0224
  102OSM    H7S10283   4.409   4.447  10.418 -0.7526  0.1194  0.2900
  102OSM    H7T10284   4.592   4.444  10.370  0.3965  0.7658  0.1838
  102OSM    C8S10285   4.499   4.632  10.349 -0.1947 -0.0370 -0.0333
  102OSM    H8S10286   4.596   4.684  10.366  0.1780 -0.9053  0.5081
  102OSM    H8T10287   4.424   4.692  10.405 -0.6752 -0.2737 -0.4198
  102OSM    C9S10288   4.484   4.616  10.199  0.0570  0.1399  0.2341
  102OSM    H9S10289   4.401   4.546  10.176  2.0815 -1.9229 -0.9907
  102OSM    H9T10290   4.583   4.584  10.159 -0.3551 -2.9015  1.5480
  102OSM   C10S10291   4.456   4.751  10.129 -0.1658  0.2057 -0.2368
  102OSM   H10S10292   4.553   4.805  10.119  0.3553 -0.8002 -0.6325
  102OSM   H10T10293   4.380   4.801  10.193 -1.3756 -2.9263  0.8750
  102OSM   C11S10294   4.407   4.721   9.990  0.1954  0.7343  0.2323
  102OSM   H11S10295   4.308   4.671   9.997  0.3766  0.7015  2.9237
  102OSM   H11T10296   4.482   4.660   9.936 -0.4289 -1.5011  1.8187
  102OSM   C12S10297   4.377   4.842   9.902  0.2695 -0.3454  0.3116
  102OSM   H12S10298   4.460   4.914   9.884 -1.3287  1.4204 -0.2167
  102OSM   H12T10299   4.292   4.895   9.952  0.6168 -0.7291  1.3197
  102OSM   C13S10300   4.327   4.792   9.761 -0.3139  0.1321 -0.0579
  102OSM   H13S10301   4.262   4.869   9.714  1.7406 -0.2098 -3.5873
  102OSM   H13T10302   4.266   4.702   9.785  0.1329 -0.3376 -0.6825
  102OSM   C14S10303   4.432   4.754   9.660  0.2985 -0.5199  0.1917
  102OSM   H14S10304   4.398   4.684   9.581  1.7548  0.0635 -0.9643
  102OSM   H14T10305   4.520   4.700   9.701  0.8251 -0.2645 -0.5992
  102OSM   C15S10306   4.483   4.880   9.580 -0.4775  0.0648  0.5212
  102OSM   H15S10307   4.534   4.944   9.656 -1.0399  2.4274 -1.0182
  102OSM   H15T10308   4.401   4.940   9.536 -1.4585 -0.7674  1.1923
  102OSM   C16S10309   4.585   4.856   9.471  0.2326  0.4915 -0.1511
  102OSM   H16S10310   4.531   4.785   9.404  0.6447 -1.9583  2.0278
  102OSM   H16T10311   4.673   4.802   9.514 -0.8917  0.4089  2.1103
  102OSM   C17S10312   4.629   4.977   9.389  0.3084 -0.4739 -0.3830
  102OSM   H17S10313   4.545   5.006   9.321  1.6331 -1.3053 -2.4379
  102OSM   H17T10314   4.719   4.953   9.328 -0.1946  1.5925 -2.0086
  102OSM   C18S10315   4.671   5.085   9.482 -0.3350 -0.4459 -0.5160
  102OSM   H18S10316   4.696   5.180   9.431 -2.7611  1.2823  1.4347
  102OSM   H18T10317   4.756   5.052   9.546 -1.1562  0.0354  0.8421
  102OSM   H18U10318   4.585   5.110   9.547  1.3766  2.0653  0.8677
  102OSM    C1F10319   4.953   4.097  10.325 -0.0815 -0.5401  0.4594
  102OSM     OF10320   4.932   3.981  10.284  0.1370 -0.5711  0.2888
  102OSM    C2F10321   5.081   4.168  10.305 -0.4268 -0.2093 -0.1258
  102OSM    H2F10322   5.161   4.101  10.268  0.4246 -1.0426  3.0254
  102OSM    H2G10323   5.102   4.207  10.408  0.1963  3.2872 -1.4816
  102OSM    C3F10324   5.058   4.283  10.200  0.1564  0.4924 -0.3434
  102OSM    H3F10325   5.153   4.340  10.189 -0.1094  0.9526 -0.2563
  102OSM    H3G10326   4.986   4.361  10.230 -0.1707  0.5507 -1.2426
  102OSM    C4F10327   5.033   4.235  10.056 -0.1755 -0.2702  0.7238
  102OSM    H4F10328   4.930   4.197  10.038 -0.0993 -0.2233  0.1847
  102OSM    H4G10329   5.087   4.138  10.041 -0.1130 -0.1358  0.0816
  102OSM    C5F10330   5.085   4.333   9.951 -0.2302  0.7444  0.4454
  102OSM    H5F10331   5.184   4.375   9.980 -0.1699  0.6007  0.4473
  102OSM    H5G10332   5.007   4.412   9.952  0.9768  1.9425  3.5218
  102OSM    C6F10333   5.114   4.265   9.812  0.7249  0.3471 -0.2279
  102OSM    H6F10334   5.010   4.251   9.775  0.6351 -1.2860  0.5646
  102OSM    H6G10335   5.171   4.169   9.812  0.5967  0.2675 -1.2079
  102OSM    C7F10336   5.182   4.366   9.730  0.5823  0.1194  0.2370
  102OSM    H7F10337   5.266   4.408   9.789 -0.1826  2.3577 -0.2065
  102OSM    H7G10338   5.114   4.454   9.721  2.9334  1.8726 -1.0513
  102OSM    C8F10339   5.223   4.314   9.591 -0.0399  0.4143 -0.3571
  102OSM    H8F10340   5.142   4.280   9.524  0.8815 -0.3136 -1.1174
  102OSM    H8G10341   5.288   4.225   9.605  0.2095  0.7116  0.4095
  102OSM    C9F10342   5.288   4.430   9.512 -0.5845  0.4131  0.0631
  102OSM    H9F10343   5.361   4.488   9.571 -1.5411 -0.0152  1.6958
  102OSM   C10F10344   5.282   4.454   9.383 -0.1660 -0.2456  0.4397
  102OSM   H10F10345   5.345   4.533   9.339  1.7372 -1.2269  1.3517
  102OSM   C11F10346   5.196   4.374   9.292  0.0226 -0.2805  0.4777
  102OSM   H11F10347   5.086   4.385   9.305 -0.2001  1.5836 -2.5483
  102OSM   H11G10348   5.223   4.268   9.311  2.2935 -0.4546 -3.2967
  102OSM   C12F10349   5.223   4.405   9.139  0.0865  0.3881 -0.4079
  102OSM   H12F10350   5.332   4.392   9.120 -0.1973 -0.5425 -1.4819
  102OSM   H12G10351   5.197   4.512   9.127 -1.7338 -0.0067 -0.0376
  102OSM   C13F10352   5.126   4.333   9.039  0.4579  0.0777 -0.4839
  102OSM   H13F10353   5.061   4.414   8.999  0.8306  0.6503  0.0699
  102OSM   H13G10354   5.061   4.271   9.104 -0.3365  1.6476  0.2393
  102OSM   C14F10355   5.193   4.253   8.927  0.0834 -0.5376  0.5452
  102OSM   H14F10356   5.120   4.212   8.853  2.3630  0.0753 -2.1600
  102OSM   H14G10357   5.237   4.161   8.970 -1.8254 -1.4614  0.5435
  102OSM   C15F10358   5.277   4.331   8.820 -0.3722 -0.3727 -0.0145
  102OSM   H15F10359   5.358   4.369   8.885  0.8787  0.9021 -2.2582
  102OSM   H15G10360   5.214   4.420   8.799 -0.3287 -0.2471  0.3993
  102OSM   C16F10361   5.313   4.252   8.697  0.0380  0.9463  0.2635
  102OSM   H16F10362   5.223   4.244   8.632  0.9547  0.5941 -0.9663
  102OSM   H16G10363   5.346   4.150   8.726 -1.0312  1.4123  3.2717
  102OSM   C17F10364   5.417   4.322   8.612  0.3764 -0.0575  0.5755
  102OSM   H17F10365   5.502   4.341   8.681 -1.4965  1.7826  2.4452
  102OSM   H17G10366   5.382   4.424   8.586  1.2486 -0.5640 -2.7888
  102OSM   C18F10367   5.458   4.245   8.490 -0.6327  0.3234  1.0662
  102OSM   H18F10368   5.526   4.161   8.518 -1.1541 -0.2592  0.5805
  102OSM   H18G10369   5.517   4.326   8.444 -0.0385  0.3805  1.9018
  102OSM   H18H10370   5.369   4.221   8.428 -0.4864  0.3241  0.8569
  103OSM      N10371   3.714   0.791  11.347  1.0245  0.2099  0.2936
  103OSM    C1510372   3.781   0.704  11.453  0.2005 -0.5734  0.3970
  103OSM   H15A10373   3.831   0.615  11.418  2.7828  0.2462  1.8865
  103OSM   H15B10374   3.705   0.671  11.522 -0.5418  0.4896  0.1030
  103OSM   H15C10375   3.857   0.758  11.508  1.2944  0.4605 -2.0406
  103OSM    C1410376   3.659   0.921  11.412  0.3628  0.2165 -0.9667
  103OSM   H14A10377   3.606   0.992  11.350 -1.9281 -1.6792 -1.2814
  103OSM   H14B10378   3.741   0.975  11.458  1.0955 -1.7439  0.0775
  103OSM   H14C10379   3.589   0.901  11.491  1.5524 -1.9213 -0.4074
  103OSM    C1310380   3.817   0.836  11.248  0.7613  0.4507 -0.6714
  103OSM   H13A10381   3.766   0.896  11.174  0.8130  0.3516 -0.7878
  103OSM   H13B10382   3.850   0.751  11.190  1.8226 -0.5861  1.4107
  103OSM   H13C10383   3.899   0.891  11.292  0.1456 -0.1816  1.3203
  103OSM    C1210384   3.602   0.715  11.282  0.4197 -0.2983  0.3713
  103OSM   H12A10385   3.522   0.700  11.353 -1.3502  0.5115 -1.4125
  103OSM   H12B10386   3.636   0.614  11.267  1.7620  0.0999  0.5656
  103OSM    C1110387   3.554   0.762  11.155 -0.5327  0.1058  0.4470
  103OSM   H11A10388   3.552   0.872  11.170  3.4575  0.2381  0.4425
  103OSM   H11B10389   3.449   0.726  11.145 -0.1930 -0.3806 -1.5948
  103OSM      P10390   3.638   0.593  10.973 -0.0295 -0.2283  0.0458
  103OSM    O1310391   3.767   0.567  10.902 -0.3351  0.1245  0.1650
  103OSM    O1410392   3.582   0.490  11.056 -0.0515  0.8011 -0.5464
  103OSM    O1110393   3.529   0.612  10.864 -0.0178 -0.7340 -0.3443
  103OSM    O1210394   3.648   0.729  11.046  0.3090  0.1220  0.2615
  103OSM    C1S10395   3.536   0.725  10.779  0.1940  0.1000 -0.0552
  103OSM    H1S10396   3.621   0.718  10.707 -0.8941 -2.1930 -1.1668
  103OSM    H1T10397   3.551   0.817  10.840  1.3268 -0.5148  0.6077
  103OSM     NF10398   3.424   0.832  10.580 -0.5806 -0.3097  0.1269
  103OSM    HNF10399   3.381   0.920  10.601 -1.0022 -0.9042  1.8698
  103OSM    C2S10400   3.402   0.740  10.686  0.4955 -0.2068 -0.0740
  103OSM    H2S10401   3.391   0.643  10.634  1.4161 -0.1726 -0.3498
  103OSM    C3S10402   3.276   0.773  10.772  0.1928 -0.0477 -0.0823
  103OSM    H3S10403   3.289   0.878  10.805 -0.6961  0.4496 -1.2887
  103OSM     O310404   3.270   0.699  10.890  0.0877  0.3159 -0.5308
  103OSM    HO310405   3.356   0.657  10.895 -0.9721 -1.6541  4.3630
  103OSM    C4S10406   3.154   0.765  10.689 -0.3721 -0.4511  0.0929
  103OSM    H4S10407   3.147   0.669  10.636 -0.1423  0.1845 -1.1113
  103OSM    C5S10408   3.051   0.849  10.663 -0.0887  1.0656 -0.0497
  103OSM    H5S10409   3.065   0.954  10.692  0.5169  1.1792 -0.7555
  103OSM    C6S10410   2.936   0.831  10.571 -0.0153 -0.5568  0.2413
  103OSM    H6S10411   2.840   0.846  10.626  0.2428 -1.1190  0.8520
  103OSM    H6T10412   2.920   0.728  10.532  0.4111 -0.6355  0.2722
  103OSM    C7S10413   2.938   0.916  10.445  0.5024 -0.2352  0.0051
  103OSM    H7S10414   2.951   1.026  10.452  1.0669 -0.2969 -0.1021
  103OSM    H7T10415   2.849   0.878  10.390  0.0097 -1.0295  1.3229
  103OSM    C8S10416   3.042   0.863  10.351  0.7991 -0.0109  0.2501
  103OSM    H8S10417   3.041   0.753  10.338  1.0284 -0.1504  1.3216
  103OSM    H8T10418   3.143   0.886  10.391  1.5907 -0.5122 -1.4118
  103OSM    C9S10419   3.007   0.933  10.215  0.5170  0.7439  0.5315
  103OSM    H9S10420   3.008   1.044  10.230  0.0415  1.5296 -4.3767
  103OSM    H9T10421   2.902   0.911  10.186  1.5986 -0.9737 -2.2682
  103OSM   C10S10422   3.093   0.894  10.095 -0.3356 -0.4035  0.2951
  103OSM   H10S10423   3.090   0.783  10.087 -0.8886 -0.2968 -1.1937
  103OSM   H10T10424   3.194   0.931  10.122 -0.5251  0.0094  0.4351
  103OSM   C11S10425   3.052   0.947   9.956  0.0061 -0.1310  0.2414
  103OSM   H11S10426   3.041   1.058   9.957 -1.3036 -0.2317 -1.3242
  103OSM   H11T10427   2.949   0.907   9.944 -1.0044  1.7874  2.0304
  103OSM   C12S10428   3.137   0.894   9.843 -0.2016 -0.2179 -0.4181
  103OSM   H12S10429   3.152   0.784   9.840  0.0977 -0.2035  0.4966
  103OSM   H12T10430   3.239   0.933   9.860 -0.3372 -1.2680  3.1815
  103OSM   C13S10431   3.102   0.936   9.698  0.4116 -0.7719 -0.4257
  103OSM   H13S10432   3.093   1.046   9.689 -0.7894 -0.8144  0.1450
  103OSM   H13T10433   3.004   0.888   9.679  0.3465 -0.6880 -0.3013
  103OSM   C14S10434   3.203   0.879   9.597  0.5177  0.1858 -0.1601
  103OSM   H14S10435   3.207   0.769   9.605 -0.3968  0.0453 -1.4222
  103OSM   H14T10436   3.301   0.927   9.620  0.5649 -0.2092  0.4552
  103OSM   C15S10437   3.158   0.905   9.455 -0.4556 -0.1634  0.1031
  103OSM   H15S10438   3.169   1.014   9.435 -1.6202 -0.4097 -2.0553
  103OSM   H15T10439   3.047   0.895   9.447 -0.4096 -0.3825 -0.2857
  103OSM   C16S10440   3.223   0.816   9.346 -0.2241 -0.4275  0.2200
  103OSM   H16S10441   3.202   0.708   9.360  1.0633 -0.7459 -0.2716
  103OSM   H16T10442   3.333   0.827   9.338 -0.4337  1.5159 -0.1212
  103OSM   C17S10443   3.180   0.855   9.202  1.2676  0.4880 -0.1563
  103OSM   H17S10444   3.070   0.864   9.185  1.2251 -0.6719 -0.5031
  103OSM   H17T10445   3.196   0.770   9.134 -1.1571 -0.8241  0.8516
  103OSM   C18S10446   3.242   0.973   9.139 -0.3426 -0.8739  0.1928
  103OSM   H18S10447   3.350   0.965   9.117 -0.2199  1.9297 -0.4687
  103OSM   H18T10448   3.227   1.065   9.200 -2.0314 -2.0480  1.5682
  103OSM   H18U10449   3.206   1.003   9.038 -0.7278 -0.6675  0.3859
  103OSM    C1F10450   3.524   0.826  10.491  0.1448 -0.3063  1.0715
  103OSM     OF10451   3.590   0.722  10.479 -0.3181 -0.2667 -0.7887
  103OSM    C2F10452   3.550   0.947  10.403  0.1022 -0.3765  0.1631
  103OSM    H2F10453   3.620   0.911  10.324  1.0231 -1.8064  1.6012
  103OSM    H2G10454   3.607   1.028  10.453  0.6076 -1.5296  1.4814
  103OSM    C3F10455   3.421   0.998  10.336 -0.0979 -0.4742 -0.3901
  103OSM    H3F10456   3.357   1.054  10.408 -0.3596 -2.5909  1.0890
  103OSM    H3G10457   3.356   0.919  10.293 -0.7525  1.1036 -2.3803
  103OSM    C4F10458   3.452   1.095  10.221 -0.0118 -0.5026  0.3633
  103OSM    H4F10459   3.523   1.170  10.263  3.4642 -2.3339 -1.9639
  103OSM    H4G10460   3.356   1.149  10.205 -1.1606 -2.9847 -1.3500
  103OSM    C5F10461   3.501   1.025  10.095 -0.3841 -0.3681 -0.4570
  103OSM    H5F10462   3.438   0.941  10.056 -1.3419 -0.4954  1.3168
  103OSM    H5G10463   3.598   0.977  10.119  0.5162  0.6169 -2.0674
  103OSM    C6F10464   3.532   1.131   9.990  0.4127 -0.2622  0.2778
  103OSM    H6F10465   3.611   1.207  10.005 -1.7993  2.6214 -1.9424
  103OSM    H6G10466   3.436   1.187   9.977  0.5919  0.4761  2.0322
  103OSM    C7F10467   3.585   1.062   9.862 -0.8887  0.7117  0.3864
  103OSM    H7F10468   3.501   1.015   9.807  0.0069  1.1925 -1.4332
  103OSM    H7G10469   3.668   0.994   9.895 -0.6746  1.2330  0.9336
  103OSM    C8F10470   3.640   1.179   9.768 -0.7909  0.0547 -0.4388
  103OSM    H8F10471   3.681   1.260   9.832  0.1976  0.3329 -1.4123
  103OSM    H8G10472   3.549   1.208   9.712 -2.4324 -1.7331  1.2128
  103OSM    C9F10473   3.749   1.126   9.684 -0.6136 -0.3194 -0.4377
  103OSM    H9F10474   3.852   1.121   9.722 -0.5877 -0.5759 -0.5392
  103OSM   C10F10475   3.740   1.081   9.557 -0.2515 -0.5415  0.3565
  103OSM   H10F10476   3.830   1.059   9.498 -1.2848  1.7199 -2.1701
  103OSM   C11F10477   3.617   1.074   9.470  0.1073 -0.4190 -1.1393
  103OSM   H11F10478   3.524   1.046   9.524  0.2265  1.4525  0.0934
  103OSM   H11G10479   3.635   1.001   9.389  3.0523 -2.7633  1.5141
  103OSM   C12F10480   3.583   1.222   9.403  0.0091 -0.3911  0.0695
  103OSM   H12F10481   3.564   1.299   9.481  0.8285  1.1735 -1.2626
  103OSM   H12G10482   3.492   1.196   9.345  0.5936 -1.7590 -0.2612
  103OSM   C13F10483   3.691   1.263   9.294  0.0999 -0.4666 -0.3785
  103OSM   H13F10484   3.740   1.174   9.249 -1.2270 -0.7914 -1.2159
  103OSM   H13G10485   3.775   1.311   9.347 -0.0705 -2.2470  1.5795
  103OSM   C14F10486   3.635   1.348   9.185  0.1069  0.0553  0.3250
  103OSM   H14F10487   3.573   1.428   9.231  1.1961  0.9040  0.3459
  103OSM   H14G10488   3.561   1.283   9.134  0.4368 -1.1961  1.4075
  103OSM   C15F10489   3.746   1.404   9.101  0.7387 -0.4470 -0.1322
  103OSM   H15F10490   3.831   1.442   9.162 -0.5956  1.5190  0.5716
  103OSM   H15G10491   3.695   1.483   9.042 -0.6199 -2.6428 -1.9797
  103OSM   C16F10492   3.796   1.307   8.998  0.1404  0.1828  0.3052
  103OSM   H16F10493   3.730   1.297   8.909  4.4528 -0.1081 -3.0014
  103OSM   H16G10494   3.816   1.204   9.034  0.5037 -0.3972 -1.4796
  103OSM   C17F10495   3.920   1.370   8.922 -0.8084  0.6500 -0.0587
  103OSM   H17F10496   3.992   1.395   9.003 -0.5058  0.1940 -0.1847
  103OSM   H17G10497   3.889   1.466   8.876 -0.4059  1.1631  0.7395
  103OSM   C18F10498   3.985   1.276   8.818  0.4754 -0.4588  0.4353
  103OSM   H18F10499   3.902   1.221   8.769  0.7588 -0.9201  0.4775
  103OSM   H18G10500   4.060   1.209   8.864 -1.1122 -1.5668  1.4566
  103OSM   H18H10501   4.042   1.333   8.741  1.0175  2.1247  2.6660
  104OSM      N10502   5.177   6.478  11.241  0.3959 -0.4944 -0.2313
  104OSM    C1510503   5.076   6.591  11.277  0.3336 -0.4418  0.1065
  104OSM   H15A10504   5.076   6.664  11.197 -0.2620 -0.5727 -0.0191
  104OSM   H15B10505   5.107   6.651  11.361 -0.9998 -1.6305  1.4746
  104OSM   H15C10506   4.982   6.539  11.292  1.2063 -1.8720  0.7000
  104OSM    C1410507   5.319   6.529  11.226  0.3478  0.0663  0.1352
  104OSM   H14A10508   5.377   6.445  11.190  0.7624 -0.5258  2.1295
  104OSM   H14B10509   5.357   6.553  11.325 -0.5588  2.4250 -0.0560
  104OSM   H14C10510   5.328   6.610  11.155  0.5639 -1.6012 -1.7760
  104OSM    C1310511   5.173   6.376  11.358  0.8525 -0.1678  0.1873
  104OSM   H13A10512   5.075   6.366  11.402 -0.3128  1.0426 -2.0177
  104OSM   H13B10513   5.230   6.424  11.435 -0.6041 -0.0941  1.2355
  104OSM   H13C10514   5.217   6.283  11.326  0.0111 -0.3388 -0.5122
  104OSM    C1210515   5.135   6.410  11.108  0.3740 -0.3207 -0.1960
  104OSM   H12A10516   5.046   6.352  11.126  2.3105 -3.0849  0.7752
  104OSM   H12B10517   5.197   6.323  11.096  2.6164  1.1575  0.4228
  104OSM    C1110518   5.124   6.497  10.985 -0.3157 -0.2949 -0.1604
  104OSM   H11A10519   5.095   6.429  10.902 -0.8373  0.6333 -0.7325
  104OSM   H11B10520   5.221   6.549  10.972 -0.2526 -0.4204 -0.2001
  104OSM      P10521   5.018   6.701  10.866  0.1564 -0.1360 -0.1191
  104OSM    O1310522   4.893   6.774  10.873  0.3679  0.3432  0.1014
  104OSM    O1410523   5.140   6.784  10.859  0.6680  0.5258  0.9303
  104OSM    O1110524   5.017   6.595  10.748 -0.5823  0.6347  0.4135
  104OSM    O1210525   5.029   6.609  10.996  0.1004  0.5927 -0.3882
  104OSM    C1S10526   5.004   6.655  10.612  0.6892 -0.1797  0.0307
  104OSM    H1S10527   4.925   6.733  10.601 -0.0772 -0.3888  3.5376
  104OSM    H1T10528   4.965   6.572  10.548  1.8323 -0.9682  0.3391
  104OSM     NF10529   5.100   6.742  10.412 -0.2117  0.0157 -1.1096
  104OSM    HNF10530   5.105   6.678  10.335  0.5531 -0.0045 -1.0521
  104OSM    C2S10531   5.137   6.693  10.534 -0.6684  0.4728  0.3216
  104OSM    H2S10532   5.200   6.770  10.583 -1.1348  3.5588 -3.6912
  104OSM    C3S10533   5.224   6.559  10.529  0.0841 -0.3811 -0.0625
  104OSM    H3S10534   5.170   6.485  10.466  0.8574  0.9711 -2.4138
  104OSM     O310535   5.263   6.488  10.647  0.1907  0.5666 -0.2687
  104OSM    HO310536   5.210   6.531  10.714 -0.0702  0.0731 -0.1584
  104OSM    C4S10537   5.359   6.599  10.466  0.8628 -0.9137  0.1416
  104OSM    H4S10538   5.429   6.626  10.546 -1.4262  0.3365  1.7789
  104OSM    C5S10539   5.408   6.576  10.333 -0.3705 -0.2869 -0.3022
  104OSM    H5S10540   5.342   6.538  10.253 -3.2342 -0.3740  2.0057
  104OSM    C6S10541   5.552   6.611  10.294  0.7498 -0.0954 -0.5366
  104OSM    H6S10542   5.627   6.530  10.280 -0.1386 -0.7161 -1.7445
  104OSM    H6T10543   5.587   6.679  10.375  0.1448 -0.6843  0.2396
  104OSM    C7S10544   5.552   6.682  10.158  0.2671 -0.4421 -0.5298
  104OSM    H7S10545   5.646   6.740  10.142  0.3918 -0.2733  0.7102
  104OSM    H7T10546   5.472   6.758  10.149  1.2783  0.8356  1.0525
  104OSM    C8S10547   5.545   6.583  10.042  0.3291 -0.9745  0.0177
  104OSM    H8S10548   5.463   6.513  10.066 -0.5245  0.8722  2.6987
  104OSM    H8T10549   5.633   6.516  10.034  0.7792 -0.6115  1.7352
  104OSM    C9S10550   5.525   6.661   9.910  0.7065  0.1422  0.1699
  104OSM    H9S10551   5.588   6.752   9.913 -0.4035  0.9982 -1.8292
  104OSM    H9T10552   5.422   6.703   9.909  1.2896  1.6043 -2.0568
  104OSM   C10S10553   5.560   6.576   9.792 -0.3830  0.6514  0.0511
  104OSM   H10S10554   5.521   6.472   9.797 -0.4031  0.7136  1.6640
  104OSM   H10T10555   5.670   6.556   9.787 -0.3363  1.4598 -2.9779
  104OSM   C11S10556   5.521   6.634   9.658  0.4089 -0.1400 -0.2116
  104OSM   H11S10557   5.574   6.730   9.638  0.6691 -0.4052 -0.7906
  104OSM   H11T10558   5.412   6.654   9.660  0.3212 -0.3789 -2.3197
  104OSM   C12S10559   5.560   6.547   9.542 -0.3938 -0.3244  0.7098
  104OSM   H12S10560   5.480   6.471   9.531 -0.2659 -0.4210  0.4285
  104OSM   H12T10561   5.647   6.482   9.565 -2.1493 -2.2330  2.1258
  104OSM   C13S10562   5.548   6.616   9.401 -0.2716  0.0109  0.1153
  104OSM   H13S10563   5.649   6.661   9.389  0.9901 -2.3070  1.5915
  104OSM   H13T10564   5.474   6.698   9.396 -1.4809 -0.9866  1.4086
  104OSM   C14S10565   5.540   6.510   9.295 -0.1423 -0.4398 -0.4696
  104OSM   H14S10566   5.536   6.563   9.197 -1.3444 -0.3434 -0.3762
  104OSM   H14T10567   5.448   6.455   9.325  0.4799  0.4384  3.2905
  104OSM   C15S10568   5.659   6.415   9.276  0.5742 -0.8971  0.4290
  104OSM   H15S10569   5.690   6.363   9.369  2.3088 -0.8508 -0.1028
  104OSM   H15T10570   5.740   6.486   9.248 -1.2835  2.0385  2.1955
  104OSM   C16S10571   5.637   6.304   9.167 -0.3461  0.5040  0.4603
  104OSM   H16S10572   5.541   6.254   9.193  1.6286 -2.2895  2.7806
  104OSM   H16T10573   5.720   6.231   9.156 -0.9614 -0.0730 -0.3819
  104OSM   C17S10574   5.611   6.364   9.020  0.2603  0.3751 -0.3665
  104OSM   H17S10575   5.511   6.410   9.037  0.2914 -0.7106  3.0164
  104OSM   H17T10576   5.593   6.281   8.949  0.4445 -0.8026  0.9517
  104OSM   C18S10577   5.717   6.461   8.970 -0.3246  0.4904  0.6140
  104OSM   H18S10578   5.681   6.516   8.881 -2.8180 -0.1282  1.1965
  104OSM   H18T10579   5.806   6.402   8.939  2.8918  3.4880  3.7220
  104OSM   H18U10580   5.767   6.533   9.038  2.4925 -2.1221  1.4142
  104OSM    C1F10581   5.066   6.862  10.382  0.0299  0.6452 -0.6435
  104OSM     OF10582   5.056   6.957  10.463  0.2346 -0.3682  0.1945
  104OSM    C2F10583   5.026   6.889  10.236 -0.2883  0.7683  0.7706
  104OSM    H2F10584   4.921   6.851  10.231 -0.2452  0.8593 -1.8000
  104OSM    H2G10585   5.098   6.837  10.169 -1.9227  0.9752 -1.1946
  104OSM    C3F10586   5.043   7.034  10.200 -0.2057  0.8637 -0.0108
  104OSM    H3F10587   5.149   7.065  10.208  0.1859 -0.0761 -1.1933
  104OSM    H3G10588   4.975   7.101  10.256 -0.9697  0.2880 -0.2463
  104OSM    C4F10589   5.014   7.067  10.048  0.1212  0.1462  0.0240
  104OSM    H4F10590   4.908   7.039  10.031  0.7033 -1.9138 -0.4530
  104OSM    H4G10591   5.080   7.004   9.985 -0.2457  1.8074 -2.0662
  104OSM    C5F10592   5.040   7.214  10.020 -0.5985 -0.1348  0.1241
  104OSM    H5F10593   5.134   7.260  10.057 -0.5994  0.9329 -1.1203
  104OSM    H5G10594   4.950   7.263  10.064 -0.7872 -1.4548  1.2330
  104OSM    C6F10595   5.037   7.229   9.867  0.2867 -0.6113 -0.2089
  104OSM    H6F10596   5.107   7.150   9.832  1.3708  0.7722 -1.1750
  104OSM    H6G10597   5.076   7.332   9.852  0.4287 -0.8342 -1.3542
  104OSM    C7F10598   4.904   7.219   9.800 -0.3491  0.2751 -0.3293
  104OSM    H7F10599   4.831   7.285   9.853 -0.3837 -1.9831  2.5276
  104OSM    H7G10600   4.860   7.125   9.840 -0.8062  0.7281  0.2584
  104OSM    C8F10601   4.895   7.232   9.642  0.1285 -0.2542  0.1345
  104OSM    H8F10602   4.791   7.207   9.611  0.3307 -3.3319  1.7503
  104OSM    H8G10603   4.972   7.160   9.606  0.6423 -0.2846  1.2783
  104OSM    C9F10604   4.923   7.373   9.594  0.5063 -0.0332 -0.4329
  104OSM    H9F10605   4.872   7.449   9.654  0.0227  1.5765 -2.8435
  104OSM   C10F10606   4.989   7.411   9.481  0.7429 -0.4154  0.0989
  104OSM   H10F10607   4.982   7.518   9.456 -0.7290 -0.5975 -0.3374
  104OSM   C11F10608   5.056   7.322   9.375  0.4186 -0.0060 -0.4207
  104OSM   H11F10609   5.097   7.231   9.423 -0.8324 -0.3371  0.0480
  104OSM   H11G10610   5.147   7.373   9.338 -0.2411  0.5602 -1.2752
  104OSM   C12F10611   4.968   7.278   9.265  0.1737  0.0258  0.2328
  104OSM   H12F10612   4.862   7.271   9.298  0.0367  1.1053  0.0186
  104OSM   H12G10613   4.994   7.176   9.226  1.5180  0.5755 -0.3455
  104OSM   C13F10614   4.985   7.369   9.149 -0.2925  0.3250 -0.9456
  104OSM   H13F10615   5.094   7.368   9.127 -0.2997  1.6905 -1.0813
  104OSM   H13G10616   4.964   7.467   9.197 -2.4755 -0.3467 -0.4646
  104OSM   C14F10617   4.893   7.353   9.026  0.4305  0.4759  0.4873
  104OSM   H14F10618   4.928   7.434   8.958  0.7374  0.6237  0.8226
  104OSM   H14G10619   4.785   7.372   9.041 -0.3598 -1.2720 -2.4240
  104OSM   C15F10620   4.902   7.218   8.960 -0.4410 -0.7385  0.3528
  104OSM   H15F10621   4.896   7.136   9.036  1.1313 -0.5483  0.6868
  104OSM   H15G10622   5.004   7.193   8.926 -0.3896 -0.8676  0.5998
  104OSM   C16F10623   4.787   7.193   8.859 -0.6059  0.4528 -0.4385
  104OSM   H16F10624   4.690   7.218   8.905 -1.7400 -0.8647 -2.0342
  104OSM   H16G10625   4.788   7.085   8.832  3.1865 -0.1624  1.8498
  104OSM   C17F10626   4.797   7.273   8.728  0.2214 -0.7002 -0.5776
  104OSM   H17F10627   4.895   7.244   8.684  0.9781  2.2468 -0.9382
  104OSM   H17G10628   4.805   7.383   8.743  0.3964 -0.4760 -2.2101
  104OSM   C18F10629   4.691   7.256   8.615  0.7296 -0.0690 -0.0376
  104OSM   H18F10630   4.745   7.290   8.524  0.4436 -2.8044 -1.2926
  104OSM   H18G10631   4.604   7.323   8.633  0.7306 -0.3913  1.2368
  104OSM   H18H10632   4.669   7.149   8.595 -0.7813  0.6775 -2.5307
  105OSM      N10633   1.714   2.780  10.970 -0.3294  0.0210  0.9038
  105OSM    C1510634   1.705   2.641  11.025 -0.3482 -0.9466 -0.1470
  105OSM   H15A10635   1.794   2.585  11.002 -0.0406 -0.6219  0.2383
  105OSM   H15B10636   1.617   2.587  10.991 -1.4886  0.5133  0.4141
  105OSM   H15C10637   1.687   2.648  11.132 -0.0164 -0.8614 -0.0953
  105OSM    C1410638   1.824   2.855  11.036  0.1524  0.1936  0.6332
  105OSM   H14A10639   1.839   2.954  10.994  0.8711 -0.8620 -1.6905
  105OSM   H14B10640   1.919   2.805  11.026  1.1348  2.2873 -0.8608
  105OSM   H14C10641   1.801   2.863  11.141 -0.6973  0.4115  0.4354
  105OSM    C1310642   1.732   2.756  10.822 -0.4830  0.0187 -0.5028
  105OSM   H13A10643   1.830   2.722  10.792  0.9421  1.7002  2.0029
  105OSM   H13B10644   1.713   2.839  10.755 -0.8574 -0.8987 -1.5403
  105OSM   H13C10645   1.656   2.691  10.783  0.6550 -0.7915 -1.4286
  105OSM    C1210646   1.588   2.858  10.995 -0.4944 -0.6517 -0.4094
  105OSM   H12A10647   1.575   2.866  11.102 -4.4966 -0.5183 -0.8101
  105OSM   H12B10648   1.497   2.808  10.964 -1.7430  1.4322 -0.2360
  105OSM    C1110649   1.572   3.002  10.948 -0.1539  0.3601 -1.1561
  105OSM   H11A10650   1.581   3.002  10.837  2.4141 -0.7033 -0.9950
  105OSM   H11B10651   1.654   3.066  10.987  0.4991 -1.1378  0.0139
  105OSM      P10652   1.337   3.103  10.898  0.1203 -0.2982  0.2989
  105OSM    O1310653   1.211   3.036  10.932  0.3660  1.1760  0.2726
  105OSM    O1410654   1.348   3.252  10.903  0.2753 -0.0848 -0.2140
  105OSM    O1110655   1.383   3.048  10.764 -0.6940 -0.3183  0.1426
  105OSM    O1210656   1.447   3.053  10.996  0.0800 -0.3575 -0.1840
  105OSM    C1S10657   1.281   3.043  10.654 -0.0540  0.1391  0.6325
  105OSM    H1S10658   1.239   3.142  10.629  1.8220  0.2796 -2.2772
  105OSM    H1T10659   1.189   2.984  10.675 -0.6994  0.5283 -1.0424
  105OSM     NF10660   1.290   3.040  10.408 -0.0661 -0.2968  0.2261
  105OSM    HNF10661   1.225   2.979  10.362  0.9579 -0.6448 -0.7917
  105OSM    C2S10662   1.357   2.989  10.526 -0.0503  0.2734  0.3108
  105OSM    H2S10663   1.459   3.031  10.518  0.4047 -0.9560 -0.3596
  105OSM    C3S10664   1.368   2.840  10.546 -0.7210  0.1321  0.1739
  105OSM    H3S10665   1.275   2.780  10.548 -0.4410 -0.2753  2.9520
  105OSM     O310666   1.449   2.799  10.665 -0.0014 -0.2622  0.5499
  105OSM    HO310667   1.468   2.884  10.705 -0.2638  0.3614 -0.6371
  105OSM    C4S10668   1.438   2.784  10.419 -0.1180  0.1229  1.0473
  105OSM    H4S10669   1.531   2.830  10.383 -0.0943 -1.8737 -1.5484
  105OSM    C5S10670   1.387   2.687  10.340  0.0832 -0.3788  0.0639
  105OSM    H5S10671   1.298   2.630  10.371 -0.6594 -0.2286 -1.7535
  105OSM    C6S10672   1.447   2.639  10.209 -0.2468  0.4486 -0.2515
  105OSM    H6S10673   1.392   2.543  10.197  2.0350 -0.7284 -1.8809
  105OSM    H6T10674   1.557   2.623  10.210 -0.0510  1.3888 -2.6346
  105OSM    C7S10675   1.420   2.723  10.083 -0.2537 -0.6046 -0.0585
  105OSM    H7S10676   1.463   2.823  10.106  1.9153 -1.1273 -1.6797
  105OSM    H7T10677   1.310   2.743  10.078 -0.2716 -0.0238  2.1008
  105OSM    C8S10678   1.475   2.662   9.951 -0.0608  0.1458 -0.0966
  105OSM    H8S10679   1.586   2.659   9.944  0.1849 -0.2945  3.2839
  105OSM    H8T10680   1.433   2.716   9.863 -1.0446  0.3447  0.4933
  105OSM    C9S10681   1.443   2.514   9.938 -0.2983 -0.1452  0.0823
  105OSM    H9S10682   1.339   2.480   9.961 -0.6426  0.1955 -0.9658
  105OSM    H9T10683   1.512   2.465  10.010  1.1797 -0.4236 -1.4989
  105OSM   C10S10684   1.484   2.438   9.802 -0.8586  0.3232  0.2403
  105OSM   H10S10685   1.454   2.332   9.816  0.2452 -0.2197 -1.3174
  105OSM   H10T10686   1.595   2.443   9.798 -0.8202  1.2444  2.1301
  105OSM   C11S10687   1.406   2.484   9.678  0.0819 -0.2609 -0.1374
  105OSM   H11S10688   1.433   2.592   9.678 -0.5781 -0.0877  1.1749
  105OSM   H11T10689   1.298   2.461   9.689  0.4068 -2.6118 -1.4640
  105OSM   C12S10690   1.464   2.421   9.546 -0.2513 -0.3133  0.1151
  105OSM   H12S10691   1.471   2.314   9.576 -2.8323 -0.4791  0.2729
  105OSM   H12T10692   1.565   2.467   9.546  0.4465 -1.7454  2.2917
  105OSM   C13S10693   1.398   2.463   9.407 -0.2955  0.4094  0.5537
  105OSM   H13S10694   1.388   2.573   9.411 -4.2431  0.0626  3.2375
  105OSM   H13T10695   1.293   2.426   9.407 -0.2600  0.2833 -0.5056
  105OSM   C14S10696   1.477   2.403   9.282 -0.0021 -0.2097 -0.7062
  105OSM   H14S10697   1.485   2.295   9.305 -1.9246 -0.2620 -0.2060
  105OSM   H14T10698   1.580   2.443   9.287 -0.2714  0.3865  0.3831
  105OSM   C15S10699   1.411   2.430   9.139  0.0918 -0.1379 -0.6156
  105OSM   H15S10700   1.386   2.538   9.124 -2.3973 -0.7585 -1.2443
  105OSM   H15T10701   1.325   2.360   9.132  0.4514 -0.4649 -2.0780
  105OSM   C16S10702   1.503   2.385   9.028  0.1459  0.1601 -0.6503
  105OSM   H16S10703   1.561   2.298   9.064  0.5611  1.8576  3.0804
  105OSM   H16T10704   1.570   2.473   9.016 -1.3547  1.2131 -1.6287
  105OSM   C17S10705   1.431   2.345   8.898 -0.0053  0.4658 -0.0304
  105OSM   H17S10706   1.357   2.422   8.867  0.3433  0.0844 -1.8670
  105OSM   H17T10707   1.391   2.247   8.930  2.2151 -1.1119 -1.9002
  105OSM   C18S10708   1.545   2.329   8.784  0.3191 -0.0729 -0.3372
  105OSM   H18S10709   1.624   2.258   8.819 -0.2954  0.1525  1.5811
  105OSM   H18T10710   1.591   2.422   8.746 -0.4481  0.5658  0.2781
  105OSM   H18U10711   1.499   2.278   8.697  0.1884 -1.5852  0.5789
  105OSM    C1F10712   1.308   3.169  10.368 -0.0776  0.7127 -0.1121
  105OSM     OF10713   1.364   3.252  10.441  0.1868 -0.8588  0.0633
  105OSM    C2F10714   1.243   3.206  10.237 -0.6240 -0.6900 -0.5131
  105OSM    H2F10715   1.138   3.237  10.254  0.1310  0.5394  2.1675
  105OSM    H2G10716   1.250   3.123  10.163  1.3293 -1.2755  0.3015
  105OSM    C3F10717   1.306   3.332  10.185 -0.8183 -0.1326  0.1181
  105OSM    H3F10718   1.416   3.332  10.198 -0.9905  1.8397  1.7967
  105OSM    H3G10719   1.277   3.420  10.247  2.8708 -1.2971  3.6673
  105OSM    C4F10720   1.279   3.350  10.032  0.4924 -0.1236  0.1858
  105OSM    H4F10721   1.338   3.442  10.009 -1.6702  1.0156 -0.9750
  105OSM    H4G10722   1.174   3.367  10.001  1.2045  0.4529 -2.0362
  105OSM    C5F10723   1.333   3.238   9.940  0.2310 -0.7031  0.0108
  105OSM    H5F10724   1.255   3.159   9.941  1.0777 -1.5442  0.8477
  105OSM    H5G10725   1.426   3.195   9.982  0.3362  1.2281  1.8390
  105OSM    C6F10726   1.355   3.288   9.800 -0.2714  0.1554 -0.3009
  105OSM    H6F10727   1.396   3.390   9.818 -0.0493 -0.0734  0.5080
  105OSM    H6G10728   1.260   3.305   9.743  0.6190 -0.5574 -2.0200
  105OSM    C7F10729   1.444   3.197   9.715  0.1058 -0.7929 -0.2516
  105OSM    H7F10730   1.433   3.087   9.725 -0.0601 -0.6471  1.2755
  105OSM    H7G10731   1.550   3.212   9.743  0.1039  0.9466 -1.0768
  105OSM    C8F10732   1.448   3.237   9.569  0.1675 -0.1353 -0.6776
  105OSM    H8F10733   1.348   3.209   9.528 -0.1710 -0.6383  0.4753
  105OSM    H8G10734   1.526   3.178   9.515  0.4853  0.1026 -0.4797
  105OSM    C9F10735   1.487   3.386   9.556 -0.1624  0.5015  0.0622
  105OSM    H9F10736   1.513   3.437   9.650  0.7274 -0.3721  0.2952
  105OSM   C10F10737   1.495   3.450   9.437 -0.1080  0.2235 -0.3640
  105OSM   H10F10738   1.526   3.555   9.449  1.8828 -0.2812 -0.9499
  105OSM   C11F10739   1.454   3.393   9.307  0.3246 -0.1735  0.0537
  105OSM   H11F10740   1.362   3.444   9.272  0.9015  0.1266 -1.0395
  105OSM   H11G10741   1.430   3.285   9.311 -1.7454  0.2496 -0.4719
  105OSM   C12F10742   1.571   3.406   9.209 -0.1695 -0.0806 -0.7167
  105OSM   H12F10743   1.658   3.348   9.247 -0.2860  0.0784 -0.2040
  105OSM   H12G10744   1.613   3.509   9.209  0.2697 -0.2557  0.6997
  105OSM   C13F10745   1.552   3.349   9.066  0.5343  0.1854 -0.4261
  105OSM   H13F10746   1.454   3.377   9.022  0.2004 -0.6091 -0.1994
  105OSM   H13G10747   1.554   3.239   9.080 -0.5724  0.1418 -0.5494
  105OSM   C14F10748   1.679   3.383   8.974  0.0129  0.4555 -0.3551
  105OSM   H14F10749   1.768   3.323   9.004  1.3039  3.8952  2.9405
  105OSM   H14G10750   1.705   3.489   8.990 -0.9114  0.2985  2.4168
  105OSM   C15F10751   1.648   3.350   8.829 -1.3751 -0.3355 -0.9017
  105OSM   H15F10752   1.613   3.435   8.766  0.0917  0.5141 -0.6059
  105OSM   H15G10753   1.582   3.261   8.828  1.6068 -2.5925 -1.9874
  105OSM   C16F10754   1.772   3.305   8.744 -0.4481  0.4283  0.0654
  105OSM   H16F10755   1.793   3.207   8.790 -1.1679  0.8814  1.3930
  105OSM   H16G10756   1.844   3.389   8.753 -0.4318  0.3033  1.0928
  105OSM   C17F10757   1.749   3.276   8.595  0.5542 -0.1654 -0.6935
  105OSM   H17F10758   1.759   3.378   8.552  0.1426  0.3094  0.3234
  105OSM   H17G10759   1.645   3.243   8.571 -0.0026  1.6187 -0.8142
  105OSM   C18F10760   1.841   3.169   8.535 -0.1594  0.3573 -0.0320
  105OSM   H18F10761   1.826   3.061   8.554  1.2427  0.5627  2.4497
  105OSM   H18G10762   1.945   3.181   8.573 -0.0447 -0.8960  0.0468
  105OSM   H18H10763   1.835   3.187   8.425  2.8280 -4.1327 -1.0480
  106OSM      N10764   0.004   3.067  10.769  0.1262 -1.1518  0.2255
  106OSM    C1510765  -0.110   2.996  10.704  0.2844  0.1094  0.3267
  106OSM   H15A10766  -0.138   2.907  10.760  1.6888 -1.3491 -1.2426
  106OSM   H15B10767  -0.066   2.954  10.615  0.5917 -1.4902  1.2115
  106OSM   H15C10768  -0.199   3.051  10.678  1.4256  1.0818 -1.6595
  106OSM    C1410769   0.037   3.188  10.686 -0.4557  0.2016 -0.2493
  106OSM   H14A10770   0.036   3.154  10.583  0.4078 -1.5115  0.2878
  106OSM   H14B10771   0.137   3.223  10.706 -0.9433  1.3186  0.2463
  106OSM   H14C10772  -0.037   3.266  10.689 -0.8800 -0.2237  0.3794
  106OSM    C1310773  -0.051   3.121  10.900  0.1316  0.1517 -0.1012
  106OSM   H13A10774  -0.110   3.208  10.873  2.7729  1.5977 -1.4765
  106OSM   H13B10775   0.036   3.147  10.960  0.6596  0.2017 -0.8761
  106OSM   H13C10776  -0.104   3.050  10.961 -2.1358  0.8514 -1.1948
  106OSM    C1210777   0.128   2.979  10.789  0.3741  0.0125 -0.0498
  106OSM   H12A10778   0.097   2.886  10.832  2.3849 -0.5487  0.2564
  106OSM   H12B10779   0.197   3.022  10.860  0.5730 -0.7634  0.2323
  106OSM    C1110780   0.213   2.929  10.667 -0.2957  0.3761  0.3452
  106OSM   H11A10781   0.297   2.878  10.721  0.6295 -1.7562 -2.9530
  106OSM   H11B10782   0.247   3.018  10.611  1.7615  0.3566  1.5054
  106OSM      P10783   0.111   2.692  10.610  0.6149  0.3836 -0.4715
  106OSM    O1310784   0.200   2.646  10.716  0.0016  0.0928  0.5953
  106OSM    O1410785  -0.036   2.690  10.633 -0.2978  0.1435 -0.3870
  106OSM    O1110786   0.150   2.617  10.476  0.3017  0.3408  0.1869
  106OSM    O1210787   0.139   2.847  10.580  0.5403  0.4818 -0.2066
  106OSM    C1S10788   0.281   2.587  10.430 -0.0979 -0.5963  0.1494
  106OSM    H1S10789   0.303   2.481  10.455 -0.9321 -0.7094  0.3890
  106OSM    H1T10790   0.351   2.656  10.482 -1.1549 -0.8403  1.8986
  106OSM     NF10791   0.416   2.530  10.239  0.1860 -0.2618  0.2924
  106OSM    HNF10792   0.496   2.579  10.206 -0.8927  1.4092  0.0325
  106OSM    C2S10793   0.303   2.604  10.279 -0.5596 -0.5024 -0.1101
  106OSM    H2S10794   0.219   2.560  10.221 -0.9380  0.7831 -0.5425
  106OSM    C3S10795   0.312   2.760  10.255 -0.0941 -0.0728  0.0681
  106OSM    H3S10796   0.403   2.801  10.303  0.3400 -0.9511  0.0131
  106OSM     O310797   0.197   2.826  10.295 -0.1622  0.1037 -0.4090
  106OSM    HO310798   0.148   2.765  10.349  0.6094  0.5358  0.8013
  106OSM    C4S10799   0.324   2.776  10.100 -0.1728 -0.7075 -0.2333
  106OSM    H4S10800   0.241   2.729  10.046  0.4064 -1.3545 -0.5823
  106OSM    C5S10801   0.419   2.838  10.035  0.3423  0.3175 -0.3613
  106OSM    H5S10802   0.505   2.882  10.088  2.3901 -2.0685 -1.5795
  106OSM    C6S10803   0.445   2.844   9.889  0.8996  0.3633  0.1234
  106OSM    H6S10804   0.350   2.850   9.833  1.0894 -2.5919 -0.6231
  106OSM    H6T10805   0.491   2.753   9.845  0.2760  0.3846 -0.5736
  106OSM    C7S10806   0.517   2.977   9.851 -0.4032  0.6285  0.7273
  106OSM    H7S10807   0.626   2.967   9.868 -0.6876 -2.0096  1.2818
  106OSM    H7T10808   0.480   3.058   9.918 -0.4485  1.4279 -0.2533
  106OSM    C8S10809   0.493   3.011   9.702  0.2869 -0.5104 -0.2637
  106OSM    H8S10810   0.557   3.101   9.688 -2.2167  1.1381 -1.4240
  106OSM    H8T10811   0.392   3.055   9.691  0.8567  0.9865  0.3844
  106OSM    C9S10812   0.523   2.898   9.600 -0.5247 -0.3288  0.0781
  106OSM    H9S10813   0.427   2.844   9.590 -1.7358  1.2776  2.5143
  106OSM    H9T10814   0.601   2.830   9.641 -1.5082 -2.0824 -0.8909
  106OSM   C10S10815   0.576   2.947   9.463  0.0477  0.8668  0.2454
  106OSM   H10S10816   0.671   3.002   9.481  0.7611  0.3685 -1.8598
  106OSM   H10T10817   0.511   3.028   9.423  1.5975  1.9760 -0.0916
  106OSM   C11S10818   0.605   2.839   9.360 -0.0279 -0.5465 -0.2249
  106OSM   H11S10819   0.516   2.777   9.334  0.0272 -0.4052 -0.7439
  106OSM   H11T10820   0.683   2.772   9.401 -0.8537 -0.1327  2.1035
  106OSM   C12S10821   0.667   2.907   9.242  0.7286  0.0015  0.4132
  106OSM   H12S10822   0.756   2.972   9.252  1.7777 -0.6703 -3.5176
  106OSM   H12T10823   0.597   2.982   9.200 -1.1058 -0.3873  2.6597
  106OSM   C13S10824   0.711   2.795   9.144  0.4137 -0.9469  0.6509
  106OSM   H13S10825   0.623   2.728   9.142  0.4501 -1.0182  1.2894
  106OSM   H13T10826   0.797   2.749   9.198 -0.2211  0.3703  2.8612
  106OSM   C14S10827   0.759   2.842   9.003 -0.0971 -0.2131  0.8666
  106OSM   H14S10828   0.859   2.888   8.996  0.3114 -1.2763 -0.5573
  106OSM   H14T10829   0.686   2.910   8.954  1.4912  0.6840 -0.2986
  106OSM   C15S10830   0.766   2.723   8.901 -0.0251  0.5944 -0.1776
  106OSM   H15S10831   0.667   2.674   8.905 -0.3494  1.2234 -0.4893
  106OSM   H15T10832   0.849   2.657   8.937 -0.4773 -0.7777 -1.6376
  106OSM   C16S10833   0.787   2.772   8.756 -0.0322  0.2338  0.7916
  106OSM   H16S10834   0.700   2.833   8.724 -0.3261 -1.8657 -2.6589
  106OSM   H16T10835   0.787   2.679   8.695  0.4875 -0.0420  1.2126
  106OSM   C17S10836   0.918   2.852   8.736 -0.0958 -0.2590  0.0373
  106OSM   H17S10837   0.986   2.826   8.820  1.2694 -1.7023 -1.4538
  106OSM   H17T10838   0.905   2.961   8.748  1.0176 -0.1429  0.2898
  106OSM   C18S10839   0.984   2.812   8.607 -0.7862 -0.6351 -0.0298
  106OSM   H18S10840   1.074   2.875   8.587  0.0889 -2.4908 -2.1254
  106OSM   H18T10841   0.913   2.826   8.522  2.2018 -0.1676 -2.5226
  106OSM   H18U10842   1.003   2.704   8.597  0.7978 -0.5296  1.5840
  106OSM    C1F10843   0.424   2.392  10.254  0.0958 -0.5533 -0.9028
  106OSM     OF10844   0.328   2.321  10.275  0.1425 -0.0516  0.2039
  106OSM    C2F10845   0.560   2.343  10.234  0.0011  0.1348  0.3313
  106OSM    H2F10846   0.588   2.277  10.319 -1.0023 -1.1863 -0.3361
  106OSM    H2G10847   0.631   2.428  10.224 -2.4423  2.1422 -0.5981
  106OSM    C3F10848   0.573   2.256  10.107 -0.1315  0.5349  0.4625
  106OSM    H3F10849   0.531   2.160  10.145  0.6187 -0.8045 -1.9945
  106OSM    H3G10850   0.682   2.238  10.093 -0.2684 -0.5894  0.8038
  106OSM    C4F10851   0.516   2.320   9.986 -0.1135 -0.0343  1.0818
  106OSM    H4F10852   0.556   2.423   9.978  0.6611 -0.2826  1.7205
  106OSM    H4G10853   0.405   2.316   9.983 -0.0316 -1.7828 -0.9369
  106OSM    C5F10854   0.567   2.246   9.855 -0.7111 -0.4570 -0.0642
  106OSM    H5F10855   0.505   2.155   9.840 -0.8294  0.1181 -3.6119
  106OSM    H5G10856   0.672   2.213   9.869 -0.2296  0.6611 -0.9585
  106OSM    C6F10857   0.543   2.337   9.736  0.1285  0.2038  0.7046
  106OSM    H6F10858   0.596   2.433   9.757 -0.6234  0.7381  0.1808
  106OSM    H6G10859   0.435   2.363   9.736 -0.1928 -1.0559 -1.3326
  106OSM    C7F10860   0.578   2.276   9.596 -0.5144 -0.1395  0.2470
  106OSM    H7F10861   0.527   2.177   9.600 -0.8776  0.1106  2.0770
  106OSM    H7G10862   0.686   2.255   9.585 -0.4145  0.0603  0.8273
  106OSM    C8F10863   0.522   2.359   9.474 -0.0220 -0.9822  1.2144
  106OSM    H8F10864   0.418   2.386   9.504 -0.6293 -0.7625 -0.9407
  106OSM    H8G10865   0.496   2.281   9.398  1.0105 -1.2241  1.1103
  106OSM    C9F10866   0.607   2.477   9.427  0.2604  0.5642  0.1441
  106OSM    H9F10867   0.591   2.571   9.481  1.1225 -0.1080  1.6220
  106OSM   C10F10868   0.699   2.469   9.337 -0.6398  0.5740 -0.5425
  106OSM   H10F10869   0.761   2.557   9.312  0.8956  0.3489  2.2245
  106OSM   C11F10870   0.747   2.346   9.256  0.0670 -0.1329 -0.6359
  106OSM   H11F10871   0.700   2.249   9.283 -1.0334  0.2115 -1.2755
  106OSM   H11G10872   0.856   2.344   9.278 -0.2802  1.3576  1.3251
  106OSM   C12F10873   0.735   2.347   9.099  0.2954  0.3844  0.0247
  106OSM   H12F10874   0.796   2.267   9.050  0.1376  0.7029 -0.7057
  106OSM   H12G10875   0.767   2.440   9.048 -2.7678  0.4899 -1.8347
  106OSM   C13F10876   0.602   2.318   9.046 -0.0120  0.4443  0.7140
  106OSM   H13F10877   0.527   2.384   9.095  0.0440  0.6403  0.5345
  106OSM   H13G10878   0.586   2.221   9.098 -0.6119 -0.1930 -0.6276
  106OSM   C14F10879   0.594   2.320   8.891  0.2732  0.6645  0.2740
  106OSM   H14F10880   0.602   2.423   8.851  0.0602 -0.2103 -2.1209
  106OSM   H14G10881   0.496   2.270   8.871  1.2556 -2.1558  2.1356
  106OSM   C15F10882   0.689   2.241   8.801 -0.2765 -0.0663 -0.2490
  106OSM   H15F10883   0.728   2.152   8.854 -0.7375 -0.2583 -0.2405
  106OSM   H15G10884   0.774   2.305   8.766 -0.3398 -0.3603 -0.9592
  106OSM   C16F10885   0.624   2.176   8.677  0.7335  0.7340 -0.1552
  106OSM   H16F10886   0.554   2.091   8.694  1.1925  0.6323  1.3650
  106OSM   H16G10887   0.707   2.130   8.618  0.0477 -1.8166  0.8177
  106OSM   C17F10888   0.553   2.277   8.581  0.0688 -0.5085  0.4154
  106OSM   H17F10889   0.456   2.301   8.630 -0.0988  1.4467 -0.8135
  106OSM   H17G10890   0.518   2.222   8.490  0.1383  0.1556 -0.0185
  106OSM   C18F10891   0.641   2.394   8.534 -0.4391 -0.1974 -0.4632
  106OSM   H18F10892   0.659   2.467   8.615  1.5122 -0.5560 -0.5505
  106OSM   H18G10893   0.595   2.455   8.453 -1.3939 -0.7740 -0.3657
  106OSM   H18H10894   0.742   2.359   8.506 -0.2686  0.0362 -0.1382
  107OSM      N10895   3.197   6.073  10.647 -0.0384 -0.1298 -0.1704
  107OSM    C1510896   3.178   6.058  10.799  0.2265 -0.1943  0.5784
  107OSM   H15A10897   3.183   5.956  10.835 -2.7611 -0.9036 -0.8115
  107OSM   H15B10898   3.082   6.097  10.829 -0.1143 -1.3501  1.0116
  107OSM   H15C10899   3.264   6.104  10.845  0.5135  0.2635 -0.4179
  107OSM    C1410900   3.332   6.018  10.619  0.2303  0.4556 -0.0020
  107OSM   H14A10901   3.412   6.069  10.670  0.0631  1.3940 -0.6749
  107OSM   H14B10902   3.346   6.009  10.513 -0.5949 -0.1784 -0.0625
  107OSM   H14C10903   3.346   5.917  10.655 -0.4081  1.1961  2.4271
  107OSM    C1310904   3.088   5.991  10.587  0.4404 -0.1055  0.2733
  107OSM   H13A10905   3.089   5.895  10.635 -2.1007  0.5455  1.7428
  107OSM   H13B10906   3.112   5.954  10.488 -2.7370 -2.4170  0.2930
  107OSM   H13C10907   2.990   6.037  10.597  0.1184 -0.4267 -1.2257
  107OSM    C1210908   3.189   6.218  10.606  0.2565 -0.3260 -0.0952
  107OSM   H12A10909   3.091   6.262  10.614  0.3009 -0.4781  1.5900
  107OSM   H12B10910   3.221   6.232  10.504 -1.2808  2.2571 -0.2865
  107OSM    C1110911   3.266   6.319  10.691  0.2809  0.1201 -0.4545
  107OSM   H11A10912   3.231   6.322  10.796  1.1458 -2.4888 -0.0496
  107OSM   H11B10913   3.242   6.421  10.655  2.9628  0.5113 -1.3080
  107OSM      P10914   3.506   6.384  10.745  0.4101  0.1032 -0.3198
  107OSM    O1310915   3.479   6.410  10.887 -0.4520  0.1550 -0.3453
  107OSM    O1410916   3.641   6.340  10.710 -0.5397  0.0811  0.1373
  107OSM    O1110917   3.483   6.514  10.661 -0.1956  0.2525  0.0323
  107OSM    O1210918   3.405   6.282  10.687 -0.3616 -0.2339 -0.3306
  107OSM    C1S10919   3.584   6.610  10.630 -0.1451 -0.4045  0.2570
  107OSM    H1S10920   3.681   6.569  10.666 -0.9363 -0.8505  1.8958
  107OSM    H1T10921   3.566   6.703  10.688  0.3052  1.2244 -2.1081
  107OSM     NF10922   3.680   6.767  10.457 -0.4196  0.3507  0.2759
  107OSM    HNF10923   3.641   6.857  10.471 -0.3572  0.4032  0.1057
  107OSM    C2S10924   3.586   6.660  10.483 -0.1571 -0.1799  0.0496
  107OSM    H2S10925   3.609   6.570  10.423 -0.0185 -1.9300  2.6533
  107OSM    C3S10926   3.446   6.698  10.435 -0.3506 -0.3469  0.6473
  107OSM    H3S10927   3.404   6.784  10.491  0.2259 -0.2638  0.9567
  107OSM     O310928   3.352   6.594  10.450  0.0906 -0.0875  0.5034
  107OSM    HO310929   3.396   6.537  10.513 -2.3074 -1.6586  0.8521
  107OSM    C4S10930   3.448   6.734  10.288 -0.2125  0.1363 -0.0222
  107OSM    H4S10931   3.481   6.657  10.217 -0.4577  0.8307 -0.8926
  107OSM    C5S10932   3.428   6.859  10.249  0.1413 -0.7280 -0.6569
  107OSM    H5S10933   3.411   6.932  10.330 -1.8437 -1.3567 -0.4862
  107OSM    C6S10934   3.419   6.915  10.107 -0.0633 -0.1528 -0.8426
  107OSM    H6S10935   3.495   6.993  10.087  0.1689 -0.5110 -1.3921
  107OSM    H6T10936   3.315   6.954  10.096 -0.4379 -0.9189 -0.1250
  107OSM    C7S10937   3.426   6.807   9.996  0.4584 -0.2726 -0.8536
  107OSM    H7S10938   3.342   6.734   9.990 -1.3794  1.8791 -2.2445
  107OSM    H7T10939   3.517   6.747  10.017  0.6611  0.9066  1.7708
  107OSM    C8S10940   3.450   6.868   9.864 -0.3203  0.8080  0.1280
  107OSM    H8S10941   3.509   6.798   9.802 -1.1701  1.1694 -1.1306
  107OSM    H8T10942   3.516   6.958   9.867  1.1430 -0.2938  1.5992
  107OSM    C9S10943   3.321   6.902   9.791  0.1850  0.4825  0.2737
  107OSM    H9S10944   3.244   6.932   9.865  0.2612  0.3497  0.4049
  107OSM    H9T10945   3.289   6.810   9.739 -1.5426  1.6641 -0.7817
  107OSM   C10S10946   3.335   7.031   9.712  0.3483 -0.7463 -0.4425
  107OSM   H10S10947   3.379   7.117   9.766 -2.9845  0.3320  0.7013
  107OSM   H10T10948   3.234   7.071   9.688 -0.3564 -1.9972  0.4411
  107OSM   C11S10949   3.401   7.013   9.580  0.5237  0.0057 -0.0954
  107OSM   H11S10950   3.498   6.959   9.581 -0.1228 -1.1709  0.0659
  107OSM   H11T10951   3.420   7.107   9.524 -1.8017 -0.0914 -1.0926
  107OSM   C12S10952   3.336   6.920   9.480 -0.0152 -0.4451  0.1886
  107OSM   H12S10953   3.245   6.968   9.440  0.5543  0.8415  0.4139
  107OSM   H12T10954   3.308   6.826   9.532 -1.0018 -1.7822 -2.6666
  107OSM   C13S10955   3.440   6.891   9.365 -0.1079  0.1313  0.3242
  107OSM   H13S10956   3.517   6.818   9.398  1.3753 -0.0205 -3.1912
  107OSM   H13T10957   3.495   6.985   9.342  0.0069  0.2013  0.8950
  107OSM   C14S10958   3.378   6.852   9.232 -0.2883 -0.0170 -0.0656
  107OSM   H14S10959   3.287   6.913   9.215 -0.0286 -0.2962 -2.6885
  107OSM   H14T10960   3.338   6.748   9.237  2.5650 -1.1242  0.8255
  107OSM   C15S10961   3.479   6.865   9.124 -0.2486 -0.0616  0.3704
  107OSM   H15S10962   3.565   6.795   9.129  0.6948  0.9312 -1.5527
  107OSM   H15T10963   3.542   6.954   9.144  0.8063 -0.7355  0.0919
  107OSM   C16S10964   3.426   6.863   8.973 -0.2436  0.0616  0.4362
  107OSM   H16S10965   3.389   6.760   8.951  2.1233 -0.3498 -1.8961
  107OSM   H16T10966   3.518   6.880   8.912 -0.7527 -0.3292 -0.4552
  107OSM   C17S10967   3.321   6.967   8.946 -0.3858 -0.7563 -0.0250
  107OSM   H17S10968   3.241   6.964   9.023 -1.9028 -1.3245 -1.5680
  107OSM   H17T10969   3.270   6.950   8.848 -0.4392  2.2697 -0.5895
  107OSM   C18S10970   3.382   7.111   8.955 -0.1204  0.7534  0.1782
  107OSM   H18S10971   3.307   7.187   8.924 -0.8723 -0.2537 -0.5102
  107OSM   H18T10972   3.475   7.112   8.894  0.0092 -0.8640  0.3452
  107OSM   H18U10973   3.412   7.154   9.053  2.1663  1.5110 -0.8216
  107OSM    C1F10974   3.811   6.762  10.447  0.3038  1.2233 -0.0768
  107OSM     OF10975   3.871   6.658  10.439 -0.5847  0.3595  0.2477
  107OSM    C2F10976   3.871   6.895  10.422  0.4613 -0.7118 -0.7905
  107OSM    H2F10977   3.876   6.951  10.518  2.7031 -1.5139 -0.4068
  107OSM    H2G10978   3.812   6.951  10.346 -0.9643 -0.0098  0.7879
  107OSM    C3F10979   4.022   6.884  10.384 -0.0018 -0.1083  0.6037
  107OSM    H3F10980   4.027   6.817  10.295 -0.0165 -1.3700  1.5399
  107OSM    H3G10981   4.076   6.835  10.468  0.8025 -1.1004 -0.4726
  107OSM    C4F10982   4.094   7.007  10.356 -0.5535  0.4162 -0.7514
  107OSM    H4F10983   4.203   6.997  10.338 -0.2119  3.0086 -0.3802
  107OSM    H4G10984   4.087   7.065  10.451  0.3083  2.7388 -2.0667
  107OSM    C5F10985   4.040   7.103  10.248  0.7728  0.1225 -1.1589
  107OSM    H5F10986   4.070   7.208  10.270 -0.9322  0.7111 -1.5981
  107OSM    H5G10987   3.930   7.111  10.254  0.7543 -0.5819 -0.5510
  107OSM    C6F10988   4.090   7.054  10.111 -0.0842 -0.5329  0.4021
  107OSM    H6F10989   4.033   6.959  10.102 -0.4169 -0.8714  4.9839
  107OSM    H6G10990   4.199   7.033  10.104  0.2827  1.4488 -0.1379
  107OSM    C7F10991   4.051   7.149   9.993  0.0011  0.2178 -0.3202
  107OSM    H7F10992   4.103   7.246  10.011  1.1504 -0.6292  1.0190
  107OSM    H7G10993   3.945   7.178  10.005 -0.3308 -0.6617 -1.1408
  107OSM    C8F10994   4.057   7.086   9.850 -0.0289 -0.2506 -0.3294
  107OSM    H8F10995   3.991   7.143   9.782 -1.7528 -0.8060  0.8319
  107OSM    H8G10996   4.013   6.984   9.861 -0.4802  0.0599  0.9182
  107OSM    C9F10997   4.204   7.084   9.800  0.5538 -0.8174 -0.0233
  107OSM    H9F10998   4.279   7.039   9.866  0.2135 -0.8723  0.3335
  107OSM   C10F10999   4.248   7.120   9.680  0.4682  1.0260  0.2779
  107OSM   H10F11000   4.357   7.108   9.671  0.5360  0.2927  1.8670
  107OSM   C11F11001   4.177   7.169   9.559  1.1952 -0.7547 -0.9385
  107OSM   H11F11002   4.167   7.279   9.574 -1.2204 -0.8663 -1.5093
  107OSM   H11G11003   4.075   7.127   9.549  0.2055  1.3137  0.2546
  107OSM   C12F11004   4.249   7.135   9.427  0.0073 -0.6584 -0.5140
  107OSM   H12F11005   4.253   7.024   9.432  4.8380 -0.5150  0.8800
  107OSM   H12G11006   4.356   7.161   9.438 -0.1767  0.4719 -1.3611
  107OSM   C13F11007   4.173   7.189   9.303 -0.1171 -0.1413 -0.4299
  107OSM   H13F11008   4.199   7.297   9.304 -0.4112 -0.0725 -0.2358
  107OSM   H13G11009   4.064   7.180   9.322  0.0998  0.3905  1.0905
  107OSM   C14F11010   4.212   7.114   9.169  0.4934 -0.0486  0.7863
  107OSM   H14F11011   4.182   7.008   9.178 -1.1268  0.2938 -0.1952
  107OSM   H14G11012   4.322   7.114   9.156  0.5217  0.4937  0.9988
  107OSM   C15F11013   4.138   7.165   9.047  0.0700  0.4048 -0.4395
  107OSM   H15F11014   4.171   7.089   8.973  0.4977 -2.3987  2.5114
  107OSM   H15G11015   4.159   7.270   9.020 -0.0481  0.2879 -0.9975
  107OSM   C16F11016   3.988   7.156   9.051 -0.4556 -0.0725  0.1485
  107OSM   H16F11017   3.945   7.238   9.113 -0.4372  0.2719 -0.2909
  107OSM   H16G11018   3.954   7.057   9.089  2.9211 -0.9873  0.9312
  107OSM   C17F11019   3.933   7.172   8.912  0.9314  0.7254 -0.1926
  107OSM   H17F11020   3.991   7.111   8.839  0.3227  0.9581 -0.8757
  107OSM   H17G11021   3.946   7.279   8.886  1.6122  0.3662 -1.4053
  107OSM   C18F11022   3.788   7.140   8.911  0.0613 -0.2032 -0.1621
  107OSM   H18F11023   3.765   7.033   8.929  3.4594 -0.6119  2.1128
  107OSM   H18G11024   3.737   7.167   8.816  1.1266  0.9868 -0.3988
  107OSM   H18H11025   3.740   7.185   9.001 -1.3120 -2.7528  0.4283
  108OSM      N11026   0.321   1.338  10.620  0.0179 -0.3455  0.0562
  108OSM    C1511027   0.301   1.199  10.673  0.6352 -0.8597  0.8559
  108OSM   H15A11028   0.239   1.189  10.761 -0.5612 -3.0434 -0.1865
  108OSM   H15B11029   0.395   1.156  10.704 -0.0174 -2.6592  0.4484
  108OSM   H15C11030   0.273   1.132  10.593  2.4581  0.5466 -0.9822
  108OSM    C1411031   0.409   1.333  10.497  0.4357 -0.2128  0.3167
  108OSM   H14A11032   0.434   1.433  10.465 -0.4051  0.9021  2.9901
  108OSM   H14B11033   0.359   1.277  10.419  0.5611  0.3547 -0.1741
  108OSM   H14C11034   0.504   1.287  10.519  0.1286  0.0222  2.1957
  108OSM    C1311035   0.190   1.398  10.572 -0.4193 -0.3712 -0.0968
  108OSM   H13A11036   0.201   1.505  10.561  0.8771 -0.3497  1.2945
  108OSM   H13B11037   0.120   1.399  10.655 -3.7790  2.4288 -2.7874
  108OSM   H13C11038   0.135   1.359  10.488 -3.0002  1.5878  0.6264
  108OSM    C1211039   0.391   1.418  10.733 -0.4496 -0.7677  0.4182
  108OSM   H12A11040   0.492   1.387  10.752  0.5128  2.0299  0.1876
  108OSM   H12B11041   0.327   1.409  10.820  0.2063 -3.0650  0.6784
  108OSM    C1111042   0.414   1.572  10.707 -0.0332  1.0703  0.1929
  108OSM   H11A11043   0.471   1.582  10.613 -1.1332  0.0052 -0.6006
  108OSM   H11B11044   0.477   1.617  10.787  1.9293  1.4093 -1.5021
  108OSM      P11045   0.284   1.790  10.624  0.0864  0.0095 -0.4337
  108OSM    O1311046   0.174   1.863  10.692 -0.4812 -0.4129 -0.7475
  108OSM    O1411047   0.418   1.855  10.633 -0.9355 -0.7764 -0.2512
  108OSM    O1111048   0.242   1.758  10.474  0.3856  0.1761 -0.4454
  108OSM    O1211049   0.288   1.641  10.690 -0.9543 -0.0512 -0.2030
  108OSM    C1S11050   0.112   1.711  10.444  0.1163 -0.3134 -0.6220
  108OSM    H1S11051   0.042   1.797  10.454 -0.6974 -0.6674 -2.9394
  108OSM    H1T11052   0.058   1.640  10.511 -1.2869  1.9321  0.7364
  108OSM     NF11053  -0.040   1.618  10.273  0.4226 -0.2428  0.0853
  108OSM    HNF11054  -0.055   1.521  10.254 -0.5726 -0.1904  0.5582
  108OSM    C2S11055   0.097   1.665  10.294 -0.7304 -0.6675 -0.2773
  108OSM    H2S11056   0.123   1.752  10.229  0.9325  0.8308  2.3109
  108OSM    C3S11057   0.208   1.563  10.258  0.2841  0.3505 -1.1804
  108OSM    H3S11058   0.189   1.467  10.310  0.2588  1.5597  1.1376
  108OSM     O311059   0.340   1.595  10.309  0.2934 -0.2510  0.0387
  108OSM    HO311060   0.326   1.667  10.370 -1.1938 -1.4456  1.1548
  108OSM    C4S11061   0.201   1.546  10.112 -0.2977  0.2140 -0.0895
  108OSM    H4S11062   0.120   1.481  10.077 -1.7997  1.8309  0.3153
  108OSM    C5S11063   0.280   1.608  10.014 -0.4181 -0.4263 -0.8282
  108OSM    H5S11064   0.354   1.678  10.057  0.2145 -0.3216 -2.0629
  108OSM    C6S11065   0.286   1.597   9.861  0.0756 -0.2681  0.6421
  108OSM    H6S11066   0.375   1.533   9.838 -0.6635 -1.6630  1.5570
  108OSM    H6T11067   0.295   1.692   9.804  0.9515 -0.1587  0.9458
  108OSM    C7S11068   0.160   1.523   9.808  0.7005 -0.2019 -0.4585
  108OSM    H7S11069   0.061   1.570   9.824  0.1076 -1.3319 -0.6988
  108OSM    H7T11070   0.171   1.424   9.857  3.1732 -0.1465 -0.8319
  108OSM    C8S11071   0.166   1.478   9.654 -0.4409 -0.4756  0.3403
  108OSM    H8S11072   0.095   1.393   9.648 -0.0266 -0.8925  1.3106
  108OSM    H8T11073   0.270   1.446   9.633 -0.0266  1.6890 -1.1331
  108OSM    C9S11074   0.115   1.575   9.548  0.0482 -0.4363 -0.0687
  108OSM    H9S11075   0.177   1.667   9.551  0.8922 -0.9908 -0.0445
  108OSM    H9T11076   0.019   1.615   9.586  0.7853 -2.8293  4.5958
  108OSM   C10S11077   0.117   1.521   9.407 -0.5228 -0.4792  0.3090
  108OSM   H10S11078   0.078   1.417   9.407  2.7698 -1.7658  0.3123
  108OSM   H10T11079   0.225   1.515   9.381 -0.5895 -0.4763  0.0282
  108OSM   C11S11080   0.047   1.605   9.303  0.8734  0.5587 -0.1576
  108OSM   H11S11081   0.083   1.709   9.292 -1.0092  1.5439  2.4578
  108OSM   H11T11082  -0.058   1.612   9.339  0.1254  0.3537 -2.1914
  108OSM   C12S11083   0.056   1.552   9.161 -0.0144  0.2066  0.1815
  108OSM   H12S11084   0.034   1.444   9.146 -3.9265  1.2326 -2.2156
  108OSM   H12T11085   0.152   1.578   9.111 -0.2283 -0.2872 -0.4960
  108OSM   C13S11086  -0.045   1.623   9.074  0.2167 -0.5677  1.1661
  108OSM   H13S11087  -0.020   1.730   9.061  2.9685 -0.9172  3.0671
  108OSM   H13T11088  -0.136   1.605   9.135  0.4391 -3.1198  0.8033
  108OSM   C14S11089  -0.051   1.571   8.932  0.4394 -0.1936 -0.1160
  108OSM   H14S11090  -0.058   1.460   8.924 -1.1464  0.0058 -2.0045
  108OSM   H14T11091   0.045   1.597   8.883 -0.2881  0.9852 -0.9487
  108OSM   C15S11092  -0.175   1.647   8.863 -0.1185  0.4472  0.2017
  108OSM   H15S11093  -0.164   1.758   8.863  1.4891  0.3278 -2.2683
  108OSM   H15T11094  -0.265   1.630   8.927 -0.3707  1.2412  0.0627
  108OSM   C16S11095  -0.216   1.604   8.716 -0.8129  0.3033 -1.0132
  108OSM   H16S11096  -0.199   1.494   8.710  1.9009  0.7259 -1.9446
  108OSM   H16T11097  -0.141   1.642   8.644  1.0331 -1.7631 -0.2575
  108OSM   C17S11098  -0.350   1.643   8.683  0.0906  0.3018  0.3766
  108OSM   H17S11099  -0.377   1.745   8.717  0.1269  0.3338  0.3094
  108OSM   H17T11100  -0.411   1.564   8.732 -0.1211  0.8916  1.0620
  108OSM   C18S11101  -0.391   1.628   8.531 -0.2230 -0.1071 -0.1417
  108OSM   H18S11102  -0.386   1.521   8.502 -0.6530 -0.6675  1.7545
  108OSM   H18T11103  -0.320   1.687   8.470 -0.2237 -0.6146 -0.6467
  108OSM   H18U11104  -0.493   1.667   8.508 -1.8482 -1.7630  3.7285
  108OSM    C1F11105  -0.150   1.693  10.276 -0.0610 -0.3903 -0.1646
  108OSM     OF11106  -0.137   1.813  10.291 -0.3613 -0.5012  1.1167
  108OSM    C2F11107  -0.278   1.624  10.248 -0.3571 -0.5496 -0.5794
  108OSM    H2F11108  -0.335   1.601  10.341 -1.0604  0.2763 -0.7922
  108OSM    H2G11109  -0.253   1.521  10.216 -2.1508 -1.3192  0.4548
  108OSM    C3F11110  -0.359   1.691  10.134  0.2210  0.4775 -0.2663
  108OSM    H3F11111  -0.381   1.797  10.158 -2.4163 -0.4922  1.8449
  108OSM    H3G11112  -0.456   1.638  10.123 -0.7876  2.4959 -1.3605
  108OSM    C4F11113  -0.292   1.685  10.000  0.5308 -0.6991 -0.2171
  108OSM    H4F11114  -0.231   1.592   9.993  1.0633 -0.3517 -0.1272
  108OSM    H4G11115  -0.228   1.774   9.987  1.2154 -1.0962  0.4129
  108OSM    C5F11116  -0.386   1.671   9.873 -0.0933  0.1051  0.7438
  108OSM    H5F11117  -0.459   1.753   9.888  1.1201  0.9701  2.0568
  108OSM    H5G11118  -0.443   1.576   9.861 -0.2461  0.4173 -1.2267
  108OSM    C6F11119  -0.308   1.692   9.748 -0.5602 -0.5203 -0.4451
  108OSM    H6F11120  -0.233   1.612   9.730 -0.2288 -0.3325  0.1049
  108OSM    H6G11121  -0.259   1.790   9.764 -1.0332 -0.2827 -0.4223
  108OSM    C7F11122  -0.384   1.702   9.611  0.3199  0.5699  0.2807
  108OSM    H7F11123  -0.476   1.764   9.617 -1.8961 -2.3526 -2.2102
  108OSM    H7G11124  -0.425   1.601   9.594  2.1029 -0.1656  0.2796
  108OSM    C8F11125  -0.292   1.755   9.496  0.8466  0.2070  0.2506
  108OSM    H8F11126  -0.195   1.701   9.489  1.2473  0.8928  0.4146
  108OSM    H8G11127  -0.261   1.861   9.508 -1.6049  1.4051 -3.1380
  108OSM    C9F11128  -0.360   1.722   9.361  0.2589  0.2558 -0.2918
  108OSM    H9F11129  -0.353   1.613   9.343  0.0401 -0.5932  4.1628
  108OSM   C10F11130  -0.408   1.802   9.263  0.6572  0.4817  0.2992
  108OSM   H10F11131  -0.479   1.762   9.188  1.3374  1.1865 -0.7243
  108OSM   C11F11132  -0.412   1.953   9.281 -0.0703  0.3892 -0.2832
  108OSM   H11F11133  -0.331   1.991   9.348  2.2108 -3.3018 -0.8284
  108OSM   H11G11134  -0.504   1.985   9.334  0.3997  1.4041 -0.0652
  108OSM   C12F11135  -0.413   2.038   9.151 -0.1989 -0.4645 -0.0973
  108OSM   H12F11136  -0.428   2.142   9.187 -0.9990 -0.6949  0.2448
  108OSM   H12G11137  -0.500   2.007   9.090 -0.2448 -0.7779  0.1240
  108OSM   C13F11138  -0.294   2.019   9.052 -0.0792 -0.4509  0.8212
  108OSM   H13F11139  -0.299   1.919   9.004  0.5972 -0.9139  1.6977
  108OSM   H13G11140  -0.198   2.017   9.108 -1.2984  2.5264  3.1550
  108OSM   C14F11141  -0.292   2.124   8.940 -0.1002 -0.0362 -0.3464
  108OSM   H14F11142  -0.206   2.102   8.872 -1.5724 -3.6442 -1.1367
  108OSM   H14G11143  -0.272   2.223   8.986  1.1262  0.0487 -1.0423
  108OSM   C15F11144  -0.427   2.131   8.865 -0.7153  0.2008 -0.1666
  108OSM   H15F11145  -0.413   2.221   8.803  1.5032  1.1984  1.6904
  108OSM   H15G11146  -0.506   2.155   8.940  0.0174  0.6912  0.4527
  108OSM   C16F11147  -0.463   2.007   8.770 -0.7078 -0.2025  0.2695
  108OSM   H16F11148  -0.487   1.925   8.841 -1.9632  0.2518  0.3815
  108OSM   H16G11149  -0.376   1.980   8.708 -2.0212  0.6665 -2.0067
  108OSM   C17F11150  -0.585   2.043   8.688 -0.1581  0.1138 -0.8589
  108OSM   H17F11151  -0.566   2.145   8.650  3.6267 -0.0800  0.3326
  108OSM   H17G11152  -0.672   2.055   8.757 -0.1090  2.2817 -1.1281
  108OSM   C18F11153  -0.605   1.957   8.569  0.1248  0.0432 -0.2142
  108OSM   H18F11154  -0.640   1.856   8.599  2.3691 -0.8340 -0.3792
  108OSM   H18G11155  -0.513   1.942   8.508 -0.6145 -1.3960 -0.9864
  108OSM   H18H11156  -0.686   1.996   8.505  0.0091 -0.4999 -0.4039
  109OSM      N11157   5.327   5.754  11.263 -0.3138  0.3346 -0.1662
  109OSM    C1511158   5.301   5.615  11.304  0.3349 -0.1878 -0.0919
  109OSM   H15A11159   5.387   5.561  11.343 -1.3089 -0.9300  2.6596
  109OSM   H15B11160   5.251   5.564  11.223 -0.8434  2.2589 -0.9362
  109OSM   H15C11161   5.221   5.618  11.377  0.1806  1.3075 -0.3176
  109OSM    C1411162   5.203   5.792  11.191  0.3470  0.0484 -0.3213
  109OSM   H14A11163   5.204   5.895  11.158  1.9843 -0.8099 -3.0168
  109OSM   H14B11164   5.111   5.792  11.247 -1.3812  0.0198 -3.0583
  109OSM   H14C11165   5.184   5.737  11.100 -1.5205 -0.2467  0.2127
  109OSM    C1311166   5.328   5.844  11.392  0.1442 -0.3963  0.0404
  109OSM   H13A11167   5.236   5.832  11.447  1.7240  0.0447  2.8814
  109OSM   H13B11168   5.328   5.949  11.365 -1.6123 -0.8818 -2.0179
  109OSM   H13C11169   5.418   5.813  11.441 -0.7106  0.9473  2.5600
  109OSM    C1211170   5.448   5.751  11.178  0.3458  0.0526 -0.0334
  109OSM   H12A11171   5.426   5.702  11.084  0.4758 -1.5101  0.7221
  109OSM   H12B11172   5.528   5.695  11.225 -0.0579  0.1928  0.8208
  109OSM    C1111173   5.512   5.884  11.142 -0.7267 -0.5922 -0.1059
  109OSM   H11A11174   5.592   5.858  11.069 -0.2485  1.6250 -0.4054
  109OSM   H11B11175   5.569   5.930  11.226 -0.8254 -0.5746 -0.0478
  109OSM      P11176   5.407   6.120  11.151  0.1709 -0.7648 -0.0174
  109OSM    O1311177   5.309   6.117  11.261  0.8675 -0.3037  0.0049
  109OSM    O1411178   5.538   6.167  11.177  0.2984  0.1566 -0.4245
  109OSM    O1111179   5.348   6.201  11.033  0.4491  0.5594  0.7012
  109OSM    O1211180   5.426   5.979  11.080  0.0028 -0.1156 -0.0869
  109OSM    C1S11181   5.426   6.263  10.931 -0.6419  0.9079 -0.3143
  109OSM    H1S11182   5.529   6.287  10.967  0.6614 -1.5512 -2.2371
  109OSM    H1T11183   5.373   6.353  10.893 -1.1089  0.1914 -1.3726
  109OSM     NF11184   5.488   6.231  10.703  0.5683 -0.1601 -0.3276
  109OSM    HNF11185   5.420   6.246  10.633 -0.7014  2.6855  1.4329
  109OSM    C2S11186   5.428   6.162  10.813  0.7715 -0.0007 -0.6721
  109OSM    H2S11187   5.492   6.076  10.841 -1.0526 -1.4341 -0.9022
  109OSM    C3S11188   5.287   6.101  10.777  1.2654 -0.4315 -0.7003
  109OSM    H3S11189   5.205   6.173  10.800  0.9163 -1.2334  0.6086
  109OSM     O311190   5.247   5.980  10.850  0.0517 -0.2387 -0.1434
  109OSM    HO311191   5.316   5.977  10.918 -0.0854 -0.5848 -0.0204
  109OSM    C4S11192   5.284   6.055  10.635 -0.8226  0.2343 -1.6482
  109OSM    H4S11193   5.317   5.954  10.610 -0.5632 -0.4211  1.1740
  109OSM    C5S11194   5.215   6.125  10.539 -0.6589 -0.2334  0.4148
  109OSM    H5S11195   5.149   6.209  10.565 -1.1165 -0.6890  0.7363
  109OSM    C6S11196   5.187   6.086  10.396 -0.1082 -0.1520  0.1513
  109OSM    H6S11197   5.124   6.161  10.345 -2.3552 -1.4877  0.9171
  109OSM    H6T11198   5.136   5.987  10.391 -1.5461  0.5570  0.6963
  109OSM    C7S11199   5.311   6.082  10.316  0.1138 -0.1313 -0.5309
  109OSM    H7S11200   5.279   6.047  10.216 -1.5235  0.2885 -0.1576
  109OSM    H7T11201   5.386   6.011  10.356  0.4904  0.4477 -0.1914
  109OSM    C8S11202   5.361   6.223  10.297 -0.4381  0.6892 -0.0957
  109OSM    H8S11203   5.363   6.270  10.397 -0.7224 -0.8185  0.6380
  109OSM    H8T11204   5.280   6.282  10.249  0.0662 -0.2402 -2.1590
  109OSM    C9S11205   5.493   6.237  10.229 -0.2448  0.4508  0.0686
  109OSM    H9S11206   5.581   6.183  10.268 -0.4304  0.1962  0.1310
  109OSM    H9T11207   5.517   6.346  10.229 -0.7338  0.5636  1.2703
  109OSM   C10S11208   5.478   6.196  10.085 -0.0637  0.7086  0.0599
  109OSM   H10S11209   5.409   6.270  10.040  1.3656  1.2342 -1.3292
  109OSM   H10T11210   5.440   6.091  10.080  1.4013  0.0681  1.8161
  109OSM   C11S11211   5.618   6.201  10.013 -0.4873  0.4448 -1.0082
  109OSM   H11S11212   5.692   6.147  10.074  0.8681  2.2328 -1.0171
  109OSM   H11T11213   5.656   6.306  10.006  0.7945 -0.0219 -1.0847
  109OSM   C12S11214   5.627   6.129   9.880 -0.0050 -0.0916  0.3168
  109OSM   H12S11215   5.551   6.186   9.823  0.1773 -1.1379 -0.9666
  109OSM   H12T11216   5.600   6.022   9.888  3.0718 -0.8911  0.8549
  109OSM   C13S11217   5.753   6.146   9.797 -0.2989  0.0522  0.4380
  109OSM   H13S11218   5.843   6.101   9.845  1.2162  1.8608 -0.6424
  109OSM   H13T11219   5.768   6.255   9.782 -0.3829 -0.0912 -0.7099
  109OSM   C14S11220   5.750   6.079   9.659 -0.3260  0.2696  0.3707
  109OSM   H14S11221   5.663   6.116   9.599  1.0774  0.1125 -1.8246
  109OSM   H14T11222   5.728   5.971   9.677 -2.4751  0.5651 -0.2437
  109OSM   C15S11223   5.864   6.108   9.562  0.3361  0.2016  0.5256
  109OSM   H15S11224   5.950   6.066   9.618  1.3418  0.5067 -0.7662
  109OSM   H15T11225   5.875   6.217   9.547  0.8953 -0.1755 -2.0610
  109OSM   C16S11226   5.876   6.029   9.428  0.0859 -0.0057 -0.5444
  109OSM   H16S11227   5.784   6.049   9.370 -0.7868  0.4389  0.9626
  109OSM   H16T11228   5.884   5.919   9.446  0.0548  0.1287  0.3150
  109OSM   C17S11229   6.003   6.071   9.342  1.0902 -0.7061 -0.1478
  109OSM   H17S11230   6.049   6.154   9.400  1.1833 -1.2604  0.5732
  109OSM   H17T11231   5.962   6.101   9.243  0.8918 -3.7128 -1.0260
  109OSM   C18S11232   6.104   5.962   9.323 -0.1887 -0.3134 -0.0372
  109OSM   H18S11233   6.167   5.945   9.413  0.1843  0.3747 -0.1625
  109OSM   H18T11234   6.173   5.992   9.241 -0.6801  0.5650 -0.1345
  109OSM   H18U11235   6.035   5.879   9.297 -0.3937  0.0107 -0.5377
  109OSM    C1F11236   5.613   6.279  10.705  1.0789  0.1363  0.7104
  109OSM     OF11237   5.690   6.255  10.797 -0.8512 -0.0603 -0.6342
  109OSM    C2F11238   5.649   6.366  10.588 -0.8291 -0.4833 -0.3560
  109OSM    H2F11239   5.565   6.427  10.549 -1.6396 -2.1870 -1.3713
  109OSM    H2G11240   5.676   6.301  10.502  2.7642  1.0017 -0.4674
  109OSM    C3F11241   5.767   6.457  10.631  0.8762  0.2800  0.3031
  109OSM    H3F11242   5.847   6.401  10.685  0.6684 -0.5597 -0.2614
  109OSM    H3G11243   5.731   6.542  10.693 -0.8714 -0.1879 -0.0604
  109OSM    C4F11244   5.841   6.516  10.506 -0.1956  0.0809 -0.0340
  109OSM    H4F11245   5.924   6.575  10.550  0.0136 -0.3523  0.1549
  109OSM    H4G11246   5.779   6.588  10.448  1.3208 -0.2346 -2.1007
  109OSM    C5F11247   5.905   6.417  10.407  0.7102 -0.7739 -0.1634
  109OSM    H5F11248   5.846   6.358  10.334  0.5816  0.0101 -0.6901
  109OSM    H5G11249   5.953   6.333  10.463  0.5038 -0.2019  0.8898
  109OSM    C6F11250   6.026   6.473  10.326 -0.4553 -0.2865 -0.2629
  109OSM    H6F11251   6.106   6.474  10.403 -2.0915 -0.8421  1.4686
  109OSM    H6G11252   6.003   6.572  10.281  0.5857  0.2297  0.3278
  109OSM    C7F11253   6.074   6.382  10.213 -0.1187  0.1441 -0.1365
  109OSM    H7F11254   6.095   6.279  10.251 -1.5366 -0.5973 -1.3186
  109OSM    H7G11255   6.172   6.419  10.176  0.2476 -0.2926  0.3743
  109OSM    C8F11256   5.967   6.380  10.094  1.3897  0.2405 -0.3834
  109OSM    H8F11257   5.930   6.482  10.074 -2.0347 -1.1417 -1.5955
  109OSM    H8G11258   5.876   6.324  10.126  2.7444 -1.4252  0.6327
  109OSM    C9F11259   6.016   6.318   9.965  0.1797 -0.4975 -0.1562
  109OSM    H9F11260   6.044   6.213   9.982 -1.9711 -1.2978 -1.3122
  109OSM   C10F11261   6.038   6.376   9.851  1.1684 -0.3642  0.4004
  109OSM   H10F11262   6.079   6.317   9.768 -1.2801  0.4005 -1.4274
  109OSM   C11F11263   6.009   6.515   9.810 -0.3128  0.4504 -0.0556
  109OSM   H11F11264   6.097   6.581   9.822 -0.3452  0.3252  0.8850
  109OSM   H11G11265   5.925   6.545   9.877 -1.2585 -2.5958  0.1649
  109OSM   C12F11266   5.950   6.548   9.673 -0.0051 -0.0329  0.4771
  109OSM   H12F11267   5.915   6.653   9.667 -2.3046 -0.7756  0.3007
  109OSM   H12G11268   5.866   6.476   9.661 -0.3823  0.6334 -1.0269
  109OSM   C13F11269   6.058   6.529   9.559 -0.3871 -1.4135  0.5382
  109OSM   H13F11270   6.142   6.463   9.588 -0.3145 -0.6841  2.0567
  109OSM   H13G11271   6.095   6.630   9.528 -1.0126 -1.4939 -0.4735
  109OSM   C14F11272   6.010   6.472   9.420  0.3794  0.8367 -0.5896
  109OSM   H14F11273   5.969   6.559   9.364 -0.7574  2.3925  2.5266
  109OSM   H14G11274   5.947   6.381   9.433 -0.9598  2.0415  1.6872
  109OSM   C15F11275   6.128   6.422   9.329 -0.7013 -0.3207  0.3379
  109OSM   H15F11276   6.176   6.331   9.372  1.1327  0.9065  0.9754
  109OSM   H15G11277   6.213   6.494   9.336  0.1251 -1.2301 -0.1704
  109OSM   C16F11278   6.089   6.415   9.187 -0.4816 -0.2388  0.2079
  109OSM   H16F11279   6.048   6.507   9.140 -0.2138  0.0610  0.5555
  109OSM   H16G11280   6.016   6.333   9.172 -1.2630  0.8883 -2.3542
  109OSM   C17F11281   6.202   6.370   9.095  0.3925 -0.1479 -0.2644
  109OSM   H17F11282   6.261   6.281   9.127  2.4993  1.2546 -0.1563
  109OSM   H17G11283   6.267   6.460   9.095 -1.1756  1.0043  0.4252
  109OSM   C18F11284   6.148   6.338   8.951 -0.2711  0.2113 -0.6489
  109OSM   H18F11285   6.238   6.340   8.886  3.1195 -2.3790  3.6090
  109OSM   H18G11286   6.078   6.422   8.933  0.2910  1.4770  2.6289
  109OSM   H18H11287   6.097   6.240   8.952 -2.2446  1.1833  1.9237
  110OSM      N11288   6.505   5.292  11.214 -0.7310 -0.4586 -0.3562
  110OSM    C1511289   6.566   5.158  11.252  0.5377  0.0413  0.3130
  110OSM   H15A11290   6.651   5.135  11.190  0.1875  0.7452 -0.4569
  110OSM   H15B11291   6.490   5.082  11.240  0.5757  0.2128 -1.1265
  110OSM   H15C11292   6.597   5.148  11.355  0.8435 -2.0158  0.0419
  110OSM    C1411293   6.365   5.296  11.277 -0.1388  0.2070  0.2168
  110OSM   H14A11294   6.376   5.273  11.382 -1.5431  0.1546  0.3572
  110OSM   H14B11295   6.288   5.231  11.238  0.3712  0.4796 -1.2521
  110OSM   H14C11296   6.332   5.398  11.274 -1.3806 -0.1513  1.3014
  110OSM    C1311297   6.584   5.400  11.278  0.7186  0.0880 -0.1383
  110OSM   H13A11298   6.582   5.391  11.385 -0.7408 -0.8088 -0.2337
  110OSM   H13B11299   6.539   5.497  11.257 -0.1352  0.2008  2.1240
  110OSM   H13C11300   6.686   5.398  11.244  0.6257 -0.3602 -0.3963
  110OSM    C1211301   6.494   5.324  11.068  0.2645  0.2908 -1.0054
  110OSM   H12A11302   6.451   5.422  11.051  1.4583  1.2460  1.3169
  110OSM   H12B11303   6.424   5.256  11.021  0.0333 -0.1349 -0.0443
  110OSM    C1111304   6.622   5.321  10.991  0.0934  0.0520  0.7046
  110OSM   H11A11305   6.699   5.389  11.033  1.8480 -1.5418  0.1790
  110OSM   H11B11306   6.599   5.355  10.888  1.1767  0.5738  0.6265
  110OSM      P11307   6.625   5.058  10.902 -0.3663 -0.2413  0.3053
  110OSM    O1311308   6.696   4.946  10.962 -0.4514  0.4486  0.4551
  110OSM    O1411309   6.475   5.049  10.907 -0.1541  0.9834  0.2002
  110OSM    O1111310   6.666   5.087  10.756  0.3276  0.0225 -0.4208
  110OSM    O1211311   6.679   5.187  10.980 -0.8202  0.2082  0.4641
  110OSM    C1S11312   6.799   5.146  10.731  0.3401  0.2889 -0.3324
  110OSM    H1S11313   6.876   5.066  10.731  0.1837  0.1223  1.2065
  110OSM    H1T11314   6.827   5.225  10.803  0.5920  1.8507 -2.0987
  110OSM     NF11315   6.929   5.231  10.553 -1.1755  0.0478 -0.3982
  110OSM    HNF11316   6.970   5.317  10.582 -1.9516  0.0513  0.7134
  110OSM    C2S11317   6.792   5.211  10.594 -0.4278  0.0453  0.0769
  110OSM    H2S11318   6.749   5.135  10.526 -1.1621  1.3363 -0.9352
  110OSM    C3S11319   6.706   5.346  10.598  0.0702 -0.0459  0.4459
  110OSM    H3S11320   6.756   5.410  10.674  0.9703  0.0494 -0.2097
  110OSM     O311321   6.566   5.318  10.629 -0.2731  0.1074 -0.0976
  110OSM    HO311322   6.572   5.229  10.665  1.3685  1.4673  3.2423
  110OSM    C4S11323   6.712   5.414  10.460 -0.3673  0.5261  0.0069
  110OSM    H4S11324   6.736   5.347  10.375  0.5968  0.3129  0.4356
  110OSM    C5S11325   6.705   5.546  10.450 -0.3581  0.9651 -0.7993
  110OSM    H5S11326   6.692   5.597  10.547 -2.2551 -0.2648 -0.3844
  110OSM    C6S11327   6.696   5.633  10.322 -0.2756 -0.1197 -0.4061
  110OSM    H6S11328   6.757   5.724  10.341  0.8782 -0.9918  0.1164
  110OSM    H6T11329   6.594   5.669  10.298  0.6102  2.8308  0.1260
  110OSM    C7S11330   6.751   5.582  10.188  1.2119 -0.7249 -0.6148
  110OSM    H7S11331   6.683   5.506  10.141  0.9756 -0.7843 -0.1788
  110OSM    H7T11332   6.847   5.527  10.199  2.5914  1.0659 -3.0442
  110OSM    C8S11333   6.781   5.695  10.091  0.0679 -0.2831  0.1091
  110OSM    H8S11334   6.841   5.654  10.006  0.8264  2.2462 -0.6416
  110OSM    H8T11335   6.834   5.777  10.144 -1.0299  1.0015 -0.7655
  110OSM    C9S11336   6.660   5.752  10.013 -0.3523  0.0428 -0.4945
  110OSM    H9S11337   6.598   5.794  10.095  0.5080  0.1096  0.1397
  110OSM    H9T11338   6.608   5.666   9.965  0.3705 -1.4881  1.3921
  110OSM   C10S11339   6.692   5.866   9.916 -0.0908  0.3806  0.3227
  110OSM   H10S11340   6.746   5.945   9.974  2.2181 -1.6926  1.0805
  110OSM   H10T11341   6.603   5.910   9.867 -2.0082 -2.2263  1.3586
  110OSM   C11S11342   6.786   5.822   9.801  0.0685  0.7398  0.3448
  110OSM   H11S11343   6.887   5.791   9.837 -0.8288 -2.1325  0.4839
  110OSM   H11T11344   6.808   5.916   9.746 -1.1000  0.4643 -0.6025
  110OSM   C12S11345   6.716   5.722   9.703 -0.2687 -0.8612  0.3682
  110OSM   H12S11346   6.612   5.758   9.691 -0.0424 -0.5796 -0.8262
  110OSM   H12T11347   6.713   5.619   9.746 -2.1360 -0.7598  0.5379
  110OSM   C13S11348   6.790   5.727   9.563 -0.2413 -0.2555  0.0079
  110OSM   H13S11349   6.896   5.693   9.564  0.3160  1.4579  1.1831
  110OSM   H13T11350   6.780   5.829   9.521 -0.9413 -0.3582 -0.0847
  110OSM   C14S11351   6.716   5.631   9.464  0.0409 -0.7808 -0.2957
  110OSM   H14S11352   6.609   5.660   9.466  0.1733 -0.2127 -1.1312
  110OSM   H14T11353   6.718   5.531   9.513 -5.5945 -1.6074 -1.4698
  110OSM   C15S11354   6.764   5.642   9.325  0.4573  0.5877  1.2122
  110OSM   H15S11355   6.875   5.635   9.324  0.3213 -2.1348 -0.1755
  110OSM   H15T11356   6.741   5.744   9.288 -1.2580 -0.8650 -1.9033
  110OSM   C16S11357   6.710   5.535   9.235 -0.8006  0.2761 -0.0685
  110OSM   H16S11358   6.728   5.578   9.135 -2.4275  1.5784  0.1949
  110OSM   H16T11359   6.602   5.515   9.251  0.0668 -2.5876  2.8874
  110OSM   C17S11360   6.791   5.409   9.256 -1.3094  0.0579 -0.1033
  110OSM   H17S11361   6.780   5.383   9.363 -0.0256  2.2193  0.5976
  110OSM   H17T11362   6.896   5.441   9.238 -1.7706  3.4430  2.7499
  110OSM   C18S11363   6.753   5.282   9.178 -0.3505 -0.8762 -0.7696
  110OSM   H18S11364   6.751   5.306   9.069  0.6670 -1.7558 -0.9954
  110OSM   H18T11365   6.665   5.238   9.228  0.5956 -0.9524  0.8402
  110OSM   H18U11366   6.826   5.199   9.181 -0.0227 -0.5568  0.0568
  110OSM    C1F11367   7.009   5.135  10.500 -0.1457  0.4573  0.3541
  110OSM     OF11368   6.975   5.019  10.482 -0.0743 -0.1254 -0.4242
  110OSM    C2F11369   7.152   5.174  10.470  0.4871  0.3634 -0.4590
  110OSM    H2F11370   7.238   5.111  10.501 -0.6679 -0.9232  0.1513
  110OSM    H2G11371   7.160   5.276  10.514  0.1287 -0.1524  0.8271
  110OSM    C3F11372   7.182   5.188  10.316  0.2874 -0.3299  0.3103
  110OSM    H3F11373   7.137   5.096  10.273  0.7705 -0.9033  0.9997
  110OSM    H3G11374   7.289   5.203  10.291  0.0966  1.3420  0.4549
  110OSM    C4F11375   7.110   5.303  10.255 -0.0866  0.2031 -0.9262
  110OSM    H4F11376   7.145   5.393  10.311  0.8695 -0.6910 -0.0597
  110OSM    H4G11377   7.000   5.292  10.265 -0.1915  1.8073 -0.1408
  110OSM    C5F11378   7.143   5.324  10.108  0.8153 -0.8349 -0.3759
  110OSM    H5F11379   7.113   5.232  10.053  1.1499 -0.6221 -0.9180
  110OSM    H5G11380   7.254   5.322  10.101  1.0231  1.3902  1.6821
  110OSM    C6F11381   7.083   5.450  10.036  0.5988  0.3562  1.1064
  110OSM    H6F11382   7.116   5.534  10.101 -0.8199  1.3188  0.6108
  110OSM    H6G11383   6.973   5.452  10.023  0.9270  1.0416 -2.0290
  110OSM    C7F11384   7.144   5.473   9.896 -0.1089  0.4652 -0.2723
  110OSM    H7F11385   7.129   5.384   9.832 -0.9637  0.1669  0.3413
  110OSM    H7G11386   7.251   5.498   9.911  0.3016 -1.8524  0.8125
  110OSM    C8F11387   7.081   5.598   9.824  0.2279 -0.2406  0.0956
  110OSM    H8F11388   7.080   5.666   9.912 -1.1335  0.7599 -0.6697
  110OSM    H8G11389   6.974   5.574   9.811  0.0098 -1.0501  3.0468
  110OSM    C9F11390   7.157   5.666   9.714  0.6956  0.4906  0.6248
  110OSM    H9F11391   7.176   5.607   9.623  0.6150  0.8304  0.3895
  110OSM   C10F11392   7.184   5.800   9.715  0.3913  0.0577  0.0250
  110OSM   H10F11393   7.255   5.841   9.642  0.8936 -1.0512 -0.1165
  110OSM   C11F11394   7.169   5.901   9.825 -0.4761 -0.3730  0.3002
  110OSM   H11F11395   7.134   5.864   9.923  1.6068 -2.4582  0.2969
  110OSM   H11G11396   7.094   5.974   9.786 -0.4172 -1.0853 -1.1992
  110OSM   C12F11397   7.300   5.967   9.866 -0.2346  0.2021 -0.2430
  110OSM   H12F11398   7.358   5.886   9.915  0.9637  1.3902  0.3345
  110OSM   H12G11399   7.272   6.042   9.943 -1.3955 -0.7616  0.2815
  110OSM   C13F11400   7.394   6.027   9.760 -0.8471  0.0071 -0.0572
  110OSM   H13F11401   7.429   5.957   9.681  0.5259  0.0030  0.5459
  110OSM   H13G11402   7.483   6.061   9.817 -0.5587  0.6184 -0.8613
  110OSM   C14F11403   7.327   6.144   9.682  0.2354  0.2533 -0.4000
  110OSM   H14F11404   7.258   6.190   9.757  0.0765  1.7920 -1.4636
  110OSM   H14G11405   7.261   6.084   9.616 -1.6584  0.8356  0.9288
  110OSM   C15F11406   7.420   6.228   9.609  0.1695  0.1719  0.2435
  110OSM   H15F11407   7.490   6.170   9.545 -1.1953  0.0213 -1.1416
  110OSM   H15G11408   7.483   6.293   9.674  0.4292  0.5314 -0.3581
  110OSM   C16F11409   7.348   6.318   9.506  0.4631 -0.4748 -0.2756
  110OSM   H16F11410   7.286   6.243   9.452  0.9506 -1.6444  0.7631
  110OSM   H16G11411   7.426   6.360   9.440  0.4994  0.5168  0.3989
  110OSM   C17F11412   7.257   6.432   9.560  0.5421 -0.2842  0.1325
  110OSM   H17F11413   7.173   6.387   9.617  0.1453  1.7024  1.1838
  110OSM   H17G11414   7.210   6.480   9.472  0.1089 -0.4616  0.2631
  110OSM   C18F11415   7.321   6.549   9.629  0.5406  0.4755  0.4465
  110OSM   H18F11416   7.377   6.514   9.719  1.9987 -1.6174 -1.2268
  110OSM   H18G11417   7.250   6.634   9.639  0.0904  0.0285  1.1545
  110OSM   H18H11418   7.391   6.595   9.556 -1.8171 -2.3326 -3.8053
  111OSM      N11419   0.617   2.613  10.687 -0.4751  0.7233 -0.1828
  111OSM    C1511420   0.628   2.470  10.639  0.0154  0.1723  0.2587
  111OSM   H15A11421   0.726   2.453  10.596  1.3457  1.8563  2.5223
  111OSM   H15B11422   0.546   2.454  10.571  0.6469  2.9147 -1.2296
  111OSM   H15C11423   0.620   2.410  10.728  0.1703  0.5338  0.5183
  111OSM    C1411424   0.491   2.628  10.763 -0.0213  0.2050  0.3807
  111OSM   H14A11425   0.404   2.597  10.707 -1.3970  1.8004  1.5885
  111OSM   H14B11426   0.478   2.732  10.790  1.7844  0.2193  1.2682
  111OSM   H14C11427   0.491   2.576  10.857 -2.0219  1.0311  0.8618
  111OSM    C1311428   0.731   2.642  10.786 -0.0958  0.2544  0.2501
  111OSM   H13A11429   0.701   2.604  10.882  1.2768 -0.3405  0.4581
  111OSM   H13B11430   0.738   2.749  10.789 -0.3230  0.2184  3.3507
  111OSM   H13C11431   0.822   2.596  10.752 -0.1534  1.6272 -1.8435
  111OSM    C1211432   0.632   2.710  10.568  0.0827  0.1545  0.4084
  111OSM   H12A11433   0.573   2.670  10.488 -0.6875 -3.2746  2.5989
  111OSM   H12B11434   0.732   2.692  10.530  0.7159 -1.1402  2.5653
  111OSM    C1111435   0.618   2.863  10.582 -0.0093  0.2267 -0.0770
  111OSM   H11A11436   0.511   2.880  10.605  0.0219 -0.6313  0.7063
  111OSM   H11B11437   0.651   2.914  10.489  2.3423  0.1700  0.6878
  111OSM      P11438   0.835   2.984  10.682  0.0674 -0.0434 -0.2507
  111OSM    O1311439   0.830   3.091  10.783 -0.2103  1.0578  0.4363
  111OSM    O1411440   0.944   2.883  10.695  0.1375  0.7721 -0.3547
  111OSM    O1111441   0.853   3.038  10.534 -0.4055  0.2444  0.1803
  111OSM    O1211442   0.695   2.911  10.686 -0.1142  0.2124 -0.3445
  111OSM    C1S11443   0.803   3.171  10.499 -0.3967  0.2000  0.5673
  111OSM    H1S11444   0.844   3.254  10.560 -1.8985  0.2762  1.5062
  111OSM    H1T11445   0.692   3.172  10.506 -0.3278  1.9126  1.6528
  111OSM     NF11446   0.799   3.343  10.331  0.2703 -0.5490 -0.0376
  111OSM    HNF11447   0.708   3.369  10.300  0.0978 -0.5543  0.4506
  111OSM    C2S11448   0.828   3.204  10.349  0.1125  0.0509 -0.5911
  111OSM    H2S11449   0.936   3.187  10.327  0.1815  0.2121 -0.3707
  111OSM    C3S11450   0.743   3.111  10.259 -0.3837 -0.4681  0.5348
  111OSM    H3S11451   0.635   3.120  10.280 -0.4862  0.1274 -0.2247
  111OSM     O311452   0.776   2.973  10.280 -0.0922 -0.4010  0.7449
  111OSM    HO311453   0.845   2.981  10.346  0.0072 -0.4969  0.6527
  111OSM    C4S11454   0.765   3.149  10.113  0.4041  0.4596 -0.1321
  111OSM    H4S11455   0.694   3.224  10.075  0.6915  0.7779 -0.0400
  111OSM    C5S11456   0.868   3.098  10.031  0.3561  0.4955 -0.2154
  111OSM    H5S11457   0.944   3.027  10.068  1.0030  0.8071 -0.9350
  111OSM    C6S11458   0.890   3.134   9.889 -0.0999  0.0339  0.0949
  111OSM    H6S11459   0.869   3.051   9.818  3.2812  0.6994 -1.8028
  111OSM    H6T11460   0.999   3.151   9.883 -0.2759  1.2705  0.1048
  111OSM    C7S11461   0.811   3.255   9.833 -0.3688  0.2173 -0.0293
  111OSM    H7S11462   0.810   3.341   9.903  0.8435  1.0034 -0.9531
  111OSM    H7T11463   0.705   3.231   9.811 -0.3521  0.6110 -0.5557
  111OSM    C8S11464   0.883   3.315   9.710 -0.4681  0.2899 -0.4003
  111OSM    H8S11465   0.988   3.331   9.745  0.2352 -1.2691 -1.7460
  111OSM    H8T11466   0.835   3.413   9.687  0.3070  0.0791 -3.0890
  111OSM    C9S11467   0.893   3.225   9.589 -0.6635 -0.2873 -0.1761
  111OSM    H9S11468   0.788   3.224   9.552 -0.8686 -0.8565  0.3926
  111OSM    H9T11469   0.906   3.117   9.614  0.7265 -0.0369  0.2165
  111OSM   C10S11470   0.991   3.253   9.474 -0.0767  0.0489 -0.3589
  111OSM   H10S11471   0.945   3.202   9.388  0.2771 -0.2762 -0.3551
  111OSM   H10T11472   1.092   3.217   9.502  0.3339  2.0172  0.8149
  111OSM   C11S11473   1.015   3.399   9.442 -0.1679 -0.0506  0.0157
  111OSM   H11S11474   1.086   3.445   9.513  0.1195 -3.1464  1.8326
  111OSM   H11T11475   0.923   3.461   9.443  0.4997  1.0033  3.4351
  111OSM   C12S11476   1.074   3.407   9.300  0.1625 -1.1858  0.1676
  111OSM   H12S11477   1.155   3.335   9.279  0.8844 -0.4262  0.3288
  111OSM   H12T11478   1.127   3.504   9.302 -1.9248 -0.0265  2.5064
  111OSM   C13S11479   0.988   3.401   9.179  0.2122  0.7713  0.3770
  111OSM   H13S11480   0.921   3.489   9.189 -0.3474  0.5153 -1.0369
  111OSM   H13T11481   0.928   3.309   9.189  1.6355 -0.3865 -1.3492
  111OSM   C14S11482   1.054   3.405   9.038  0.0183 -0.2092 -0.0757
  111OSM   H14S11483   1.110   3.500   9.018 -2.7742  1.6621  0.7739
  111OSM   H14T11484   0.972   3.396   8.964 -0.6745  2.1281  0.3675
  111OSM   C15S11485   1.146   3.287   9.014  0.3175 -0.3951  0.0179
  111OSM   H15S11486   1.087   3.195   9.031 -0.2018  0.3319  2.2367
  111OSM   H15T11487   1.233   3.287   9.083  0.4356  0.9397 -0.1195
  111OSM   C16S11488   1.196   3.293   8.869 -0.4628 -0.7466 -0.2515
  111OSM   H16S11489   1.279   3.365   8.853 -0.6548 -0.1862  1.2528
  111OSM   H16T11490   1.107   3.318   8.807  0.2426 -0.1305 -1.0388
  111OSM   C17S11491   1.231   3.155   8.823 -0.5159 -0.3357  0.3456
  111OSM   H17S11492   1.153   3.077   8.835  0.9342 -2.1653 -1.6985
  111OSM   H17T11493   1.319   3.120   8.882 -0.2583  2.5581  1.7855
  111OSM   C18S11494   1.264   3.157   8.672  0.4912 -0.2953  0.2654
  111OSM   H18S11495   1.304   3.056   8.647 -0.8334 -0.8573  0.3394
  111OSM   H18T11496   1.332   3.241   8.649 -0.3328 -0.1425 -1.7352
  111OSM   H18U11497   1.169   3.164   8.614  1.1065 -3.9387 -1.2897
  111OSM    C1F11498   0.880   3.449  10.332 -0.2815 -0.3509 -0.3208
  111OSM     OF11499   0.977   3.442  10.405  0.0765 -0.2958  0.0716
  111OSM    C2F11500   0.856   3.575  10.247  0.9808 -0.0679 -0.3285
  111OSM    H2F11501   0.900   3.662  10.301  0.4600 -0.4265  0.6795
  111OSM    H2G11502   0.749   3.589  10.221  1.3397  2.2416 -0.6921
  111OSM    C3F11503   0.951   3.569  10.120  0.0172 -0.5121 -0.6263
  111OSM    H3F11504   0.921   3.492  10.046 -1.6631 -0.8000  0.3317
  111OSM    H3G11505   1.058   3.550  10.144  0.2924 -2.2264 -3.0713
  111OSM    C4F11506   0.929   3.711  10.055 -0.5721  0.3578 -0.0648
  111OSM    H4F11507   1.004   3.784  10.094 -0.4138 -0.1033  0.5025
  111OSM    H4G11508   0.826   3.746  10.077  0.7031  3.1026  1.8633
  111OSM    C5F11509   0.934   3.717   9.898 -0.5662 -1.0276 -0.3054
  111OSM    H5F11510   0.853   3.655   9.853 -0.7700 -0.7673 -0.2949
  111OSM    H5G11511   1.035   3.683   9.868 -0.1307 -0.5247  0.5604
  111OSM    C6F11512   0.922   3.858   9.840  0.3541 -0.2551 -0.2000
  111OSM    H6F11513   0.977   3.926   9.908 -1.2230 -0.1026  0.9567
  111OSM    H6G11514   0.816   3.892   9.844  1.0758  2.1021 -0.5069
  111OSM    C7F11515   0.974   3.874   9.699  0.0891  0.1461 -0.0971
  111OSM    H7F11516   1.085   3.863   9.697  0.0286 -0.4654 -2.9374
  111OSM    H7G11517   0.946   3.977   9.667 -2.0422 -0.2556  0.3759
  111OSM    C8F11518   0.918   3.773   9.601  0.6390  0.2523 -0.0225
  111OSM    H8F11519   0.807   3.762   9.599  0.7226 -0.5953  0.2892
  111OSM    H8G11520   0.948   3.676   9.643 -0.9150  0.0391  0.6442
  111OSM    C9F11521   0.973   3.793   9.462  0.4604  0.1147  0.5093
  111OSM    H9F11522   1.069   3.847   9.461  0.8262 -0.5417 -0.1735
  111OSM   C10F11523   0.905   3.765   9.350 -0.2119  0.1162  0.2086
  111OSM   H10F11524   0.961   3.788   9.258  0.1900 -0.3796  0.3282
  111OSM   C11F11525   0.771   3.701   9.335  0.0575 -0.0675 -0.5815
  111OSM   H11F11526   0.692   3.746   9.398  1.3765 -0.4126  1.3811
  111OSM   H11G11527   0.788   3.594   9.361  0.9017  0.0639 -0.5524
  111OSM   C12F11528   0.720   3.714   9.190  0.2360 -0.0376 -0.0573
  111OSM   H12F11529   0.624   3.660   9.181  0.8014 -1.1666  0.6516
  111OSM   H12G11530   0.795   3.664   9.125  0.4731 -0.4949  0.5724
  111OSM   C13F11531   0.673   3.854   9.149 -0.9068  0.1924  0.3093
  111OSM   H13F11532   0.753   3.930   9.150  1.2977 -2.0777  0.6587
  111OSM   H13G11533   0.596   3.870   9.228  0.3132 -3.6843  2.3966
  111OSM   C14F11534   0.615   3.871   9.004 -0.8035  0.0722  0.1197
  111OSM   H14F11535   0.589   3.977   8.982  3.5150  0.8868 -1.4730
  111OSM   H14G11536   0.519   3.815   9.010 -1.9281  1.2495 -4.6304
  111OSM   C15F11537   0.720   3.836   8.899 -0.4533  0.4949  0.3739
  111OSM   H15F11538   0.664   3.821   8.805  1.4892  1.8568 -1.0490
  111OSM   H15G11539   0.768   3.747   8.946 -0.3272  0.5094  0.2731
  111OSM   C16F11540   0.823   3.949   8.876 -0.6006  0.1029 -0.1188
  111OSM   H16F11541   0.854   3.996   8.972 -0.1911  1.4550 -0.8882
  111OSM   H16G11542   0.770   4.031   8.822 -0.8525 -1.2265 -1.9241
  111OSM   C17F11543   0.942   3.907   8.782  0.1908  0.1568  0.6717
  111OSM   H17F11544   1.004   3.993   8.749 -1.3921  0.4605 -1.6284
  111OSM   H17G11545   0.906   3.859   8.689  0.0641  0.1594  0.7191
  111OSM   C18F11546   1.039   3.813   8.849  0.3235  0.1269 -0.7687
  111OSM   H18F11547   0.988   3.718   8.876 -0.7335  0.4873 -1.4615
  111OSM   H18G11548   1.076   3.857   8.944  1.7544  0.7472 -1.6077
  111OSM   H18H11549   1.123   3.770   8.790  0.1287 -1.3004 -0.0380
  112OSM      N11550   6.709   1.285  11.085 -0.6069  0.3254  0.0351
  112OSM    C1511551   6.725   1.199  11.205 -0.4631 -0.4681 -0.1840
  112OSM   H15A11552   6.695   1.241  11.300 -0.7322  0.7173 -0.7767
  112OSM   H15B11553   6.829   1.173  11.214 -0.2669  0.6956  1.1980
  112OSM   H15C11554   6.672   1.106  11.194  0.9082 -1.2587 -0.1846
  112OSM    C1411555   6.782   1.417  11.109  0.3353  0.2668 -0.7650
  112OSM   H14A11556   6.778   1.482  11.023 -0.8165 -0.1667 -1.0363
  112OSM   H14B11557   6.885   1.407  11.142 -0.1936  1.6353  1.4835
  112OSM   H14C11558   6.733   1.470  11.190 -0.4838 -0.6213 -0.6804
  112OSM    C1311559   6.778   1.207  10.972 -0.6243 -0.6176  0.1584
  112OSM   H13A11560   6.744   1.105  10.977  2.7887 -1.8322 -0.1892
  112OSM   H13B11561   6.881   1.229  10.996 -0.6464  0.3468 -0.5928
  112OSM   H13C11562   6.758   1.255  10.877 -0.0082 -1.0614 -0.1972
  112OSM    C1211563   6.563   1.303  11.054 -0.9513 -0.2548  0.5715
  112OSM   H12A11564   6.520   1.361  11.134  0.4944  0.9082  0.5142
  112OSM   H12B11565   6.524   1.202  11.055 -0.7988 -0.3250 -0.1441
  112OSM    C1111566   6.531   1.395  10.933  0.7066 -0.4192  1.2098
  112OSM   H11A11567   6.575   1.494  10.957  1.3861 -0.5570  0.5535
  112OSM   H11B11568   6.421   1.405  10.926  0.7511 -1.2232 -1.4955
  112OSM      P11569   6.665   1.430  10.716  0.2050  0.0699  0.3828
  112OSM    O1311570   6.571   1.531  10.652  0.2190  0.3157 -0.0155
  112OSM    O1411571   6.776   1.491  10.787  0.4467 -0.1482 -0.3860
  112OSM    O1111572   6.722   1.337  10.605 -0.2585  0.5322 -0.1147
  112OSM    O1211573   6.580   1.341  10.812 -0.9251  0.2861 -0.1069
  112OSM    C1S11574   6.649   1.307  10.482 -0.2421  0.0760  0.0921
  112OSM    H1S11575   6.643   1.401  10.422 -0.1659  1.7131  2.5905
  112OSM    H1T11576   6.539   1.293  10.492 -0.5625  2.4235  0.0297
  112OSM     NF11577   6.651   1.149  10.277 -0.1378 -0.6730 -0.2675
  112OSM    HNF11578   6.623   1.054  10.263  0.2216 -0.7070 -0.7747
  112OSM    C2S11579   6.709   1.177  10.407 -0.4344 -0.1818 -0.1232
  112OSM    H2S11580   6.816   1.200  10.390  0.0779 -1.1107  1.8054
  112OSM    C3S11581   6.710   1.055  10.507 -0.1164  0.0662  0.0189
  112OSM    H3S11582   6.601   1.035  10.518 -0.5792  0.5945 -3.0982
  112OSM     O311583   6.787   1.089  10.627  0.5777 -0.4682 -0.1837
  112OSM    HO311584   6.759   1.178  10.647 -0.7326 -0.9311  0.0915
  112OSM    C4S11585   6.778   0.944  10.447  0.0673  0.2947  0.1448
  112OSM    H4S11586   6.868   0.976  10.393 -1.1100 -1.4107 -2.9593
  112OSM    C5S11587   6.735   0.817  10.438  0.7214 -0.4754 -0.8075
  112OSM    H5S11588   6.644   0.794  10.496  0.2195  2.1133 -0.5133
  112OSM    C6S11589   6.805   0.710  10.363 -0.0821 -0.1286 -0.6679
  112OSM    H6S11590   6.808   0.613  10.417 -3.3426 -0.5671 -1.1656
  112OSM    H6T11591   6.907   0.747  10.343 -1.2031  1.9937 -2.6850
  112OSM    C7S11592   6.754   0.678  10.226 -0.0697 -0.4030 -0.3990
  112OSM    H7S11593   6.750   0.780  10.182 -0.0348 -0.1785  0.1094
  112OSM    H7T11594   6.650   0.639  10.218  0.6899 -2.1499 -2.1650
  112OSM    C8S11595   6.851   0.604  10.143  0.4333 -0.5819 -0.5205
  112OSM    H8S11596   6.849   0.499  10.178  1.5302 -0.5503 -0.3604
  112OSM    H8T11597   6.955   0.641  10.151 -0.4620  1.5341  1.8789
  112OSM    C9S11598   6.798   0.599   9.998  0.0660 -0.1434  0.4036
  112OSM    H9S11599   6.800   0.705   9.964  0.7281  0.3894  2.0505
  112OSM    H9T11600   6.696   0.555   9.997 -0.1211  0.2443 -2.1380
  112OSM   C10S11601   6.882   0.521   9.898  0.5280 -0.4418 -0.0201
  112OSM   H10S11602   6.843   0.553   9.799 -0.0232  2.4552  1.0795
  112OSM   H10T11603   6.858   0.413   9.910  0.9138 -0.4660  0.5395
  112OSM   C11S11604   7.036   0.531   9.906 -0.2210  0.4712  0.5005
  112OSM   H11S11605   7.083   0.512  10.005  1.3495  1.2381 -0.0850
  112OSM   H11T11606   7.055   0.637   9.881  1.0830  0.3188  0.8211
  112OSM   C12S11607   7.107   0.443   9.803 -0.7704 -0.1276 -0.3279
  112OSM   H12S11608   7.086   0.483   9.702  3.0165  0.7307 -0.8494
  112OSM   H12T11609   7.062   0.341   9.807 -1.7742  0.3049 -0.2695
  112OSM   C13S11610   7.261   0.448   9.820 -0.2485  0.0828 -0.5589
  112OSM   H13S11611   7.291   0.449   9.927 -3.1093 -0.5405  0.3001
  112OSM   H13T11612   7.287   0.545   9.772  0.2840 -0.4768 -1.4183
  112OSM   C14S11613   7.330   0.336   9.737  0.5951 -0.0384 -0.9124
  112OSM   H14S11614   7.294   0.239   9.779 -0.7941  0.9993  0.3524
  112OSM   H14T11615   7.441   0.339   9.745  0.6299 -2.4274  0.0105
  112OSM   C15S11616   7.291   0.333   9.590  0.5315 -0.2929  0.9097
  112OSM   H15S11617   7.326   0.431   9.552  0.4657 -0.1502  1.2158
  112OSM   H15T11618   7.180   0.325   9.585  0.7505 -2.5713 -2.5059
  112OSM   C16S11619   7.374   0.229   9.507  0.4391  0.2804  0.3512
  112OSM   H16S11620   7.350   0.124   9.536  3.2579 -0.8763 -1.2503
  112OSM   H16T11621   7.484   0.226   9.528  0.6663 -1.1454 -0.9790
  112OSM   C17S11622   7.352   0.245   9.352 -0.6003 -0.0018 -0.0769
  112OSM   H17S11623   7.382   0.347   9.321  3.8305 -1.4942 -1.0959
  112OSM   H17T11624   7.245   0.242   9.325 -1.0490  0.5814  1.5568
  112OSM   C18S11625   7.408   0.134   9.267  0.6949  0.2152 -0.5867
  112OSM   H18S11626   7.346   0.042   9.255  0.7129 -0.0182  1.0338
  112OSM   H18T11627   7.497   0.091   9.317  0.2060  0.0175  0.1258
  112OSM   H18U11628   7.430   0.175   9.166 -0.2332  2.3172  0.0330
  112OSM    C1F11629   6.668   1.239  10.177  0.6671 -0.4747 -0.4797
  112OSM     OF11630   6.734   1.344  10.180 -0.3063 -0.3868  0.2592
  112OSM    C2F11631   6.594   1.204  10.049 -0.1580 -0.3346 -0.4635
  112OSM    H2F11632   6.496   1.255  10.055 -0.0784 -0.2051 -0.2773
  112OSM    H2G11633   6.571   1.096  10.043 -0.8761 -0.2306  0.3428
  112OSM    C3F11634   6.678   1.252   9.926 -0.5743 -0.2663 -0.4674
  112OSM    H3F11635   6.773   1.196   9.935 -1.1543 -1.1525  0.3388
  112OSM    H3G11636   6.693   1.357   9.957 -0.4389 -0.4704  0.1743
  112OSM    C4F11637   6.605   1.251   9.793 -0.1962 -0.2492  0.2261
  112OSM    H4F11638   6.585   1.358   9.770  0.5737 -0.0242  0.5679
  112OSM    H4G11639   6.516   1.186   9.797 -0.2178 -0.2555 -0.3931
  112OSM    C5F11640   6.690   1.191   9.685 -0.2009 -0.1484 -0.3275
  112OSM    H5F11641   6.702   1.082   9.701 -1.5162 -0.1521  0.6308
  112OSM    H5G11642   6.790   1.240   9.683 -0.5580  0.6062  0.2745
  112OSM    C6F11643   6.641   1.201   9.545  0.0205  0.3596 -0.2134
  112OSM    H6F11644   6.619   1.309   9.537  2.4470  1.0643  2.0279
  112OSM    H6G11645   6.547   1.143   9.538 -0.0059  0.2391  1.0873
  112OSM    C7F11646   6.756   1.154   9.444  0.0774  0.0045 -0.7197
  112OSM    H7F11647   6.779   1.049   9.472  0.0328 -0.5341 -2.6177
  112OSM    H7G11648   6.842   1.219   9.471 -0.2303  1.5311 -3.2110
  112OSM    C8F11649   6.734   1.149   9.297  0.1053 -1.0238 -0.1549
  112OSM    H8F11650   6.729   1.250   9.251  0.2549  0.1198  2.2514
  112OSM    H8G11651   6.636   1.101   9.277 -0.0576 -0.5194 -0.5486
  112OSM    C9F11652   6.831   1.068   9.215  0.3446  0.3666  0.1070
  112OSM    H9F11653   6.932   1.112   9.210 -0.1201  1.2745 -1.5497
  112OSM   C10F11654   6.819   0.943   9.168 -0.0967 -0.2530 -0.4680
  112OSM   H10F11655   6.902   0.911   9.104  1.1111  1.5796  0.1574
  112OSM   C11F11656   6.703   0.844   9.189 -0.3047  0.5963  0.2471
  112OSM   H11F11657   6.647   0.878   9.279 -1.3803 -1.3349  0.3477
  112OSM   H11G11658   6.748   0.742   9.194  0.2417  0.8174 -0.1412
  112OSM   C12F11659   6.598   0.848   9.072 -0.3317  0.1517  0.5636
  112OSM   H12F11660   6.640   0.796   8.983  0.4026  0.2131  0.8700
  112OSM   H12G11661   6.577   0.952   9.038 -0.2739 -1.2097 -3.9866
  112OSM   C13F11662   6.460   0.786   9.101 -0.1334  0.0819  0.1871
  112OSM   H13F11663   6.476   0.677   9.113 -0.0466 -0.1644 -1.9898
  112OSM   H13G11664   6.396   0.811   9.013  0.7739  2.0734  0.0687
  112OSM   C14F11665   6.399   0.830   9.232  0.0958  0.0184  0.7099
  112OSM   H14F11666   6.399   0.941   9.227 -1.0429  0.0506  1.2645
  112OSM   H14G11667   6.459   0.791   9.317  0.9570 -0.8167 -0.2648
  112OSM   C15F11668   6.252   0.795   9.269 -0.9990  0.0459  0.2250
  112OSM   H15F11669   6.178   0.858   9.214 -0.7767  1.4940  1.5703
  112OSM   H15G11670   6.247   0.803   9.379  0.4266  2.7614  0.1443
  112OSM   C16F11671   6.217   0.655   9.243 -0.6726 -0.1633 -0.0818
  112OSM   H16F11672   6.304   0.587   9.256 -1.2051 -0.6040  1.2874
  112OSM   H16G11673   6.187   0.651   9.136  2.5623 -0.3431 -1.0345
  112OSM   C17F11674   6.110   0.591   9.332 -0.2896  0.0582  0.6693
  112OSM   H17F11675   6.021   0.654   9.312  0.0456  0.1331 -0.6560
  112OSM   H17G11676   6.126   0.614   9.439  2.4673 -2.7285  0.9413
  112OSM   C18F11677   6.075   0.445   9.300  0.0169  0.1225 -0.3522
  112OSM   H18F11678   5.989   0.417   9.365 -0.3946  0.7826 -0.6122
  112OSM   H18G11679   6.157   0.376   9.329 -0.5536 -0.0013  1.0243
  112OSM   H18H11680   6.052   0.437   9.192  1.3596  1.4138 -0.7487
  113OSM      N11681   1.071   1.212  10.674  0.0200  0.5648 -0.4762
  113OSM    C1511682   1.089   1.364  10.656  0.0526  0.3308 -0.6445
  113OSM   H15A11683   1.179   1.397  10.707 -1.0385  0.5148  1.1892
  113OSM   H15B11684   1.001   1.410  10.698  1.0768  1.6515  0.1104
  113OSM   H15C11685   1.110   1.384  10.552 -1.5673 -0.0400 -1.0543
  113OSM    C1411686   1.205   1.153  10.641  0.6373 -0.0206  0.1587
  113OSM   H14A11687   1.233   1.068  10.701  1.5778  0.6771  0.7281
  113OSM   H14B11688   1.277   1.224  10.680  2.6481 -2.6319  1.3304
  113OSM   H14C11689   1.232   1.126  10.540  1.6859 -2.6121  1.0931
  113OSM    C1311690   1.035   1.180  10.819  0.1460 -0.3790 -0.1073
  113OSM   H13A11691   1.085   1.235  10.897  1.0298 -0.5420 -0.5571
  113OSM   H13B11692   1.034   1.073  10.835 -0.3557 -0.1474  1.5277
  113OSM   H13C11693   0.933   1.214  10.834 -0.1619 -0.1978 -2.3614
  113OSM    C1211694   0.965   1.163  10.574 -0.3041  0.3029 -0.6854
  113OSM   H12A11695   1.008   1.165  10.475  0.1375  0.4017 -0.4924
  113OSM   H12B11696   0.877   1.226  10.567  0.4520  1.3572 -0.9170
  113OSM    C1111697   0.918   1.016  10.596  0.8735  0.2606  0.1151
  113OSM   H11A11698   0.989   0.939  10.634  0.9343  0.2608  0.0005
  113OSM   H11B11699   0.888   0.989  10.493  0.7334  1.1956 -0.0973
  113OSM      P11700   0.660   1.078  10.648 -0.0775  0.3162  0.5060
  113OSM    O1311701   0.554   1.054  10.754  0.3786  0.2770  0.2840
  113OSM    O1411702   0.675   1.218  10.594 -1.1958  0.3000 -0.4684
  113OSM    O1111703   0.634   0.989  10.522 -0.6381  1.0238  0.3366
  113OSM    O1211704   0.802   1.018  10.688 -0.3891 -0.7864  0.5745
  113OSM    C1S11705   0.656   0.847  10.510  1.0752  0.5268  0.0551
  113OSM    H1S11706   0.582   0.796  10.576  1.5022 -0.4895 -0.2490
  113OSM    H1T11707   0.755   0.811  10.546  0.7413 -0.2239  0.2500
  113OSM     NF11708   0.649   0.643  10.371  0.0106 -0.3614  0.0660
  113OSM    HNF11709   0.737   0.597  10.361 -0.1214 -0.2242 -1.9169
  113OSM    C2S11710   0.644   0.787  10.361  0.7244 -0.1036 -0.4698
  113OSM    H2S11711   0.551   0.832  10.322 -1.0578 -0.3489  3.2518
  113OSM    C3S11712   0.756   0.854  10.279 -0.9321  0.0150 -0.7308
  113OSM    H3S11713   0.857   0.826  10.316 -1.7147 -0.3424  1.2271
  113OSM     O311714   0.761   0.996  10.265  0.6819  0.1637 -0.0006
  113OSM    HO311715   0.690   1.027  10.321  0.3914 -0.9515  0.2536
  113OSM    C4S11716   0.747   0.785  10.144  0.5334  0.0511  0.5331
  113OSM    H4S11717   0.798   0.689  10.160  3.4340  1.1787 -1.6148
  113OSM    C5S11718   0.687   0.817  10.030 -0.4061 -0.1857  1.0121
  113OSM    H5S11719   0.650   0.919  10.012  0.7277  0.1489  0.4907
  113OSM    C6S11720   0.686   0.722   9.913  0.1147  0.0754 -0.3258
  113OSM    H6S11721   0.586   0.707   9.868 -0.0287  1.0686 -0.3472
  113OSM    H6T11722   0.728   0.623   9.942 -1.3451 -0.4571  0.0138
  113OSM    C7S11723   0.784   0.779   9.801  0.1138  0.1228 -1.2112
  113OSM    H7S11724   0.886   0.790   9.845 -0.6966 -1.1922  1.1092
  113OSM    H7T11725   0.748   0.879   9.772 -0.0457  0.2366 -0.6243
  113OSM    C8S11726   0.777   0.692   9.676  0.2578  0.8873 -0.0009
  113OSM    H8S11727   0.674   0.653   9.656 -0.2536  0.9607  2.4096
  113OSM    H8T11728   0.838   0.600   9.692 -0.0622  1.0978  2.5556
  113OSM    C9S11729   0.827   0.770   9.561 -0.2915 -0.0449 -0.9138
  113OSM    H9S11730   0.932   0.801   9.574 -0.8171  0.8201  1.6202
  113OSM    H9T11731   0.767   0.864   9.564 -0.0942  0.0845 -0.9973
  113OSM   C10S11732   0.832   0.698   9.427  0.3516  0.0729 -0.2360
  113OSM   H10S11733   0.905   0.615   9.432  0.4891  0.1929 -0.2606
  113OSM   H10T11734   0.864   0.776   9.355  1.0139  0.6446  0.6681
  113OSM   C11S11735   0.700   0.645   9.380 -0.7822  0.0397 -0.2866
  113OSM   H11S11736   0.626   0.727   9.391 -0.6250  0.4059 -1.7759
  113OSM   H11T11737   0.669   0.553   9.433  2.0590 -1.8032 -1.6909
  113OSM   C12S11738   0.717   0.607   9.230  0.0912 -0.1327  0.2339
  113OSM   H12S11739   0.764   0.686   9.168  1.8577 -1.2796  0.0846
  113OSM   H12T11740   0.614   0.590   9.192  0.3654 -1.3417 -0.0094
  113OSM   C13S11741   0.804   0.477   9.204 -0.0594 -1.2130  0.2623
  113OSM   H13S11742   0.753   0.408   9.275 -2.1619  0.1131  0.1015
  113OSM   H13T11743   0.908   0.486   9.243  0.5214 -0.1728 -1.4767
  113OSM   C14S11744   0.793   0.418   9.069  0.4883  0.6447  0.3585
  113OSM   H14S11745   0.810   0.498   8.993  1.9316 -0.7394 -0.8076
  113OSM   H14T11746   0.692   0.375   9.051  0.7935  0.6635 -1.4744
  113OSM   C15S11747   0.896   0.302   9.038  0.2618 -0.0743  0.4586
  113OSM   H15S11748   0.856   0.210   9.086 -0.1434 -0.1573 -0.0230
  113OSM   H15T11749   0.995   0.321   9.084 -1.0652  0.4782  3.1333
  113OSM   C16S11750   0.919   0.291   8.882  0.1894 -0.4831 -0.0635
  113OSM   H16S11751   0.977   0.373   8.833 -0.0209  0.1516  0.7318
  113OSM   H16T11752   0.821   0.276   8.832 -1.1088 -2.5773  2.9167
  113OSM   C17S11753   0.987   0.163   8.850  0.2315  0.2265 -0.3856
  113OSM   H17S11754   0.921   0.080   8.884 -1.0333  1.2724 -0.2576
  113OSM   H17T11755   1.074   0.162   8.919  0.5520 -2.6641 -0.7648
  113OSM   C18S11756   1.030   0.145   8.704 -0.2700  0.7285 -0.7777
  113OSM   H18S11757   1.082   0.048   8.692 -1.3983 -0.0163  0.2544
  113OSM   H18T11758   1.099   0.225   8.669 -0.8514  2.5230  1.9597
  113OSM   H18U11759   0.948   0.145   8.628 -0.4990  3.0282 -0.5764
  113OSM    C1F11760   0.548   0.570  10.408  0.2392  0.1469  0.7424
  113OSM     OF11761   0.444   0.625  10.442  0.1897  0.5721  0.6599
  113OSM    C2F11762   0.568   0.424  10.398 -0.2265  0.0745 -0.0832
  113OSM    H2F11763   0.539   0.384  10.497 -1.9376 -0.8552 -0.9297
  113OSM    H2G11764   0.676   0.404  10.389  0.0216  1.3266 -0.0276
  113OSM    C3F11765   0.489   0.365  10.275  0.0761 -0.4236  0.1498
  113OSM    H3F11766   0.532   0.418  10.188 -0.3390 -0.4128 -0.0473
  113OSM    H3G11767   0.378   0.373  10.282  0.3067  2.2037  1.2705
  113OSM    C4F11768   0.522   0.217  10.261 -0.1704  0.2464 -0.3370
  113OSM    H4F11769   0.459   0.169  10.338  0.1045  0.3209 -0.0654
  113OSM    H4G11770   0.632   0.212  10.280 -0.2183 -1.2895 -0.3900
  113OSM    C5F11771   0.493   0.159  10.126 -0.7058  0.9722 -0.2430
  113OSM    H5F11772   0.528   0.218  10.038 -0.6696 -0.0637 -0.9339
  113OSM    H5G11773   0.382   0.148  10.116 -0.6908  0.1964  0.3893
  113OSM    C6F11774   0.543   0.009  10.110  0.3431  0.2560  0.7267
  113OSM    H6F11775   0.483  -0.025  10.024  1.0212 -0.3870  0.4986
  113OSM    H6G11776   0.516  -0.043  10.205 -1.5739 -1.0464 -0.5000
  113OSM    C7F11777   0.692  -0.008  10.061  0.1803 -0.3812  0.6525
  113OSM    H7F11778   0.744   0.065  10.126  1.2603 -2.6783  2.4578
  113OSM    H7G11779   0.711   0.025   9.957 -1.0691  1.3047  0.9537
  113OSM    C8F11780   0.748  -0.154  10.082 -0.6580 -0.1499 -0.0829
  113OSM    H8F11781   0.746  -0.185  10.189 -1.2901  0.7529  0.1768
  113OSM    H8G11782   0.856  -0.141  10.062 -0.4957 -0.9600  0.2751
  113OSM    C9F11783   0.682  -0.252   9.989  0.0391  0.0132 -0.1475
  113OSM    H9F11784   0.715  -0.251   9.883 -1.4293 -0.5500 -0.6170
  113OSM   C10F11785   0.592  -0.350  10.018  0.4853 -0.5635 -0.2939
  113OSM   H10F11786   0.558  -0.425   9.945  0.6073 -2.6813  1.7803
  113OSM   C11F11787   0.535  -0.364  10.157  0.3549 -0.9252  0.4029
  113OSM   H11F11788   0.427  -0.386  10.148  0.2150 -0.7858  1.5764
  113OSM   H11G11789   0.541  -0.268  10.212  0.4927 -1.7252  1.8124
  113OSM   C12F11790   0.605  -0.464  10.243 -0.5221 -0.1265  0.0556
  113OSM   H12F11791   0.561  -0.462  10.346 -0.4830  0.5004  0.0657
  113OSM   H12G11792   0.708  -0.434  10.272 -1.0731  1.2839  0.6205
  113OSM   C13F11793   0.584  -0.608  10.199 -0.5375 -0.8884 -0.0798
  113OSM   H13F11794   0.645  -0.608  10.105  5.1183  0.7125  3.3503
  113OSM   H13G11795   0.475  -0.623  10.182 -1.4332  0.5459  3.8192
  113OSM   C14F11796   0.648  -0.703  10.296  1.2273  0.1309  0.2784
  113OSM   H14F11797   0.602  -0.687  10.395 -0.3517  3.7779 -0.9790
  113OSM   H14G11798   0.758  -0.695  10.305  1.1466 -0.0103  1.4380
  113OSM   C15F11799   0.602  -0.855  10.268  0.3104  1.0345  0.3097
  113OSM   H15F11800   0.661  -0.912  10.343  0.2155 -0.4687 -0.7217
  113OSM   H15G11801   0.642  -0.891  10.171 -0.7495  3.7948 -1.2160
  113OSM   C16F11802   0.454  -0.880  10.289 -0.2025  0.1398 -0.0817
  113OSM   H16F11803   0.403  -0.863  10.192 -1.6502  1.0469  0.8207
  113OSM   H16G11804   0.419  -0.814  10.371  0.1017  0.9125 -0.5625
  113OSM   C17F11805   0.430  -1.027  10.321  0.6975  0.5685 -0.6093
  113OSM   H17F11806   0.455  -1.042  10.428  1.5202  1.1372 -0.7179
  113OSM   H17G11807   0.501  -1.094  10.266  0.4070 -0.6532  0.4784
  113OSM   C18F11808   0.298  -1.079  10.281  0.0177  0.4147 -0.0412
  113OSM   H18F11809   0.279  -1.068  10.172 -1.4154 -0.8930  0.0585
  113OSM   H18G11810   0.216  -1.024  10.332  0.6665  2.3281 -1.0064
  113OSM   H18H11811   0.289  -1.187  10.305 -6.7014  1.0552  1.2413
  114OSM      N11812   0.826   5.440  11.679 -0.4688 -0.1068 -0.4576
  114OSM    C1511813   0.801   5.329  11.585  0.0303 -1.1609 -0.4604
  114OSM   H15A11814   0.801   5.352  11.479  1.4307  0.4301 -0.1356
  114OSM   H15B11815   0.712   5.278  11.618 -0.0394 -2.7503 -2.9778
  114OSM   H15C11816   0.875   5.252  11.587 -0.7017 -1.9313 -2.1715
  114OSM    C1411817   0.713   5.546  11.677  0.1278  0.0660  0.4292
  114OSM   H14A11818   0.743   5.618  11.752 -0.8794 -1.5599  2.4659
  114OSM   H14B11819   0.616   5.508  11.705 -0.5899  0.4169 -1.5668
  114OSM   H14C11820   0.706   5.591  11.580 -0.5342 -1.7680 -0.3919
  114OSM    C1311821   0.828   5.381  11.819  0.6724  0.1480  0.8171
  114OSM   H13A11822   0.911   5.312  11.812  1.7600  1.4956  0.1245
  114OSM   H13B11823   0.732   5.338  11.843  0.8654 -0.0595  1.2265
  114OSM   H13C11824   0.854   5.438  11.907  0.8410  0.5437  0.5110
  114OSM    C1211825   0.960   5.505  11.666  0.2152 -0.1627 -0.5732
  114OSM   H12A11826   1.033   5.438  11.711 -0.4726 -0.9187 -0.5746
  114OSM   H12B11827   0.954   5.590  11.732 -0.2496 -1.4331  1.0582
  114OSM    C1111828   1.010   5.551  11.524 -0.5609  0.0405 -0.6278
  114OSM   H11A11829   1.051   5.463  11.470 -2.7097  0.3432 -2.8235
  114OSM   H11B11830   1.101   5.612  11.542 -1.2665  0.9627 -0.1681
  114OSM      P11831   0.889   5.781  11.470 -0.3254 -0.3217 -0.0184
  114OSM    O1311832   0.740   5.789  11.465 -0.1784  0.2710  0.1200
  114OSM    O1411833   0.964   5.819  11.598  0.0735 -0.0150  0.5386
  114OSM    O1111834   0.968   5.842  11.347 -0.0359 -0.0728 -0.2056
  114OSM    O1211835   0.920   5.629  11.449  0.0297  0.9057 -0.2371
  114OSM    C1S11836   1.099   5.825  11.310  0.3789 -0.0629  0.6593
  114OSM    H1S11837   1.147   5.759  11.386  1.3454 -0.3804 -0.2151
  114OSM    H1T11838   1.162   5.916  11.303 -2.4837  1.8765 -0.5407
  114OSM     NF11839   1.247   5.761  11.103  0.4830 -0.4858 -0.1363
  114OSM    HNF11840   1.250   5.790  11.008 -1.5087 -0.2366 -0.1561
  114OSM    C2S11841   1.111   5.761  11.155 -0.0605  0.8727 -0.8575
  114OSM    H2S11842   1.072   5.659  11.172  1.6285  0.2242 -0.7704
  114OSM    C3S11843   1.016   5.842  11.064  0.5816 -0.1443 -0.0075
  114OSM    H3S11844   1.058   5.945  11.063  2.4819 -0.9019  0.8369
  114OSM     O311845   0.875   5.841  11.102 -0.2408  0.0385  0.2955
  114OSM    HO311846   0.884   5.839  11.197 -0.2882 -1.6864  0.2792
  114OSM    C4S11847   1.023   5.780  10.929  0.1129 -0.2556 -0.3967
  114OSM    H4S11848   1.006   5.671  10.932  1.1872 -0.4064  2.3540
  114OSM    C5S11849   1.053   5.842  10.816 -0.3294  0.4324  0.1114
  114OSM    H5S11850   1.085   5.948  10.825 -0.1207  0.3828 -0.0413
  114OSM    C6S11851   1.062   5.774  10.682  0.2283  0.4410  0.9335
  114OSM    H6S11852   1.008   5.677  10.692 -0.4249  0.9278  2.2798
  114OSM    H6T11853   1.169   5.758  10.658 -0.2036 -2.3172  0.6623
  114OSM    C7S11854   0.996   5.854  10.568  0.0967  0.0295 -0.2175
  114OSM    H7S11855   1.046   5.953  10.558  0.2410 -0.2334 -2.3599
  114OSM    H7T11856   0.890   5.874  10.592 -0.0293 -1.1344  0.2393
  114OSM    C8S11857   1.011   5.777  10.436  0.0002 -0.0954 -0.4466
  114OSM    H8S11858   0.968   5.676  10.446  1.0097 -0.4330  0.6664
  114OSM    H8T11859   1.121   5.773  10.421 -0.2173  1.0088 -2.6171
  114OSM    C9S11860   0.943   5.853  10.322 -0.9672 -0.0384 -0.3933
  114OSM    H9S11861   0.944   5.963  10.338  3.0318 -0.1568  0.7004
  114OSM    H9T11862   0.844   5.803  10.316 -0.4082 -1.1136 -0.7585
  114OSM   C10S11863   1.009   5.835  10.184  0.4413  0.7697  0.2848
  114OSM   H10S11864   1.012   5.726  10.162 -0.6008 -0.1693  4.3662
  114OSM   H10T11865   1.111   5.878  10.190  0.8975 -0.5257  2.3105
  114OSM   C11S11866   0.929   5.909  10.076 -0.2982  0.0783  0.0672
  114OSM   H11S11867   0.876   6.003  10.102 -1.6576 -0.0747 -1.9877
  114OSM   H11T11868   0.850   5.842  10.035  0.5571 -1.7034  1.2680
  114OSM   C12S11869   1.019   5.951   9.960 -0.1792  0.0632  0.0324
  114OSM   H12S11870   1.082   5.867   9.923  0.7831  0.4043  0.8814
  114OSM   H12T11871   1.084   6.028  10.006 -0.0697  0.2166 -0.3740
  114OSM   C13S11872   0.938   6.032   9.858  0.7590  0.0761  0.3545
  114OSM   H13S11873   0.862   6.095   9.909 -1.4938 -0.3364 -2.3596
  114OSM   H13T11874   0.871   5.965   9.800 -1.5715  3.7519 -1.4802
  114OSM   C14S11875   1.021   6.112   9.759 -0.8116  0.3944  0.2845
  114OSM   H14S11876   1.089   6.049   9.697 -0.7550  1.9841 -1.3268
  114OSM   H14T11877   1.080   6.186   9.818  0.8610 -0.9214  0.2906
  114OSM   C15S11878   0.920   6.190   9.673 -0.2344  0.0208 -0.1411
  114OSM   H15S11879   0.873   6.256   9.750 -3.9396 -0.5247 -1.8003
  114OSM   H15T11880   0.845   6.132   9.614 -2.0470  1.3393  0.7975
  114OSM   C16S11881   1.003   6.273   9.572 -0.1016 -0.5965  0.1385
  114OSM   H16S11882   1.063   6.210   9.504  1.4743 -0.1049  1.0665
  114OSM   H16T11883   1.076   6.325   9.637 -0.1888 -1.8071  1.2236
  114OSM   C17S11884   0.936   6.374   9.482 -0.8651  0.0621  0.1088
  114OSM   H17S11885   0.879   6.320   9.403  0.6797  0.9037 -1.6187
  114OSM   H17T11886   1.020   6.419   9.423 -1.3649  1.1077  0.1743
  114OSM   C18S11887   0.865   6.489   9.553 -1.2772  0.8773  0.7027
  114OSM   H18S11888   0.773   6.455   9.605 -1.0008  0.2021  0.7670
  114OSM   H18T11889   0.844   6.563   9.473 -0.4866  0.8148  0.4234
  114OSM   H18U11890   0.930   6.541   9.626 -0.4599  1.1399 -0.1959
  114OSM    C1F11891   1.340   5.699  11.173 -0.0315  0.0351 -0.8242
  114OSM     OF11892   1.313   5.627  11.266  0.2456 -0.0907 -0.8498
  114OSM    C2F11893   1.482   5.705  11.133  0.3590 -1.2825 -0.3452
  114OSM    H2F11894   1.542   5.620  11.171  1.6777 -0.6388 -0.9334
  114OSM    H2G11895   1.528   5.797  11.175  0.5377 -1.5130 -0.0386
  114OSM    C3F11896   1.503   5.716  10.984  0.2420  0.0436 -0.5160
  114OSM    H3F11897   1.609   5.707  10.952 -0.5858 -2.5428 -2.7747
  114OSM    H3G11898   1.460   5.811  10.947  1.9273  0.9192 -0.2667
  114OSM    C4F11899   1.445   5.598  10.909  0.9455 -0.1394 -0.3837
  114OSM    H4F11900   1.335   5.587  10.920  0.9210 -2.0021 -2.2702
  114OSM    H4G11901   1.486   5.498  10.935  0.1118 -0.7621 -1.4194
  114OSM    C5F11902   1.460   5.607  10.760 -0.3321 -0.2504 -0.5902
  114OSM    H5F11903   1.561   5.637  10.726 -1.1022  0.7449 -1.9988
  114OSM    H5G11904   1.389   5.682  10.720 -1.7280 -1.8952 -1.2489
  114OSM    C6F11905   1.430   5.469  10.695 -0.2114  0.6246 -0.2415
  114OSM    H6F11906   1.329   5.425  10.710  0.6210 -1.2545  0.0426
  114OSM    H6G11907   1.494   5.386  10.732 -0.5080 -0.3438 -1.8376
  114OSM    C7F11908   1.444   5.489  10.540 -0.5347 -0.2514 -0.0742
  114OSM    H7F11909   1.456   5.387  10.496  1.5960  0.6866 -1.7217
  114OSM    H7G11910   1.540   5.541  10.523 -0.5025 -0.5587 -0.8634
  114OSM    C8F11911   1.334   5.566  10.463  0.0528  0.1200  0.0429
  114OSM    H8F11912   1.361   5.580  10.356 -0.1688 -1.6361 -0.2580
  114OSM    H8G11913   1.322   5.668  10.507 -0.5038  0.6832 -1.3507
  114OSM    C9F11914   1.199   5.499  10.472 -0.1328  0.4593 -0.0539
  114OSM    H9F11915   1.152   5.494  10.571 -0.4397 -1.7406 -0.2911
  114OSM   C10F11916   1.133   5.453  10.363  0.3143  0.1924 -0.1280
  114OSM   H10F11917   1.035   5.407  10.383 -0.2278  1.0608 -0.7544
  114OSM   C11F11918   1.174   5.452  10.220  0.4125  0.0733 -0.1264
  114OSM   H11F11919   1.272   5.400  10.218  0.2902 -0.0979 -1.9761
  114OSM   H11G11920   1.186   5.559  10.194  0.4242  0.3056  0.8140
  114OSM   C12F11921   1.090   5.378  10.116  0.1105 -0.4507 -0.5016
  114OSM   H12F11922   0.996   5.437  10.117  1.5025  1.8212  0.5325
  114OSM   H12G11923   1.067   5.275  10.149  1.3526 -0.9930 -1.2999
  114OSM   C13F11924   1.150   5.376   9.971  0.2533 -0.1380 -0.2311
  114OSM   H13F11925   1.253   5.334   9.980  0.8313  1.5184  1.4993
  114OSM   H13G11926   1.171   5.483   9.946 -1.2987  0.3481  0.4793
  114OSM   C14F11927   1.074   5.301   9.860  0.6257 -0.3741 -0.3955
  114OSM   H14F11928   0.974   5.349   9.863  0.5012 -0.6858  0.8846
  114OSM   H14G11929   1.073   5.200   9.908  1.8439 -0.4730 -0.5553
  114OSM   C15F11930   1.118   5.303   9.715 -0.0029 -0.0126 -0.5689
  114OSM   H15F11931   1.228   5.287   9.723  0.4398  2.1235 -2.0847
  114OSM   H15G11932   1.099   5.399   9.664  2.5706  1.9565  2.0405
  114OSM   C16F11933   1.050   5.191   9.633  0.3725  0.0311  0.3075
  114OSM   H16F11934   0.941   5.212   9.634  0.0752 -1.4621  0.2973
  114OSM   H16G11935   1.049   5.089   9.677 -0.5976  0.0613  0.3611
  114OSM   C17F11936   1.090   5.180   9.484 -0.4266 -0.0678  0.1541
  114OSM   H17F11937   1.037   5.263   9.432 -2.8916 -1.8723 -0.3021
  114OSM   H17G11938   1.041   5.084   9.458  1.4201 -0.5691 -1.6217
  114OSM   C18F11939   1.237   5.180   9.462 -0.3089 -0.5806 -0.1638
  114OSM   H18F11940   1.257   5.154   9.356 -1.4577  1.0176 -0.7835
  114OSM   H18G11941   1.277   5.095   9.522  3.0311  0.6061 -0.6376
  114OSM   H18H11942   1.291   5.274   9.483  1.8827 -1.7416 -0.4043
  115OSM      N11943   3.128   3.519   6.251  0.0904  0.1643  0.0309
  115OSM    C1511944   3.036   3.454   6.145 -0.2326 -0.2418 -0.4223
  115OSM   H15A11945   3.004   3.354   6.172 -0.9413  0.3004  0.7887
  115OSM   H15B11946   3.071   3.445   6.044  1.4874  0.3384  0.1113
  115OSM   H15C11947   2.957   3.525   6.124 -0.4012  0.0327  1.0479
  115OSM    C1411948   3.171   3.652   6.204  0.2129  0.0016 -0.4477
  115OSM   H14A11949   3.088   3.721   6.205  2.8108  3.2086  0.2365
  115OSM   H14B11950   3.219   3.649   6.107  0.2726 -0.5189 -0.4018
  115OSM   H14C11951   3.243   3.690   6.275  0.8419  0.6067 -1.3901
  115OSM    C1311952   3.045   3.553   6.374 -0.0913  0.0417 -0.1392
  115OSM   H13A11953   2.983   3.477   6.420  1.7391 -1.2358  0.2820
  115OSM   H13B11954   2.985   3.634   6.335  0.4255  0.8746  0.7714
  115OSM   H13C11955   3.114   3.584   6.451  0.4770 -0.6301 -0.3813
  115OSM    C1211956   3.245   3.429   6.282  0.3185  0.3561  0.0369
  115OSM   H12A11957   3.323   3.472   6.343  2.5105  0.4367 -2.7694
  115OSM   H12B11958   3.293   3.405   6.189 -1.2013  0.8018 -0.8815
  115OSM    C1111959   3.216   3.291   6.354  0.6176  0.1107 -0.8664
  115OSM   H11A11960   3.133   3.246   6.295  0.7417 -0.9228 -0.2534
  115OSM   H11B11961   3.185   3.325   6.455  0.4443  0.0674 -0.9030
  115OSM      P11962   3.446   3.242   6.446  0.0500  0.5126  0.0781
  115OSM    O1311963   3.570   3.165   6.404  0.2172 -0.0667  0.8398
  115OSM    O1411964   3.468   3.393   6.460  0.8773  0.2022  0.1717
  115OSM    O1111965   3.386   3.194   6.586 -0.7729  0.1790 -0.6154
  115OSM    O1211966   3.332   3.212   6.337 -0.4455  0.2890  0.4730
  115OSM    C1S11967   3.291   3.081   6.603  0.3036 -0.7838  0.3954
  115OSM    H1S11968   3.348   2.988   6.581 -0.1460 -0.7655 -0.8974
  115OSM    H1T11969   3.198   3.086   6.543 -0.5856 -0.9650  1.7377
  115OSM     NF11970   3.148   2.955   6.753  0.0756  0.2423  0.0405
  115OSM    HNF11971   3.052   2.977   6.737 -0.8340 -1.8925  2.3086
  115OSM    C2S11972   3.240   3.065   6.746  0.3930 -0.2189  0.0748
  115OSM    H2S11973   3.326   3.048   6.814  0.3692  0.3131  0.2372
  115OSM    C3S11974   3.178   3.209   6.797  0.1617  0.7965  0.4922
  115OSM    H3S11975   3.099   3.249   6.731 -2.1840 -2.1071  1.4339
  115OSM     O311976   3.270   3.322   6.792  1.1140 -0.7559 -0.1790
  115OSM    HO311977   3.351   3.283   6.758  0.8179 -1.0352 -0.5677
  115OSM    C4S11978   3.135   3.197   6.936 -0.1472 -0.4677 -0.2215
  115OSM    H4S11979   3.033   3.161   6.955  0.0931 -1.2026 -0.3013
  115OSM    C5S11980   3.199   3.236   7.049  0.3608  0.7801 -0.2140
  115OSM    H5S11981   3.294   3.291   7.048  1.2262 -0.5707  2.8334
  115OSM    C6S11982   3.134   3.216   7.178  0.4496 -0.1964 -0.7057
  115OSM    H6S11983   3.118   3.109   7.203 -0.6113  0.2090  0.3907
  115OSM    H6T11984   3.030   3.254   7.177  0.6812  0.6644  2.6432
  115OSM    C7S11985   3.207   3.300   7.294  0.4389 -0.4378  0.6569
  115OSM    H7S11986   3.199   3.408   7.272  1.6884  0.0405  2.4171
  115OSM    H7T11987   3.313   3.270   7.305  0.4378 -0.2688  1.1535
  115OSM    C8S11988   3.144   3.267   7.428 -0.1855  0.5436 -0.0158
  115OSM    H8S11989   3.165   3.159   7.436 -0.9611  0.4235  0.4475
  115OSM    H8T11990   3.036   3.289   7.440  0.0720  1.8749 -0.0533
  115OSM    C9S11991   3.223   3.343   7.539 -0.6538 -0.7145 -0.2136
  115OSM    H9S11992   3.323   3.370   7.498 -0.1396  0.5662  1.8027
  115OSM    H9T11993   3.233   3.264   7.616 -1.4375 -0.6361 -0.0287
  115OSM   C10S11994   3.166   3.467   7.608  0.1543 -0.4204 -0.3668
  115OSM   H10S11995   3.227   3.476   7.700 -1.3230 -2.3687  0.8606
  115OSM   H10T11996   3.066   3.439   7.647 -0.5401  3.0178  0.4680
  115OSM   C11S11997   3.161   3.583   7.518  0.7707 -0.4493  0.4532
  115OSM   H11S11998   3.097   3.571   7.428  1.7092 -2.3830  0.0054
  115OSM   H11T11999   3.262   3.592   7.472 -0.5530 -1.2946 -2.7885
  115OSM   C12S12000   3.120   3.710   7.597  0.2909  0.8744 -1.0435
  115OSM   H12S12001   3.021   3.691   7.643  0.0617  0.5001 -1.6907
  115OSM   H12T12002   3.119   3.791   7.522  0.4920  2.3832  0.5548
  115OSM   C13S12003   3.223   3.740   7.704 -0.9527  0.4393 -0.2460
  115OSM   H13S12004   3.319   3.722   7.649  0.1326  3.2024  0.6801
  115OSM   H13T12005   3.210   3.682   7.798 -2.8089  1.4100  0.1214
  115OSM   C14S12006   3.234   3.887   7.738 -0.5711 -0.5991 -0.3397
  115OSM   H14S12007   3.145   3.928   7.790  0.1202  1.6505 -0.8686
  115OSM   H14T12008   3.253   3.946   7.646  0.0420 -0.8041 -0.3499
  115OSM   C15S12009   3.362   3.912   7.825 -0.2045 -0.5039  0.0224
  115OSM   H15S12010   3.378   4.022   7.830  0.3661 -0.4518 -2.1423
  115OSM   H15T12011   3.448   3.861   7.777 -0.4526 -0.5070 -0.4278
  115OSM   C16S12012   3.355   3.858   7.965  0.6193  0.6350 -0.5174
  115OSM   H16S12013   3.346   3.748   7.961 -2.3602  0.8325 -0.5828
  115OSM   H16T12014   3.264   3.892   8.019  1.8572  0.5304  1.7170
  115OSM   C17S12015   3.473   3.900   8.050 -0.1337 -0.2081  0.3800
  115OSM   H17S12016   3.500   4.006   8.028  0.0784 -0.2446  0.4675
  115OSM   H17T12017   3.564   3.848   8.013  0.9476  2.2651 -0.5168
  115OSM   C18S12018   3.457   3.873   8.208  0.5621 -0.0755  0.1886
  115OSM   H18S12019   3.552   3.891   8.263  1.2898  1.0824 -1.4080
  115OSM   H18T12020   3.430   3.767   8.224  1.0151 -0.3984 -1.1523
  115OSM   H18U12021   3.367   3.923   8.250 -1.0029 -2.4708 -0.2015
  115OSM    C1F12022   3.186   2.824   6.762 -0.2309 -0.3410 -0.3087
  115OSM     OF12023   3.304   2.786   6.772 -0.1985 -0.3435  0.3803
  115OSM    C2F12024   3.064   2.727   6.762 -0.6846 -0.7453  0.2718
  115OSM    H2F12025   3.037   2.731   6.654 -0.9904 -1.0650  0.3372
  115OSM    H2G12026   2.991   2.790   6.818  1.4898  0.7043  1.5586
  115OSM    C3F12027   3.082   2.587   6.825  0.1090  0.6084  0.5920
  115OSM    H3F12028   3.166   2.527   6.783 -1.1690 -1.2920  0.6891
  115OSM    H3G12029   2.989   2.531   6.802 -0.0635  1.1784 -0.1109
  115OSM    C4F12030   3.087   2.595   6.977  0.8305  0.1102 -0.3416
  115OSM    H4F12031   3.034   2.506   7.017 -0.9235  0.7348 -1.1999
  115OSM    H4G12032   3.034   2.684   7.018  0.9706  0.3045 -0.5779
  115OSM    C5F12033   3.225   2.624   7.042 -0.4530 -0.2132  0.0360
  115OSM    H5F12034   3.260   2.725   7.010  0.0904 -0.2507  0.5007
  115OSM    H5G12035   3.293   2.555   6.986 -0.3653  1.6140 -2.1685
  115OSM    C6F12036   3.230   2.597   7.192  0.3813  0.2717  0.2700
  115OSM    H6F12037   3.331   2.561   7.221  0.0330  0.4450  1.7571
  115OSM    H6G12038   3.157   2.519   7.222  1.6074 -0.6979  0.7545
  115OSM    C7F12039   3.183   2.729   7.269 -0.2912 -0.1259 -0.8195
  115OSM    H7F12040   3.075   2.746   7.249 -0.3275 -1.8121 -2.2181
  115OSM    H7G12041   3.248   2.810   7.231  1.4254 -0.0791  2.1000
  115OSM    C8F12042   3.210   2.713   7.418  0.0117  1.0442  0.3008
  115OSM    H8F12043   3.202   2.815   7.462 -1.1061  1.0363  0.1209
  115OSM    H8G12044   3.317   2.684   7.432 -0.0124  2.1461  3.0069
  115OSM    C9F12045   3.121   2.609   7.478  0.8731 -0.8672  0.5057
  115OSM    H9F12046   3.090   2.524   7.416 -0.8407 -0.2125  0.4282
  115OSM   C10F12047   3.080   2.620   7.606 -0.5781  1.0895  0.0071
  115OSM   H10F12048   3.032   2.528   7.642  0.4273  0.1647 -0.9854
  115OSM   C11F12049   3.107   2.732   7.717  0.1790 -0.6571 -0.1280
  115OSM   H11F12050   3.200   2.790   7.700 -0.3282  0.1700 -0.0803
  115OSM   H11G12051   3.101   2.681   7.815  0.8753 -0.2777  0.1172
  115OSM   C12F12052   2.990   2.835   7.708 -0.2308 -0.2283  0.0914
  115OSM   H12F12053   2.894   2.785   7.736  0.2213 -1.6066 -0.7375
  115OSM   H12G12054   2.972   2.876   7.607  0.9621  1.8322  0.6775
  115OSM   C13F12055   3.030   2.949   7.804  0.4533  0.1917 -0.5558
  115OSM   H13F12056   3.128   2.991   7.774 -0.1008  2.9404  1.2820
  115OSM   H13G12057   3.041   2.917   7.910  1.1803  2.4602  0.0788
  115OSM   C14F12058   2.924   3.061   7.786  0.6108 -0.5755 -0.6382
  115OSM   H14F12059   2.824   3.021   7.813 -0.1323  2.7407  1.8788
  115OSM   H14G12060   2.919   3.089   7.679  1.9095  3.3168  0.2294
  115OSM   C15F12061   2.957   3.193   7.865  0.4210  0.7962 -0.0886
  115OSM   H15F12062   3.049   3.234   7.818  0.8511 -1.3696 -1.2478
  115OSM   H15G12063   2.981   3.166   7.970 -0.0799 -2.1600 -0.6895
  115OSM   C16F12064   2.845   3.299   7.863  0.5026 -0.6495 -0.8196
  115OSM   H16F12065   2.885   3.393   7.906 -2.2835  0.1302  0.1649
  115OSM   H16G12066   2.755   3.273   7.924  0.9654 -0.8419 -0.2141
  115OSM   C17F12067   2.793   3.310   7.718  0.1411  0.3592 -0.3417
  115OSM   H17F12068   2.745   3.216   7.684  1.1799 -0.2574 -0.1271
  115OSM   H17G12069   2.876   3.329   7.647 -0.3643 -1.3143 -1.3813
  115OSM   C18F12070   2.686   3.420   7.684  0.1155  0.4850 -0.2428
  115OSM   H18F12071   2.611   3.418   7.766 -3.3335  0.0538 -3.2878
  115OSM   H18G12072   2.639   3.395   7.587 -0.0893 -1.7210  0.3947
  115OSM   H18H12073   2.733   3.520   7.676  2.0579 -0.4467 -0.6911
  116OSM      N12074   2.318   6.732   6.062 -0.0232 -0.0389 -0.1976
  116OSM    C1512075   2.257   6.843   5.983 -0.0543  0.5317 -0.5625
  116OSM   H15A12076   2.296   6.847   5.882  1.7286 -0.3330  0.0643
  116OSM   H15B12077   2.258   6.941   6.029 -0.0081  0.5923 -0.6912
  116OSM   H15C12078   2.150   6.838   5.974 -0.1940  0.4198  1.0939
  116OSM    C1412079   2.266   6.602   6.013 -0.0198  0.2902 -0.5689
  116OSM   H14A12080   2.159   6.589   6.008 -0.1539  0.9785  0.4794
  116OSM   H14B12081   2.308   6.514   6.060  0.1768 -0.9562 -2.9672
  116OSM   H14C12082   2.289   6.593   5.908  0.3098 -0.6690 -0.4202
  116OSM    C1312083   2.464   6.737   6.036 -0.0065  0.7699 -0.0427
  116OSM   H13A12084   2.505   6.744   5.936  0.4174 -1.3536 -0.0375
  116OSM   H13B12085   2.507   6.652   6.086  1.7303  1.6318 -0.0138
  116OSM   H13C12086   2.504   6.828   6.080 -1.4714  1.6870 -0.5714
  116OSM    C1212087   2.290   6.750   6.213  0.3403  0.3093 -0.3789
  116OSM   H12A12088   2.348   6.684   6.277  2.6655  2.1435 -0.5488
  116OSM   H12B12089   2.183   6.741   6.226  0.4320 -2.3176 -1.0463
  116OSM    C1112090   2.327   6.887   6.273 -0.2465 -0.2099  0.9086
  116OSM   H11A12091   2.301   6.894   6.381  0.7515  0.4021  1.1140
  116OSM   H11B12092   2.263   6.964   6.226 -3.0084 -3.4153 -0.7777
  116OSM      P12093   2.530   7.062   6.238  0.4183 -0.4201  0.1084
  116OSM    O1312094   2.667   7.057   6.182  0.3380 -0.2880 -0.0568
  116OSM    O1412095   2.426   7.147   6.173 -0.3360 -0.2265  0.1118
  116OSM    O1112096   2.534   7.106   6.390  0.0786 -0.7152 -0.5354
  116OSM    O1212097   2.466   6.917   6.244 -0.4996  0.2764 -0.0398
  116OSM    C1S12098   2.568   6.996   6.484  0.4371  0.8642 -0.1550
  116OSM    H1S12099   2.677   6.980   6.475  0.4313  0.3681  0.5818
  116OSM    H1T12100   2.511   6.902   6.469 -0.4750  1.6035 -1.4202
  116OSM     NF12101   2.584   6.952   6.730 -0.6437 -0.8055  0.2231
  116OSM    HNF12102   2.513   6.937   6.799 -1.3192 -0.0280 -0.3080
  116OSM    C2S12103   2.544   7.052   6.632  0.6886 -0.7649  0.3453
  116OSM    H2S12104   2.605   7.145   6.639  1.1668 -1.0687  0.2738
  116OSM    C3S12105   2.394   7.087   6.646 -0.9525 -0.2602  0.2565
  116OSM    H3S12106   2.343   6.988   6.638  0.4506 -0.9640 -0.1973
  116OSM     O312107   2.331   7.157   6.539 -0.1172 -0.1499 -0.9185
  116OSM    HO312108   2.392   7.150   6.465  2.7459  0.6695  1.2520
  116OSM    C4S12109   2.356   7.147   6.780 -0.1332 -0.0010  0.0872
  116OSM    H4S12110   2.314   7.072   6.849  0.0005  0.3488  0.5468
  116OSM    C5S12111   2.367   7.275   6.811 -1.2903  0.5510 -0.2894
  116OSM    H5S12112   2.408   7.342   6.734 -1.3906 -0.8529 -1.5967
  116OSM    C6S12113   2.309   7.327   6.943 -0.4673 -1.3052  0.1618
  116OSM    H6S12114   2.284   7.435   6.936  2.5196 -0.6108 -0.8751
  116OSM    H6T12115   2.384   7.328   7.025  1.2849  0.9829 -1.3869
  116OSM    C7S12116   2.182   7.264   6.993 -0.3610 -0.0602 -0.4760
  116OSM    H7S12117   2.197   7.166   7.043  0.2459 -0.5537 -1.5957
  116OSM    H7T12118   2.118   7.252   6.903 -1.6824 -1.0436  0.5619
  116OSM    C8S12119   2.099   7.355   7.089 -0.1977  0.3023 -0.3602
  116OSM    H8S12120   1.996   7.318   7.107 -1.1687  2.1523 -1.9449
  116OSM    H8T12121   2.092   7.461   7.057 -1.2268 -0.0374 -1.2818
  116OSM    C9S12122   2.162   7.371   7.232 -0.3212  0.6149  0.0439
  116OSM    H9S12123   2.255   7.430   7.218  0.0569 -0.2018 -0.9869
  116OSM    H9T12124   2.193   7.276   7.281  2.4698  0.6902 -1.4616
  116OSM   C10S12125   2.053   7.432   7.325  0.4768  0.0864  0.2458
  116OSM   H10S12126   2.016   7.343   7.379 -0.0308 -0.9485 -1.7676
  116OSM   H10T12127   1.967   7.475   7.270  0.8620  1.5074  0.7258
  116OSM   C11S12128   2.108   7.521   7.439 -0.8937 -0.5988 -0.1675
  116OSM   H11S12129   2.171   7.601   7.394  2.4362 -2.3368  1.2422
  116OSM   H11T12130   2.177   7.452   7.492 -1.0658 -1.0087 -0.4774
  116OSM   C12S12131   1.994   7.572   7.534 -0.1166  0.4983  0.7227
  116OSM   H12S12132   1.956   7.485   7.592 -0.6994 -0.1505 -0.6023
  116OSM   H12T12133   1.912   7.622   7.478 -0.1940 -0.2643  0.1503
  116OSM   C13S12134   2.042   7.675   7.642 -0.1142  0.1938 -0.3448
  116OSM   H13S12135   2.081   7.767   7.595  0.3878  0.9882  1.5752
  116OSM   H13T12136   2.131   7.632   7.694 -0.0415  0.7631  0.0064
  116OSM   C14S12137   1.933   7.718   7.740  0.4116  0.0461  0.3142
  116OSM   H14S12138   1.889   7.635   7.800  0.5857  1.3410  2.2623
  116OSM   H14T12139   1.845   7.758   7.686  0.1561 -0.6137  0.2364
  116OSM   C15S12140   1.979   7.824   7.838  0.2777  0.4096 -0.1150
  116OSM   H15S12141   2.046   7.902   7.794 -0.5609  1.8305  1.1091
  116OSM   H15T12142   2.052   7.779   7.909 -0.1651  2.3337  1.5989
  116OSM   C16S12143   1.872   7.886   7.924 -0.2949 -0.6629 -1.0279
  116OSM   H16S12144   1.819   7.802   7.973  2.4733 -0.5198  2.4344
  116OSM   H16T12145   1.805   7.930   7.847  0.8695  2.4317 -0.3702
  116OSM   C17S12146   1.917   7.981   8.026 -0.7638 -0.0437 -0.1167
  116OSM   H17S12147   1.989   8.056   7.987 -0.4391  0.0373  0.6245
  116OSM   H17T12148   1.977   7.923   8.099  0.9131  1.1006 -0.5703
  116OSM   C18S12149   1.811   8.066   8.091  0.2669  0.2529  0.1558
  116OSM   H18S12150   1.764   8.135   8.017 -1.8656 -1.4319 -0.0878
  116OSM   H18T12151   1.858   8.132   8.167  0.0929 -0.2214  0.6698
  116OSM   H18U12152   1.728   8.009   8.137 -0.8891  2.2397  0.6093
  116OSM    C1F12153   2.713   6.915   6.744  0.0207 -0.1694 -0.3430
  116OSM     OF12154   2.806   6.969   6.687  0.3604  0.2872  0.7052
  116OSM    C2F12155   2.750   6.827   6.855 -0.2990  0.1988  0.2165
  116OSM    H2F12156   2.658   6.798   6.910  0.7309 -2.6439  0.5390
  116OSM    H2G12157   2.816   6.881   6.927 -0.4854 -0.2131  0.6996
  116OSM    C3F12158   2.819   6.694   6.811  0.0364 -0.0259 -0.1023
  116OSM    H3F12159   2.874   6.706   6.715 -0.2689 -0.2139 -0.3025
  116OSM    H3G12160   2.736   6.624   6.788  0.5094 -0.0420 -1.9053
  116OSM    C4F12161   2.911   6.623   6.921 -0.6910 -0.4697 -0.0833
  116OSM    H4F12162   2.991   6.690   6.959 -1.1817 -0.2156  0.5203
  116OSM    H4G12163   2.953   6.529   6.880 -0.8416 -1.3805  1.8135
  116OSM    C5F12164   2.849   6.563   7.050  0.5105  0.1481  0.1945
  116OSM    H5F12165   2.913   6.478   7.080  1.8146  0.8709 -0.5129
  116OSM    H5G12166   2.751   6.527   7.012  1.0426 -3.1053  1.7173
  116OSM    C6F12167   2.841   6.670   7.159  0.1808  0.4731  0.3363
  116OSM    H6F12168   2.837   6.777   7.128 -0.4730  0.4457  0.3202
  116OSM    H6G12169   2.927   6.658   7.227 -0.9814  1.5367  2.0349
  116OSM    C7F12170   2.712   6.657   7.244 -0.3612  0.3699  0.4947
  116OSM    H7F12171   2.694   6.560   7.294 -1.2071  0.2038 -0.1325
  116OSM    H7G12172   2.616   6.681   7.193  1.0392  1.7274 -1.6346
  116OSM    C8F12173   2.706   6.770   7.352 -0.0327 -0.7074  0.6456
  116OSM    H8F12174   2.603   6.785   7.390 -0.1556  3.5993 -1.1491
  116OSM    H8G12175   2.737   6.867   7.308  0.9665 -1.4623 -0.3473
  116OSM    C9F12176   2.808   6.746   7.462 -0.0443  0.6463 -0.0160
  116OSM    H9F12177   2.901   6.702   7.421 -1.2497  0.2958 -2.4771
  116OSM   C10F12178   2.793   6.764   7.601 -0.6438  0.4556 -0.1533
  116OSM   H10F12179   2.877   6.735   7.666 -0.7819  1.6982  0.6006
  116OSM   C11F12180   2.669   6.821   7.670  0.0556  0.4416 -0.0855
  116OSM   H11F12181   2.586   6.838   7.599  0.4695  0.7978 -0.4840
  116OSM   H11G12182   2.684   6.916   7.725 -0.0632  0.0619  0.6150
  116OSM   C12F12183   2.601   6.728   7.775  0.6346 -0.1986  0.0728
  116OSM   H12F12184   2.589   6.625   7.735 -0.0437  0.1261 -0.5783
  116OSM   H12G12185   2.499   6.768   7.793  0.3983 -1.1410  0.8693
  116OSM   C13F12186   2.679   6.727   7.900  0.4958 -0.7579 -0.8617
  116OSM   H13F12187   2.701   6.834   7.920 -0.4323 -0.1400 -2.9434
  116OSM   H13G12188   2.780   6.681   7.893 -0.0312 -1.9320 -0.8038
  116OSM   C14F12189   2.608   6.668   8.027 -0.0451 -0.0230 -0.1024
  116OSM   H14F12190   2.634   6.561   8.011  0.6852  0.3839 -1.7682
  116OSM   H14G12191   2.498   6.683   8.023 -0.2292 -1.4904 -1.0766
  116OSM   C15F12192   2.660   6.718   8.164  0.0454  0.2702  0.6762
  116OSM   H15F12193   2.659   6.829   8.165 -2.5110  0.4471 -4.1949
  116OSM   H15G12194   2.767   6.691   8.160  0.4072  1.9251 -3.4662
  116OSM   C16F12195   2.589   6.661   8.292  0.3533 -0.0806 -0.1475
  116OSM   H16F12196   2.653   6.676   8.382 -1.5146 -0.2705  1.2417
  116OSM   H16G12197   2.583   6.550   8.281  0.7838 -0.2294  1.0653
  116OSM   C17F12198   2.451   6.729   8.330  1.3210  1.1303 -0.5584
  116OSM   H17F12199   2.413   6.667   8.414  1.9126  1.7011  0.1348
  116OSM   H17G12200   2.379   6.733   8.245 -0.0113 -1.2798  0.4055
  116OSM   C18F12201   2.474   6.873   8.372 -0.6002 -0.3559  0.2966
  116OSM   H18F12202   2.535   6.882   8.465 -1.1515  1.8326  0.4612
  116OSM   H18G12203   2.375   6.919   8.389 -0.2124  0.3279  0.7723
  116OSM   H18H12204   2.524   6.924   8.286 -3.1202  0.7784 -0.5360
  117OSM      N12205   6.681   2.319   6.226  1.1951 -0.8050 -0.6248
  117OSM    C1512206   6.772   2.253   6.127 -0.0837  0.0644  0.0129
  117OSM   H15A12207   6.877   2.272   6.145 -0.3236  1.4752 -0.0570
  117OSM   H15B12208   6.741   2.300   6.035 -1.5363  1.0357  0.9835
  117OSM   H15C12209   6.767   2.145   6.129 -0.8548  0.0838 -0.6555
  117OSM    C1412210   6.654   2.467   6.182  0.0224 -0.1008  0.5448
  117OSM   H14A12211   6.626   2.470   6.077 -0.6554 -0.0746  0.7255
  117OSM   H14B12212   6.747   2.519   6.200  0.5312 -0.2042 -1.5581
  117OSM   H14C12213   6.569   2.508   6.234 -0.6846 -0.5519 -0.2468
  117OSM    C1312214   6.555   2.244   6.232 -0.0920 -0.2418  0.8673
  117OSM   H13A12215   6.507   2.236   6.136  1.9175 -3.6295  0.0882
  117OSM   H13B12216   6.495   2.282   6.314 -0.9721  0.1764  0.0488
  117OSM   H13C12217   6.576   2.143   6.264 -1.1367 -0.6891  0.1648
  117OSM    C1212218   6.741   2.317   6.370 -0.0138  0.6450  0.2193
  117OSM   H12A12219   6.659   2.338   6.437  0.4848 -0.7137  1.2750
  117OSM   H12B12220   6.823   2.386   6.378  0.6138 -0.2505  1.7291
  117OSM    C1112221   6.805   2.184   6.419  0.2577 -0.0036  0.0239
  117OSM   H11A12222   6.738   2.098   6.396  1.2535 -0.7540 -0.0991
  117OSM   H11B12223   6.804   2.181   6.530  0.1968  1.4253  0.0663
  117OSM      P12224   7.055   2.243   6.423  0.6028  0.6601  0.2943
  117OSM    O1312225   7.185   2.191   6.378  0.4116  0.1183  0.1989
  117OSM    O1412226   7.027   2.384   6.383  0.2728 -0.8695 -0.0894
  117OSM    O1112227   7.046   2.220   6.581  0.1254  0.4207  0.0873
  117OSM    O1212228   6.936   2.152   6.369  0.2072 -0.6862  0.2581
  117OSM    C1S12229   7.090   2.094   6.624 -0.4749  0.9203  0.1139
  117OSM    H1S12230   7.194   2.077   6.589 -0.9149 -2.7614  0.4363
  117OSM    H1T12231   7.027   2.013   6.583 -1.0859  1.6902 -0.4792
  117OSM     NF12232   7.170   1.958   6.819  0.3906 -0.0346  0.0252
  117OSM    HNF12233   7.122   1.873   6.842 -0.3418  1.1967  3.3557
  117OSM    C2S12234   7.085   2.078   6.782 -0.2842  1.0416  0.4058
  117OSM    H2S12235   7.129   2.164   6.837 -1.4403  0.8869  1.5956
  117OSM    C3S12236   6.934   2.068   6.825  0.5684  0.3655  0.0104
  117OSM    H3S12237   6.879   2.002   6.755 -1.5921  1.0753  0.9897
  117OSM     O312238   6.868   2.195   6.830 -0.0135 -0.7805  0.1537
  117OSM    HO312239   6.914   2.246   6.763 -3.9610  0.8766 -1.4566
  117OSM    C4S12240   6.922   2.000   6.955  0.2175  0.0086 -0.2878
  117OSM    H4S12241   6.993   2.039   7.030 -2.0424 -0.9065  2.4271
  117OSM    C5S12242   6.819   1.917   6.992 -0.2077 -0.1792 -0.2644
  117OSM    H5S12243   6.741   1.891   6.920 -1.5785 -2.5266  2.0050
  117OSM    C6S12244   6.804   1.851   7.123 -0.1069  0.6020 -0.7059
  117OSM    H6S12245   6.884   1.775   7.137 -2.6893 -1.9807  0.8507
  117OSM    H6T12246   6.709   1.793   7.129  0.0262  0.4763  0.3898
  117OSM    C7S12247   6.805   1.940   7.244  0.0240  0.2823 -0.6657
  117OSM    H7S12248   6.717   2.007   7.251  0.0275  0.2868 -0.6559
  117OSM    H7T12249   6.891   2.010   7.236 -0.8709  1.3666 -0.8980
  117OSM    C8S12250   6.808   1.870   7.380 -0.0832 -1.0098  0.0089
  117OSM    H8S12251   6.899   1.808   7.389  1.8941  1.7625 -0.1441
  117OSM    H8T12252   6.732   1.789   7.378 -0.7878 -0.3483 -0.7042
  117OSM    C9S12253   6.783   1.968   7.495 -0.5742  0.0943  0.6168
  117OSM    H9S12254   6.678   2.002   7.501 -0.1379  1.4307  0.7479
  117OSM    H9T12255   6.840   2.060   7.472 -1.6615  0.2718 -1.5100
  117OSM   C10S12256   6.818   1.920   7.635  0.4544 -0.5193 -0.3148
  117OSM   H10S12257   6.926   1.896   7.647  0.7906  0.8001 -0.6478
  117OSM   H10T12258   6.772   1.819   7.639 -1.0027  0.1796  1.2601
  117OSM   C11S12259   6.775   2.008   7.747  0.0097  0.1482 -0.0724
  117OSM   H11S12260   6.670   2.037   7.725  0.2533  0.8600 -0.3246
  117OSM   H11T12261   6.830   2.105   7.750 -0.9341  0.7218 -0.9222
  117OSM   C12S12262   6.773   1.926   7.879  0.1364 -0.2718 -0.1456
  117OSM   H12S12263   6.864   1.862   7.875 -0.0063 -0.4773 -0.0868
  117OSM   H12T12264   6.680   1.866   7.884 -0.4930  0.8067  1.8626
  117OSM   C13S12265   6.770   2.004   8.010  0.0438 -0.2880  0.0093
  117OSM   H13S12266   6.672   2.057   8.018 -0.5915 -1.4824  0.3111
  117OSM   H13T12267   6.860   2.069   8.016  0.8716 -1.4304  0.1096
  117OSM   C14S12268   6.774   1.914   8.131  0.8121 -0.4431 -0.1810
  117OSM   H14S12269   6.862   1.847   8.128  1.6595  0.6972 -1.5469
  117OSM   H14T12270   6.682   1.854   8.140 -0.5670  1.3513 -1.7764
  117OSM   C15S12271   6.777   2.002   8.250 -0.0364  0.2907 -0.2344
  117OSM   H15S12272   6.680   2.047   8.277  0.3333  0.1231  1.4641
  117OSM   H15T12273   6.859   2.077   8.244 -0.4442  0.5993 -1.9567
  117OSM   C16S12274   6.824   1.916   8.369 -1.1026  0.3295 -0.0566
  117OSM   H16S12275   6.754   1.833   8.392  2.7880 -3.3392 -0.7290
  117OSM   H16T12276   6.804   1.978   8.459  0.9809  3.4416 -1.6391
  117OSM   C17S12277   6.976   1.878   8.371  0.3066 -0.4484  0.2161
  117OSM   H17S12278   7.016   1.815   8.289  0.4859 -1.3396  0.9812
  117OSM   H17T12279   7.000   1.841   8.473  1.7294 -1.4391 -0.4590
  117OSM   C18S12280   7.077   1.989   8.378 -0.0146  0.1599 -1.0340
  117OSM   H18S12281   7.181   1.951   8.378  2.0603  5.3951  0.4714
  117OSM   H18T12282   7.061   2.053   8.468 -0.0824  0.4812 -1.2732
  117OSM   H18U12283   7.062   2.044   8.283  0.5884 -0.0405 -1.2473
  117OSM    C1F12284   7.301   1.961   6.812 -0.2333 -0.2957  0.5021
  117OSM     OF12285   7.352   2.063   6.771  0.0658 -0.6136 -0.6147
  117OSM    C2F12286   7.377   1.839   6.844  0.8057 -0.2746  0.0293
  117OSM    H2F12287   7.394   1.783   6.750  1.6941  1.3480 -0.7983
  117OSM    H2G12288   7.306   1.784   6.910 -0.9322  1.6175 -0.1926
  117OSM    C3F12289   7.501   1.883   6.926  0.1500  0.3364  0.4812
  117OSM    H3F12290   7.479   1.947   7.014 -0.1918  0.3912  0.3551
  117OSM    H3G12291   7.569   1.947   6.865  0.6042 -0.0157  0.6155
  117OSM    C4F12292   7.590   1.768   6.974 -0.0621 -0.2872 -0.5151
  117OSM    H4F12293   7.627   1.705   6.890 -0.3941  0.0108 -0.8849
  117OSM    H4G12294   7.524   1.692   7.022 -0.3873 -0.4663 -1.2486
  117OSM    C5F12295   7.714   1.812   7.045 -0.0829 -0.2432 -0.0832
  117OSM    H5F12296   7.672   1.875   7.127  1.5712  0.9906 -0.1629
  117OSM    H5G12297   7.787   1.862   6.978  1.4906  0.1304  1.8456
  117OSM    C6F12298   7.790   1.699   7.113  0.3139 -0.1925 -0.3113
  117OSM    H6F12299   7.882   1.749   7.151 -0.4157  1.5081 -0.7387
  117OSM    H6G12300   7.822   1.635   7.028  2.2416  0.9006 -0.4589
  117OSM    C7F12301   7.709   1.621   7.227  0.1975  0.4011  0.4208
  117OSM    H7F12302   7.783   1.557   7.280 -1.3943 -0.5384  1.5509
  117OSM    H7G12303   7.636   1.555   7.176  1.8177 -0.1007 -1.3074
  117OSM    C8F12304   7.649   1.712   7.341 -0.5513  0.4964  0.5465
  117OSM    H8F12305   7.605   1.647   7.420 -0.0783  0.8257  1.0769
  117OSM    H8G12306   7.560   1.767   7.305  1.3377  3.3300  0.0652
  117OSM    C9F12307   7.749   1.803   7.404  0.2258 -0.0903  0.5470
  117OSM    H9F12308   7.768   1.898   7.352  2.2197 -0.7548  0.0422
  117OSM   C10F12309   7.810   1.774   7.519  0.0114  0.2705 -0.5862
  117OSM   H10F12310   7.875   1.853   7.560 -0.5616 -0.1926  1.2849
  117OSM   C11F12311   7.796   1.661   7.614  0.3197  0.3282  0.3066
  117OSM   H11F12312   7.866   1.579   7.588 -0.8033 -1.6292  3.2231
  117OSM   H11G12313   7.694   1.616   7.605  2.1041 -3.7078 -1.0852
  117OSM   C12F12314   7.822   1.706   7.759 -0.4813 -0.5667 -0.2701
  117OSM   H12F12315   7.762   1.795   7.788  1.9154  0.3446  2.0611
  117OSM   H12G12316   7.927   1.736   7.775 -1.1300  1.6807 -0.0624
  117OSM   C13F12317   7.802   1.590   7.857  0.7238  0.0480  0.4533
  117OSM   H13F12318   7.857   1.497   7.828 -1.0125 -0.9757  0.4042
  117OSM   H13G12319   7.697   1.553   7.862  1.0282 -0.6949  1.5776
  117OSM   C14F12320   7.838   1.615   8.007  0.1462 -0.3156 -0.4623
  117OSM   H14F12321   7.764   1.691   8.041 -0.6250 -0.0465 -2.6295
  117OSM   H14G12322   7.941   1.655   8.014 -1.4629  3.9622  0.4067
  117OSM   C15F12323   7.837   1.494   8.104  0.4629  0.0371 -0.5064
  117OSM   H15F12324   7.868   1.530   8.204  0.0901 -0.9064 -0.0479
  117OSM   H15G12325   7.904   1.411   8.073  0.6910 -0.4608  1.2529
  117OSM   C16F12326   7.701   1.427   8.129  0.1418 -0.0845 -0.2269
  117OSM   H16F12327   7.680   1.365   8.039 -0.7618  1.2314 -0.9406
  117OSM   H16G12328   7.616   1.498   8.136 -0.1234 -0.4598  0.3473
  117OSM   C17F12329   7.717   1.342   8.252 -0.1571 -0.1344  0.8989
  117OSM   H17F12330   7.803   1.272   8.254  0.1500  0.2489  1.0726
  117OSM   H17G12331   7.726   1.415   8.336 -1.9698 -0.2899  1.2619
  117OSM   C18F12332   7.592   1.259   8.260 -0.0003 -0.1425 -0.6416
  117OSM   H18F12333   7.587   1.184   8.342 -0.4724 -0.2907 -0.8038
  117OSM   H18G12334   7.571   1.212   8.162  1.0509 -2.7874  0.3479
  117OSM   H18H12335   7.507   1.328   8.275  0.0126 -0.4512  0.9574
  118OSM      N12336   3.912   4.617   5.930 -0.1042 -0.1336  0.4147
  118OSM    C1512337   3.776   4.677   5.892  0.3296 -0.5351 -0.9236
  118OSM   H15A12338   3.770   4.704   5.787 -0.4427  0.5750 -0.6057
  118OSM   H15B12339   3.744   4.752   5.963 -1.7502 -1.7952 -0.5123
  118OSM   H15C12340   3.705   4.597   5.906  0.8548 -0.8717 -0.1455
  118OSM    C1412341   3.945   4.515   5.827  0.6933  0.6576 -1.3557
  118OSM   H14A12342   3.885   4.425   5.827  0.4475  0.7768  1.1541
  118OSM   H14B12343   4.045   4.476   5.839  0.8241  0.4437 -3.0729
  118OSM   H14C12344   3.945   4.561   5.730  0.7788  1.4803 -0.9650
  118OSM    C1312345   4.010   4.729   5.915 -0.7966  0.1210  0.4848
  118OSM   H13A12346   4.110   4.691   5.898 -1.7198 -1.3029 -2.1436
  118OSM   H13B12347   4.029   4.775   6.010  1.0750 -0.3790  0.3755
  118OSM   H13C12348   3.977   4.809   5.851 -0.4984 -0.0959  0.0494
  118OSM    C1212349   3.898   4.569   6.072 -0.2946  0.1328 -0.0849
  118OSM   H12A12350   3.982   4.511   6.107 -0.1159  0.3618 -0.1321
  118OSM   H12B12351   3.817   4.499   6.088  0.2940  0.1838  3.6091
  118OSM    C1112352   3.870   4.671   6.189 -0.1707 -0.4845  0.6824
  118OSM   H11A12353   3.832   4.628   6.284  1.9655 -2.0557  0.8572
  118OSM   H11B12354   3.788   4.737   6.154  0.6538 -0.3376 -1.0721
  118OSM      P12355   4.000   4.858   6.306  0.0793  0.2548  0.1294
  118OSM    O1312356   4.145   4.891   6.302 -0.1050  0.0033  0.0723
  118OSM    O1412357   3.902   4.965   6.265  0.1443 -0.6963 -0.0464
  118OSM    O1112358   3.966   4.788   6.440 -0.0080  0.1054  0.2597
  118OSM    O1212359   3.987   4.739   6.203 -0.8467  0.1785  0.2768
  118OSM    C1S12360   4.028   4.660   6.487 -0.0982 -0.3831  0.5216
  118OSM    H1S12361   4.136   4.663   6.462  0.2477 -0.1609  2.0180
  118OSM    H1T12362   3.983   4.570   6.439  0.5440  0.6245 -2.0941
  118OSM     NF12363   4.042   4.493   6.680  0.3285  0.3470 -0.0602
  118OSM    HNF12364   3.973   4.420   6.682 -0.7293  1.3609  1.0934
  118OSM    C2S12365   3.992   4.623   6.636  0.3873 -0.1728  0.1841
  118OSM    H2S12366   4.051   4.705   6.681  1.8080 -1.5568  0.8986
  118OSM    C3S12367   3.839   4.635   6.654  0.3974 -0.5963  0.0749
  118OSM    H3S12368   3.797   4.549   6.597  3.4884 -1.8875 -0.3713
  118OSM     O312369   3.770   4.752   6.608  0.4601 -0.2244 -0.1693
  118OSM    HO312370   3.832   4.807   6.559  0.1862  0.8945  0.7490
  118OSM    C4S12371   3.793   4.605   6.797  0.1891 -0.2696 -0.5567
  118OSM    H4S12372   3.742   4.509   6.812 -1.3695  0.5291 -0.6434
  118OSM    C5S12373   3.833   4.677   6.904 -0.2540 -0.0556 -0.2978
  118OSM    H5S12374   3.896   4.767   6.901 -0.1905 -0.1429 -1.7764
  118OSM    C6S12375   3.794   4.645   7.051 -0.2846  0.0754  0.4029
  118OSM    H6S12376   3.725   4.559   7.045  1.1366 -1.0023 -1.0841
  118OSM    H6T12377   3.734   4.730   7.090 -2.5842 -1.2339 -0.1704
  118OSM    C7S12378   3.925   4.642   7.127 -0.2786 -0.5953 -0.4268
  118OSM    H7S12379   3.980   4.738   7.120  0.6574 -1.2010 -1.3993
  118OSM    H7T12380   3.986   4.556   7.095  2.5043  0.8677  0.7738
  118OSM    C8S12381   3.887   4.627   7.280 -0.6908 -0.5676 -0.0705
  118OSM    H8S12382   3.822   4.537   7.280 -2.9216  1.0150  0.7484
  118OSM    H8T12383   3.814   4.702   7.316 -1.1471 -1.5669  1.1417
  118OSM    C9S12384   4.014   4.621   7.375  0.0305 -0.2748  0.0600
  118OSM    H9S12385   4.058   4.723   7.366 -0.4414 -0.0920 -0.2560
  118OSM    H9T12386   4.093   4.555   7.335  0.8166  0.4782  0.3677
  118OSM   C10S12387   3.973   4.597   7.523 -0.6103 -0.1254  0.2698
  118OSM   H10S12388   3.940   4.492   7.543 -1.5146  0.0355 -0.3702
  118OSM   H10T12389   3.881   4.659   7.531 -0.6082 -0.2714  1.6342
  118OSM   C11S12390   4.070   4.649   7.625 -0.3262 -0.5873  0.3620
  118OSM   H11S12391   4.097   4.755   7.608  1.0075 -0.9538  0.1573
  118OSM   H11T12392   4.165   4.595   7.609  1.1881  2.2512 -0.5653
  118OSM   C12S12393   4.019   4.634   7.763  0.4136 -0.5184  0.6510
  118OSM   H12S12394   4.014   4.524   7.781 -0.1669 -0.5626  0.2262
  118OSM   H12T12395   3.915   4.672   7.765 -0.4447 -2.6249 -1.4478
  118OSM   C13S12396   4.118   4.700   7.859  0.1686 -0.2195  0.0608
  118OSM   H13S12397   4.135   4.809   7.846 -2.0824  0.2915  1.2495
  118OSM   H13T12398   4.214   4.643   7.859  0.0579 -0.4253  1.0362
  118OSM   C14S12399   4.056   4.679   8.001 -0.6273  0.1735  0.8624
  118OSM   H14S12400   4.061   4.569   8.019  3.1003 -0.3792 -2.8505
  118OSM   H14T12401   3.954   4.723   8.002 -0.1495  1.2911  1.2480
  118OSM   C15S12402   4.147   4.740   8.107 -0.1756 -0.3623  0.1991
  118OSM   H15S12403   4.169   4.848   8.095  2.2983 -0.6730  1.3963
  118OSM   H15T12404   4.241   4.681   8.100 -0.9084 -1.6310  0.7755
  118OSM   C16S12405   4.087   4.717   8.249 -0.5522  0.0625  0.2443
  118OSM   H16S12406   4.055   4.610   8.251 -2.1947  0.5329  0.0220
  118OSM   H16T12407   4.006   4.786   8.281  1.8021  1.5124  3.3898
  118OSM   C17S12408   4.203   4.722   8.346 -0.5979 -0.4610  0.4264
  118OSM   H17S12409   4.252   4.822   8.336 -0.9609 -0.2652  0.5951
  118OSM   H17T12410   4.273   4.640   8.320 -1.0485 -0.5360 -0.5626
  118OSM   C18S12411   4.155   4.692   8.486 -0.6398 -0.2962  0.5173
  118OSM   H18S12412   4.056   4.742   8.497 -0.5304 -0.0049  0.1687
  118OSM   H18T12413   4.225   4.736   8.560 -0.4335  2.1310 -1.0623
  118OSM   H18U12414   4.161   4.583   8.510 -0.3243 -0.6773 -1.2450
  118OSM    C1F12415   4.173   4.469   6.695 -0.2281 -0.1394 -0.4313
  118OSM     OF12416   4.243   4.565   6.696  0.1566  0.1224 -0.0119
  118OSM    C2F12417   4.220   4.328   6.711  0.1337  0.2845 -0.4094
  118OSM    H2F12418   4.229   4.281   6.611 -1.8151  0.2393 -0.5768
  118OSM    H2G12419   4.143   4.269   6.765  1.4187 -0.6730  0.4161
  118OSM    C3F12420   4.362   4.315   6.780 -0.8098  0.3624 -0.2705
  118OSM    H3F12421   4.439   4.379   6.731 -0.2643  0.3437  0.5574
  118OSM    H3G12422   4.400   4.211   6.774  1.8304  1.2216  0.8501
  118OSM    C4F12423   4.368   4.363   6.929 -0.0206  0.0865 -0.9725
  118OSM    H4F12424   4.342   4.471   6.927 -1.4002 -0.2247 -0.8579
  118OSM    H4G12425   4.477   4.368   6.950 -0.6073  3.0210  1.6313
  118OSM    C5F12426   4.299   4.279   7.034  0.1300 -0.0837  0.6315
  118OSM    H5F12427   4.311   4.173   7.002  2.6849  0.6893 -1.1078
  118OSM    H5G12428   4.193   4.308   7.051  0.9987  3.9792 -0.2744
  118OSM    C6F12429   4.377   4.302   7.166 -0.2717 -0.2036 -1.1346
  118OSM    H6F12430   4.370   4.408   7.201 -0.4270 -0.7358  0.4890
  118OSM    H6G12431   4.483   4.272   7.160 -0.6856 -1.3727 -2.8350
  118OSM    C7F12432   4.318   4.216   7.277 -0.0769  0.5720 -0.5734
  118OSM    H7F12433   4.343   4.114   7.242  1.3547  0.9357 -0.6600
  118OSM    H7G12434   4.207   4.223   7.280  0.0466  2.0957  2.3513
  118OSM    C8F12435   4.365   4.257   7.417  0.0475 -0.3917 -0.3278
  118OSM    H8F12436   4.372   4.368   7.411 -2.4876 -0.2605 -1.4436
  118OSM    H8G12437   4.466   4.226   7.452  0.2447 -0.1791 -0.7025
  118OSM    C9F12438   4.266   4.210   7.528 -0.0543 -0.2831  0.5757
  118OSM    H9F12439   4.189   4.138   7.495  1.3168 -1.7009  0.3818
  118OSM   C10F12440   4.293   4.208   7.658  0.2375 -0.1525  0.5567
  118OSM   H10F12441   4.229   4.146   7.723  0.2425 -1.8669 -1.0507
  118OSM   C11F12442   4.410   4.280   7.721 -0.1364  0.0787 -0.3651
  118OSM   H11F12443   4.453   4.347   7.644 -2.3827 -0.0208 -1.7266
  118OSM   H11G12444   4.491   4.209   7.747  0.5470  0.9220 -0.1438
  118OSM   C12F12445   4.363   4.371   7.836  0.6231 -0.6665 -0.6710
  118OSM   H12F12446   4.264   4.417   7.816  3.1808  4.0713 -3.2336
  118OSM   H12G12447   4.436   4.455   7.834  1.0543 -1.0598 -1.6860
  118OSM   C13F12448   4.361   4.296   7.973 -0.5280 -0.2873 -0.1773
  118OSM   H13F12449   4.458   4.242   7.987 -0.3093 -0.1678 -1.2268
  118OSM   H13G12450   4.276   4.224   7.971 -0.6905 -0.1101  0.1917
  118OSM   C14F12451   4.343   4.378   8.098  0.2389 -0.1378  0.3415
  118OSM   H14F12452   4.239   4.416   8.103  0.2586 -0.2020  1.5803
  118OSM   H14G12453   4.419   4.458   8.088  2.3783 -2.1557  0.0861
  118OSM   C15F12454   4.399   4.318   8.228 -0.3324 -0.1843  0.2504
  118OSM   H15F12455   4.455   4.402   8.275  0.8220 -0.6202 -0.3220
  118OSM   H15G12456   4.479   4.243   8.209  0.1186  0.4470 -0.3554
  118OSM   C16F12457   4.299   4.248   8.319 -1.3403  0.2394  0.2481
  118OSM   H16F12458   4.227   4.182   8.266 -1.1185 -0.2820  0.5979
  118OSM   H16G12459   4.248   4.322   8.385 -1.3947 -1.2057  1.8641
  118OSM   C17F12460   4.371   4.149   8.420  1.1069  0.0178  0.0387
  118OSM   H17F12461   4.421   4.204   8.503 -0.0249 -0.1937  0.8706
  118OSM   H17G12462   4.451   4.090   8.370  0.8264 -0.0651 -0.3167
  118OSM   C18F12463   4.270   4.052   8.480 -0.2885 -0.0928 -0.4828
  118OSM   H18F12464   4.232   3.986   8.400  2.5221 -0.4139 -1.5910
  118OSM   H18G12465   4.182   4.106   8.524 -0.6055  0.1301 -1.3741
  118OSM   H18H12466   4.320   3.999   8.563 -1.6893 -1.6628 -0.6102
  119OSM      N12467   4.662   3.589   5.656 -0.1893  0.7447  0.1524
  119OSM    C1512468   4.749   3.541   5.542 -0.1617  0.5819 -0.0191
  119OSM   H15A12469   4.778   3.438   5.557 -0.0405  0.4544 -1.0996
  119OSM   H15B12470   4.843   3.594   5.541 -0.2184  0.6778 -0.2002
  119OSM   H15C12471   4.712   3.552   5.441  3.2111 -1.7659 -1.6016
  119OSM    C1412472   4.642   3.745   5.654 -0.0720 -0.8185  0.3338
  119OSM   H14A12473   4.732   3.804   5.639 -0.8945 -0.3851 -3.2903
  119OSM   H14B12474   4.586   3.777   5.741 -0.8610 -0.6574 -0.2311
  119OSM   H14C12475   4.586   3.779   5.568  0.0377 -0.8519  0.2502
  119OSM    C1312476   4.533   3.530   5.638  0.7812 -0.9129  0.7359
  119OSM   H13A12477   4.465   3.579   5.706 -2.3755 -4.0576 -0.0104
  119OSM   H13B12478   4.529   3.423   5.648  0.9452 -0.8780  1.2080
  119OSM   H13C12479   4.491   3.561   5.543  1.8336 -0.9821  0.2365
  119OSM    C1212480   4.722   3.546   5.785  0.8675 -0.0178 -0.1207
  119OSM   H12A12481   4.824   3.580   5.782  1.5975 -2.0711  0.5570
  119OSM   H12B12482   4.718   3.438   5.791 -0.9081  0.0595  0.4850
  119OSM    C1112483   4.649   3.600   5.916 -0.8107  0.3051 -0.1559
  119OSM   H11A12484   4.667   3.709   5.933 -0.1329  0.2500 -0.4969
  119OSM   H11B12485   4.700   3.560   6.006  2.1427  1.0995 -1.4304
  119OSM      P12486   4.403   3.670   5.962 -0.0031 -0.5016  0.1941
  119OSM    O1312487   4.454   3.803   5.924  0.0073  0.6127 -0.1431
  119OSM    O1412488   4.264   3.637   5.921 -0.5511 -0.1368  0.3216
  119OSM    O1112489   4.407   3.663   6.118 -0.1393 -0.0083  0.2013
  119OSM    O1212490   4.508   3.563   5.915  0.7733 -0.2477 -0.3854
  119OSM    C1S12491   4.463   3.563   6.202  0.4970 -0.3137  0.2156
  119OSM    H1S12492   4.550   3.508   6.159 -1.4810 -2.2223 -1.4451
  119OSM    H1T12493   4.386   3.484   6.212  1.0976 -1.0040 -0.5079
  119OSM     NF12494   4.561   3.495   6.410 -0.0648 -0.1036  0.1081
  119OSM    HNF12495   4.507   3.449   6.479  0.5833 -3.3561 -1.4163
  119OSM    C2S12496   4.495   3.607   6.353  0.3376  0.2165  0.5719
  119OSM    H2S12497   4.571   3.688   6.344 -0.5850  1.0736  0.4751
  119OSM    C3S12498   4.360   3.647   6.427 -0.2635  0.4870 -0.2505
  119OSM    H3S12499   4.286   3.564   6.425 -0.6952  0.8810 -3.0077
  119OSM     O312500   4.290   3.750   6.366  0.5595  0.0511 -0.0091
  119OSM    HO312501   4.314   3.742   6.273  0.2618  0.1751 -0.0982
  119OSM    C4S12502   4.404   3.673   6.572 -0.0281  0.9215 -0.4987
  119OSM    H4S12503   4.383   3.589   6.639  0.0646  2.1979  1.1743
  119OSM    C5S12504   4.440   3.790   6.629 -0.2046  0.1584 -0.1261
  119OSM    H5S12505   4.439   3.877   6.562 -3.9115 -0.3868 -0.9157
  119OSM    C6S12506   4.463   3.796   6.776 -0.1948  0.0885  0.6909
  119OSM    H6S12507   4.567   3.825   6.805 -0.1190 -1.2341  1.8353
  119OSM    H6T12508   4.456   3.693   6.818  5.8076 -1.5725 -1.7670
  119OSM    C7S12509   4.371   3.900   6.849 -0.2761 -0.1071 -0.1767
  119OSM    H7S12510   4.267   3.869   6.823  0.6832 -0.7657 -3.5970
  119OSM    H7T12511   4.384   4.004   6.812 -0.3394  0.6686  1.9562
  119OSM    C8S12512   4.395   3.908   7.000 -0.3361 -0.2105 -0.1277
  119OSM    H8S12513   4.314   3.970   7.043  0.0119  0.1079  0.0752
  119OSM    H8T12514   4.490   3.966   7.006 -1.0270  0.9082  0.1502
  119OSM    C9S12515   4.399   3.777   7.088 -0.5200  0.1993  0.8398
  119OSM    H9S12516   4.490   3.719   7.061 -2.2649 -1.6837 -1.2243
  119OSM    H9T12517   4.308   3.721   7.057 -0.3547  0.1962  0.3602
  119OSM   C10S12518   4.390   3.806   7.233 -0.4826  0.2860  0.2264
  119OSM   H10S12519   4.402   3.914   7.256  0.8969  0.3197 -0.5781
  119OSM   H10T12520   4.471   3.753   7.287 -1.0227 -1.5000 -0.6931
  119OSM   C11S12521   4.263   3.750   7.302  0.3249 -0.0997 -0.4418
  119OSM   H11S12522   4.273   3.640   7.292  1.8729 -0.3823  3.3911
  119OSM   H11T12523   4.167   3.774   7.251 -0.4641  1.3355  1.6267
  119OSM   C12S12524   4.244   3.797   7.451 -0.4465 -0.1104  0.0656
  119OSM   H12S12525   4.246   3.907   7.445 -0.2878 -0.1701 -1.0610
  119OSM   H12T12526   4.336   3.765   7.504 -1.1620  0.3108  1.5825
  119OSM   C13S12527   4.130   3.734   7.534  0.5518 -0.2363 -0.1575
  119OSM   H13S12528   4.114   3.629   7.501  0.2747 -0.2581  0.0460
  119OSM   H13T12529   4.035   3.785   7.509 -0.8237 -2.1774  1.0031
  119OSM   C14S12530   4.152   3.759   7.683  0.3750 -0.2255  0.9108
  119OSM   H14S12531   4.157   3.869   7.690 -0.5126  0.0297 -1.9169
  119OSM   H14T12532   4.245   3.710   7.720  0.9181 -0.2212 -0.4203
  119OSM   C15S12533   4.041   3.712   7.769  0.7154  0.2695  0.2913
  119OSM   H15S12534   4.018   3.607   7.741  0.4278  0.7279 -1.2442
  119OSM   H15T12535   3.952   3.774   7.742  1.0273  0.7223  0.3024
  119OSM   C16S12536   4.069   3.701   7.925  0.2021  0.1960  0.0378
  119OSM   H16S12537   4.105   3.800   7.962 -2.5682  1.1780  0.2433
  119OSM   H16T12538   4.147   3.627   7.951  0.0170  0.5165  1.5630
  119OSM   C17S12539   3.935   3.651   7.997 -0.1544 -0.3797 -0.0521
  119OSM   H17S12540   3.889   3.563   7.948 -0.8414 -0.3590  0.5398
  119OSM   H17T12541   3.861   3.731   7.977  0.1473 -0.2959 -0.8243
  119OSM   C18S12542   3.960   3.628   8.147 -0.0332 -0.2450 -0.7184
  119OSM   H18S12543   3.998   3.721   8.195 -1.2626  0.2926 -0.7510
  119OSM   H18T12544   4.031   3.545   8.165 -0.8167 -0.9261 -0.7204
  119OSM   H18U12545   3.866   3.600   8.200  0.8045  3.1867  2.8973
  119OSM    C1F12546   4.689   3.469   6.401 -0.7089 -0.2933  0.6278
  119OSM     OF12547   4.762   3.547   6.341  0.1093  0.2246  0.1952
  119OSM    C2F12548   4.743   3.345   6.457 -1.0808  0.4659  0.2571
  119OSM    H2F12549   4.793   3.288   6.376  0.4025 -0.3122  1.7070
  119OSM    H2G12550   4.659   3.279   6.487 -0.5968 -0.8453 -1.1946
  119OSM    C3F12551   4.838   3.359   6.577 -0.0986  0.3436  0.6207
  119OSM    H3F12552   4.915   3.437   6.556 -0.3704  0.6345  0.6974
  119OSM    H3G12553   4.898   3.267   6.591 -0.1339  0.1884 -0.2026
  119OSM    C4F12554   4.761   3.423   6.696  0.3406  0.0178  0.4237
  119OSM    H4F12555   4.664   3.370   6.681 -0.5764  1.4968  1.0446
  119OSM    H4G12556   4.754   3.529   6.665  0.4674  0.0034  0.3459
  119OSM    C5F12557   4.827   3.404   6.836  0.3343 -0.3477 -0.5634
  119OSM    H5F12558   4.936   3.423   6.822  0.6643 -2.7192 -1.3244
  119OSM    H5G12559   4.826   3.298   6.868  0.3760 -0.4997 -1.0514
  119OSM    C6F12560   4.747   3.486   6.937  0.5683 -0.0991  0.2323
  119OSM    H6F12561   4.645   3.443   6.922 -0.4611  2.3101  0.1278
  119OSM    H6G12562   4.731   3.594   6.918  0.7549 -0.2636 -0.8858
  119OSM    C7F12563   4.793   3.462   7.082  0.2532  0.4921 -0.0081
  119OSM    H7F12564   4.898   3.494   7.098  0.2188  0.1313  0.9938
  119OSM    H7G12565   4.793   3.356   7.114 -0.1978  0.3803 -0.3733
  119OSM    C8F12566   4.692   3.538   7.182  0.0162  1.0780  0.9154
  119OSM    H8F12567   4.593   3.488   7.179  0.3219  0.4705  0.7127
  119OSM    H8G12568   4.683   3.639   7.138  1.0841  1.2541  1.0903
  119OSM    C9F12569   4.741   3.531   7.328 -0.2840 -0.2079 -0.2243
  119OSM    H9F12570   4.850   3.530   7.341 -0.5078  0.7188  1.9115
  119OSM   C10F12571   4.667   3.520   7.445 -0.3071  0.2416  0.0207
  119OSM   H10F12572   4.731   3.536   7.533  1.9491 -1.9896 -1.1581
  119OSM   C11F12573   4.517   3.512   7.460 -0.3434  0.6340 -0.4987
  119OSM   H11F12574   4.465   3.476   7.369  0.1048 -0.4589 -0.3293
  119OSM   H11G12575   4.489   3.617   7.480  1.6978  0.8380  1.4879
  119OSM   C12F12576   4.453   3.432   7.583 -0.1121 -0.5729  1.1088
  119OSM   H12F12577   4.512   3.339   7.590  0.1431 -0.6747 -1.6969
  119OSM   H12G12578   4.345   3.408   7.571 -0.0235 -1.0116  1.1992
  119OSM   C13F12579   4.469   3.512   7.711  0.2446  0.2239  0.2340
  119OSM   H13F12580   4.421   3.612   7.702  0.5379  0.2847 -0.7806
  119OSM   H13G12581   4.575   3.535   7.735  0.1737 -0.3715  1.1258
  119OSM   C14F12582   4.413   3.436   7.826 -1.5212 -0.5219 -1.0389
  119OSM   H14F12583   4.469   3.340   7.828 -0.2615  0.2085  2.6755
  119OSM   H14G12584   4.307   3.406   7.807 -1.8408 -0.2806  0.3045
  119OSM   C15F12585   4.441   3.503   7.963 -0.0366  0.1770  0.6752
  119OSM   H15F12586   4.401   3.605   7.948 -0.6506 -0.1611 -0.0005
  119OSM   H15G12587   4.549   3.515   7.985  0.1071 -1.1072  0.7021
  119OSM   C16F12588   4.382   3.429   8.079  0.1560  0.8520 -0.2280
  119OSM   H16F12589   4.438   3.336   8.100 -1.8767 -0.7195 -1.6237
  119OSM   H16G12590   4.278   3.398   8.056 -0.2770  1.7114  0.4836
  119OSM   C17F12591   4.384   3.512   8.213 -0.5770 -0.2355  0.4131
  119OSM   H17F12592   4.323   3.465   8.294 -0.1272  2.2857  2.2604
  119OSM   H17G12593   4.344   3.612   8.189  2.4997  0.8293 -0.5082
  119OSM   C18F12594   4.526   3.541   8.271 -1.1980 -0.1038  1.2614
  119OSM   H18F12595   4.514   3.597   8.367  2.0522 -0.8149  2.1556
  119OSM   H18G12596   4.582   3.609   8.202 -3.1573 -0.4117 -0.6633
  119OSM   H18H12597   4.575   3.442   8.282 -1.5952 -0.6333 -1.4890
  120OSM      N12598   2.435   1.226   6.274  0.4675 -0.4773  0.9589
  120OSM    C1512599   2.308   1.239   6.203 -0.9319 -0.1058  0.4694
  120OSM   H15A12600   2.263   1.144   6.176 -0.8280  0.0796 -0.3600
  120OSM   H15B12601   2.328   1.297   6.115 -1.4116  2.1063  1.7918
  120OSM   H15C12602   2.237   1.305   6.251 -2.3451 -1.4130  0.2256
  120OSM    C1412603   2.531   1.191   6.162 -0.4700 -0.1436  0.9371
  120OSM   H14A12604   2.612   1.134   6.206 -0.3076 -0.0627  0.7424
  120OSM   H14B12605   2.569   1.279   6.113  0.2879 -0.6786  0.5517
  120OSM   H14C12606   2.483   1.123   6.092 -1.3508  0.8278  0.5863
  120OSM    C1312607   2.475   1.363   6.325  0.2545  0.3302 -0.3456
  120OSM   H13A12608   2.575   1.366   6.365 -0.1800 -1.0185  0.8665
  120OSM   H13B12609   2.419   1.378   6.416  2.4076  3.1444  0.5870
  120OSM   H13C12610   2.455   1.440   6.252  1.2973  1.0620  0.1288
  120OSM    C1212611   2.429   1.127   6.390 -0.0284  0.0987  0.7582
  120OSM   H12A12612   2.402   1.036   6.338  0.9779  1.2547 -1.9210
  120OSM   H12B12613   2.348   1.157   6.455 -1.5900 -0.6170 -0.7950
  120OSM    C1112614   2.560   1.106   6.477 -0.4007 -0.0404 -0.1486
  120OSM   H11A12615   2.535   1.036   6.560  0.3851  1.8962  1.7884
  120OSM   H11B12616   2.571   1.207   6.521 -4.7550 -0.6100  2.6212
  120OSM      P12617   2.698   0.922   6.370 -0.2338 -0.7506 -0.0020
  120OSM    O1312618   2.571   0.862   6.330 -0.3230  0.0546 -0.3543
  120OSM    O1412619   2.795   0.916   6.265 -0.0195  0.8072 -0.2291
  120OSM    O1112620   2.762   0.853   6.497  0.0586 -0.7725 -0.3190
  120OSM    O1212621   2.681   1.073   6.404  0.2453  0.5625  0.2986
  120OSM    C1S12622   2.818   0.911   6.615 -0.1816 -0.1670 -0.6262
  120OSM    H1S12623   2.788   1.018   6.623  0.1118 -0.0859 -0.6260
  120OSM    H1T12624   2.926   0.891   6.627 -0.3868 -2.2491 -1.9837
  120OSM     NF12625   2.846   0.865   6.865  0.6549 -0.8905  0.4921
  120OSM    HNF12626   2.905   0.796   6.906  2.3429  0.7832  0.9880
  120OSM    C2S12627   2.770   0.826   6.745  0.5338  0.3292 -0.9143
  120OSM    H2S12628   2.662   0.842   6.759  0.1361 -2.5453 -0.2852
  120OSM    C3S12629   2.777   0.666   6.715  0.6733 -0.4782 -0.6597
  120OSM    H3S12630   2.879   0.649   6.676  0.9611  0.7407 -0.4372
  120OSM     O312631   2.686   0.618   6.616  0.5338  0.7425 -0.0730
  120OSM    HO312632   2.686   0.692   6.554 -0.0509 -0.0541 -1.0380
  120OSM    C4S12633   2.745   0.582   6.832  0.3629  0.7180 -0.6268
  120OSM    H4S12634   2.653   0.618   6.881  0.9552  1.2036  0.1367
  120OSM    C5S12635   2.816   0.478   6.879 -0.3716  0.0370 -0.6975
  120OSM    H5S12636   2.902   0.439   6.822 -0.1270 -1.2704  0.5652
  120OSM    C6S12637   2.789   0.393   7.002  0.5763 -0.0231 -0.0693
  120OSM    H6S12638   2.878   0.389   7.068  0.3586 -0.8083  0.1745
  120OSM    H6T12639   2.776   0.288   6.970  1.3852 -0.1514  0.0128
  120OSM    C7S12640   2.658   0.426   7.073  0.1704  0.3751 -0.0574
  120OSM    H7S12641   2.577   0.403   7.001 -0.0012  2.2282 -0.4947
  120OSM    H7T12642   2.648   0.535   7.090 -0.1905  0.4365 -0.6638
  120OSM    C8S12643   2.629   0.368   7.212  0.6075 -0.0224 -0.0861
  120OSM    H8S12644   2.698   0.409   7.289 -0.4929 -0.6811  1.2653
  120OSM    H8T12645   2.632   0.257   7.219  1.4526 -0.0432 -0.6783
  120OSM    C9S12646   2.491   0.406   7.263 -1.0834  0.1391 -0.0877
  120OSM    H9S12647   2.413   0.360   7.199 -0.6012 -2.0178  0.8303
  120OSM    H9T12648   2.485   0.517   7.263 -1.1693  0.1361 -0.7084
  120OSM   C10S12649   2.479   0.347   7.403 -0.1037  1.0560 -0.9664
  120OSM   H10S12650   2.564   0.388   7.462 -1.3428  1.3123  0.6743
  120OSM   H10T12651   2.489   0.237   7.389 -2.8473  0.5157  0.9028
  120OSM   C11S12652   2.347   0.381   7.481  0.0552  0.1157  0.4800
  120OSM   H11S12653   2.272   0.313   7.437 -0.2666  0.4540  0.5082
  120OSM   H11T12654   2.318   0.487   7.463  2.4404  1.1412  2.3320
  120OSM   C12S12655   2.365   0.371   7.641 -0.0248  0.0225  0.2550
  120OSM   H12S12656   2.262   0.394   7.675  0.5486  0.6284  1.6215
  120OSM   H12T12657   2.439   0.442   7.683  1.6669 -1.8336  0.4824
  120OSM   C13S12658   2.408   0.235   7.692 -0.4923  0.1885 -0.4474
  120OSM   H13S12659   2.508   0.216   7.648  0.0028 -2.0122  1.4955
  120OSM   H13T12660   2.348   0.147   7.661  1.7127 -0.9024 -1.7297
  120OSM   C14S12661   2.412   0.232   7.843  0.5523 -0.0758 -0.5729
  120OSM   H14S12662   2.456   0.327   7.882 -0.2046  0.7309 -1.6434
  120OSM   H14T12663   2.473   0.148   7.882  1.0180 -0.4352 -2.0479
  120OSM   C15S12664   2.272   0.202   7.903 -0.3357  0.2319  0.1460
  120OSM   H15S12665   2.237   0.105   7.860  0.2684 -1.3976  3.1696
  120OSM   H15T12666   2.203   0.287   7.888  1.0410  0.9386 -2.5571
  120OSM   C16S12667   2.278   0.168   8.053 -0.2163 -0.2163  0.9055
  120OSM   H16S12668   2.338   0.241   8.111  0.5526  0.4193 -0.6572
  120OSM   H16T12669   2.328   0.070   8.069  0.2728  0.1854  1.9162
  120OSM   C17S12670   2.139   0.161   8.124 -0.4116  0.5751  0.0333
  120OSM   H17S12671   2.086   0.083   8.064 -1.2907  2.4895 -1.7384
  120OSM   H17T12672   2.080   0.253   8.106 -1.0020  0.4818  1.4089
  120OSM   C18S12673   2.139   0.122   8.269  0.6141 -0.0398  0.4255
  120OSM   H18S12674   2.048   0.081   8.318 -0.3505 -0.6693 -1.8166
  120OSM   H18T12675   2.178   0.208   8.328  1.9779  0.0842 -0.6136
  120OSM   H18U12676   2.216   0.042   8.272  1.0499  0.3058 -0.9070
  120OSM    C1F12677   2.853   0.987   6.920 -0.2240 -0.5122 -0.1687
  120OSM     OF12678   2.769   1.075   6.901 -0.3938  0.1073 -0.4086
  120OSM    C2F12679   2.966   1.006   7.017  0.2811 -0.2367 -0.5706
  120OSM    H2F12680   3.013   0.907   7.032  1.6427  0.4911  0.0608
  120OSM    H2G12681   2.902   1.026   7.106  0.2233  0.2116 -0.7103
  120OSM    C3F12682   3.061   1.124   6.984 -0.1162 -0.7989  0.0498
  120OSM    H3F12683   3.008   1.220   6.968  1.3205 -0.3027 -1.9198
  120OSM    H3G12684   3.114   1.100   6.889  2.5396  0.5161  1.1352
  120OSM    C4F12685   3.177   1.136   7.081  0.3897  0.0260 -0.0547
  120OSM    H4F12686   3.244   1.218   7.049  1.3236 -1.3901 -1.7795
  120OSM    H4G12687   3.237   1.043   7.082 -1.8665 -1.4816  2.2089
  120OSM    C5F12688   3.134   1.182   7.225 -0.2774  0.0101  0.4468
  120OSM    H5F12689   3.047   1.130   7.271  1.4409 -1.8775  1.6566
  120OSM    H5G12690   3.104   1.287   7.209  0.3902  0.2061  0.4604
  120OSM    C6F12691   3.248   1.159   7.326  0.4220  0.1439 -0.3029
  120OSM    H6F12692   3.323   1.239   7.304  2.8970 -1.9922  0.1975
  120OSM    H6G12693   3.294   1.059   7.312 -0.1851 -0.2754  0.7204
  120OSM    C7F12694   3.202   1.180   7.476  0.4903  0.8901  0.5080
  120OSM    H7F12695   3.144   1.087   7.493  1.8697 -0.4240 -1.6680
  120OSM    H7G12696   3.137   1.269   7.491 -1.6298 -0.5925  0.2934
  120OSM    C8F12697   3.315   1.166   7.579  0.1823 -0.0060 -0.3839
  120OSM    H8F12698   3.373   1.083   7.534  1.1858 -0.4217  1.6131
  120OSM    H8G12699   3.284   1.138   7.682  1.4532 -0.0428 -0.0005
  120OSM    C9F12700   3.399   1.288   7.573 -0.6388  0.4937  0.4526
  120OSM    H9F12701   3.451   1.310   7.478 -0.7672 -1.2274 -0.0232
  120OSM   C10F12702   3.385   1.387   7.666 -0.9893 -0.2435 -0.1595
  120OSM   H10F12703   3.438   1.483   7.654 -2.8125  0.7075 -0.7755
  120OSM   C11F12704   3.296   1.384   7.785  0.3185 -0.2450  0.6645
  120OSM   H11F12705   3.201   1.328   7.775 -0.3006  0.7608  0.7972
  120OSM   H11G12706   3.263   1.488   7.808  0.1221 -0.8159  3.0661
  120OSM   C12F12707   3.364   1.323   7.913 -0.0766  0.6842  0.1755
  120OSM   H12F12708   3.473   1.344   7.913 -0.1277  0.9482  0.3724
  120OSM   H12G12709   3.354   1.212   7.904 -3.2048  1.0330 -1.2277
  120OSM   C13F12710   3.310   1.360   8.050 -0.7066 -0.3780  0.8768
  120OSM   H13F12711   3.299   1.471   8.054 -0.2910 -0.3220  0.5241
  120OSM   H13G12712   3.390   1.329   8.121 -1.3149  0.4327  1.9379
  120OSM   C14F12713   3.177   1.309   8.085  0.2959 -0.6328 -0.4888
  120OSM   H14F12714   3.158   1.201   8.063 -3.7662 -0.4201  1.4928
  120OSM   H14G12715   3.111   1.370   8.020 -0.5111 -0.3566  0.5830
  120OSM   C15F12716   3.136   1.336   8.233  0.7820  1.2980  0.5929
  120OSM   H15F12717   3.141   1.246   8.298 -0.9199  0.6575 -0.1187
  120OSM   H15G12718   3.028   1.364   8.234 -0.2753 -2.3298 -1.4002
  120OSM   C16F12719   3.201   1.449   8.305  0.0035  0.3748 -0.2780
  120OSM   H16F12720   3.188   1.545   8.249  0.7272  0.8353  0.3429
  120OSM   H16G12721   3.309   1.424   8.312 -0.0397  0.2332 -0.1267
  120OSM   C17F12722   3.159   1.458   8.455  0.3535 -0.4790  0.2502
  120OSM   H17F12723   3.128   1.357   8.490  2.6660 -1.1802  0.3400
  120OSM   H17G12724   3.060   1.508   8.455  0.0771 -1.0248 -1.3428
  120OSM   C18F12725   3.256   1.524   8.549  0.0592 -0.2572 -0.2706
  120OSM   H18F12726   3.356   1.476   8.542 -0.2182 -0.6315 -1.8636
  120OSM   H18G12727   3.219   1.501   8.651  1.4185 -0.3113  0.2119
  120OSM   H18H12728   3.261   1.633   8.529 -1.9739 -0.2455 -0.8876
  121OSM      N12729   3.601   2.701   6.003 -0.3738  0.7030  0.2822
  121OSM    C1512730   3.461   2.736   5.964 -0.3227  0.4870 -0.3205
  121OSM   H15A12731   3.445   2.843   5.959 -2.7155  0.3106  2.0852
  121OSM   H15B12732   3.384   2.691   6.025 -2.8404  1.8334 -2.3561
  121OSM   H15C12733   3.442   2.691   5.868  2.7729 -0.6544 -0.4426
  121OSM    C1412734   3.617   2.551   5.970 -0.1798 -0.2800 -0.2624
  121OSM   H14A12735   3.562   2.484   6.035 -4.0899  0.7793 -2.3577
  121OSM   H14B12736   3.721   2.521   5.962 -0.0085  0.4962 -0.9514
  121OSM   H14C12737   3.573   2.534   5.873 -0.7977 -0.4554  0.0459
  121OSM    C1312738   3.692   2.767   5.907 -0.1489  0.0193  0.8680
  121OSM   H13A12739   3.790   2.744   5.946  0.8648  1.8159 -0.5494
  121OSM   H13B12740   3.668   2.872   5.901 -1.2650 -0.4126 -4.0385
  121OSM   H13C12741   3.677   2.715   5.814 -0.8722 -2.0065  2.0756
  121OSM    C1212742   3.646   2.737   6.142 -0.3736 -0.5794 -0.4208
  121OSM   H12A12743   3.571   2.700   6.210  1.2954  1.2745  2.5622
  121OSM   H12B12744   3.659   2.844   6.148 -2.4497 -0.3615  0.6630
  121OSM    C1112745   3.787   2.677   6.186 -1.3535 -0.3289 -0.0008
  121OSM   H11A12746   3.793   2.566   6.185  1.1482 -0.2154 -2.1196
  121OSM   H11B12747   3.779   2.711   6.291  1.5929  2.8333 -0.7314
  121OSM      P12748   3.972   2.859   6.166 -0.2635 -0.0308  0.1191
  121OSM    O1312749   4.096   2.879   6.089  0.6301 -0.1090 -0.7579
  121OSM    O1412750   3.868   2.967   6.157  0.2309  0.0052 -0.4886
  121OSM    O1112751   4.017   2.840   6.319  0.2503  0.0973  0.0711
  121OSM    O1212752   3.893   2.734   6.118  0.4897 -0.3025  0.4814
  121OSM    C1S12753   4.085   2.724   6.357  0.0526  0.4684 -0.4423
  121OSM    H1S12754   4.165   2.694   6.286  1.0661 -1.5868  1.5074
  121OSM    H1T12755   4.014   2.641   6.373 -1.0159  1.1805 -1.3970
  121OSM     NF12756   4.227   2.605   6.527  0.0851 -0.2353  0.6942
  121OSM    HNF12757   4.205   2.562   6.615  1.7986 -1.4338  0.5557
  121OSM    C2S12758   4.159   2.731   6.500  0.8756 -0.1094  0.1098
  121OSM    H2S12759   4.231   2.815   6.491 -0.5603  0.9708 -1.5038
  121OSM    C3S12760   4.060   2.769   6.614 -0.3007 -0.3193 -0.1638
  121OSM    H3S12761   3.978   2.694   6.610 -1.6202  1.0470  0.7252
  121OSM     O312762   3.980   2.884   6.591 -0.4478 -0.6494 -1.0467
  121OSM    HO312763   3.989   2.893   6.496 -2.0223 -2.9876 -1.4737
  121OSM    C4S12764   4.108   2.783   6.751  0.0780  0.1699 -0.9972
  121OSM    H4S12765   4.078   2.704   6.822  2.1341  1.4465  1.4115
  121OSM    C5S12766   4.170   2.886   6.812 -0.7231 -0.0761  0.0762
  121OSM    H5S12767   4.199   2.970   6.747 -3.4611 -0.9940 -2.4725
  121OSM    C6S12768   4.226   2.884   6.952 -0.2387  0.4491 -0.6570
  121OSM    H6S12769   4.319   2.945   6.955 -0.2865  0.5148 -0.5327
  121OSM    H6T12770   4.267   2.781   6.961 -1.1536  0.1922  0.6187
  121OSM    C7S12771   4.116   2.927   7.060  0.2414  0.6827  0.6949
  121OSM    H7S12772   4.021   2.874   7.040  1.3986 -1.2296  0.0628
  121OSM    H7T12773   4.089   3.035   7.061  1.4240  0.9997  2.8831
  121OSM    C8S12774   4.164   2.894   7.196 -0.2471  0.0489  0.4246
  121OSM    H8S12775   4.114   2.962   7.269  2.5084  2.6435  0.0068
  121OSM    H8T12776   4.273   2.916   7.199  0.1929 -1.7698 -1.5608
  121OSM    C9S12777   4.127   2.760   7.247 -0.0736  0.6209  0.0228
  121OSM    H9S12778   4.189   2.733   7.336 -1.0468 -0.4104  0.3951
  121OSM    H9T12779   4.159   2.685   7.172  0.0492  1.7067 -1.0335
  121OSM   C10S12780   3.981   2.740   7.286 -0.4624  0.5140 -0.3733
  121OSM   H10S12781   3.965   2.630   7.298  1.4350  0.5270  2.6278
  121OSM   H10T12782   3.909   2.779   7.210  0.2020  3.0079  0.2647
  121OSM   C11S12783   3.939   2.796   7.420  0.0330 -0.3728  0.3384
  121OSM   H11S12784   3.830   2.813   7.418  0.0178 -0.4291  0.6244
  121OSM   H11T12785   3.983   2.895   7.446 -2.8085  0.7046  1.1517
  121OSM   C12S12786   3.960   2.693   7.536  0.5044 -0.2490  0.5269
  121OSM   H12S12787   4.070   2.692   7.548  0.3433 -1.8434  2.1199
  121OSM   H12T12788   3.940   2.590   7.500  0.5861  0.3211 -1.2077
  121OSM   C13S12789   3.878   2.739   7.658 -0.1633 -0.3833 -0.3269
  121OSM   H13S12790   3.770   2.723   7.636 -0.0551 -1.2907 -0.2295
  121OSM   H13T12791   3.896   2.848   7.672 -0.6911 -0.2690 -0.5100
  121OSM   C14S12792   3.909   2.665   7.796  0.2751 -0.5537  0.0206
  121OSM   H14S12793   4.020   2.654   7.803  0.2609 -0.1588  1.0007
  121OSM   H14T12794   3.858   2.567   7.799  0.1134 -0.4411  1.5929
  121OSM   C15S12795   3.880   2.752   7.930  0.3657 -0.6644  0.4170
  121OSM   H15S12796   3.772   2.773   7.939  0.6876  1.3381 -0.2476
  121OSM   H15T12797   3.929   2.848   7.903  3.8803 -2.5581 -0.1975
  121OSM   C16S12798   3.947   2.683   8.055 -0.6143  0.4506 -0.4278
  121OSM   H16S12799   4.050   2.654   8.024 -0.5884  0.2288 -0.1346
  121OSM   H16T12800   3.899   2.587   8.085  3.2308 -1.1075  1.0710
  121OSM   C17S12801   3.951   2.783   8.176 -0.1178 -0.3523  0.1946
  121OSM   H17S12802   3.846   2.816   8.188 -0.6069 -1.1100 -1.9264
  121OSM   H17T12803   4.014   2.859   8.125 -0.3514 -1.0976 -1.2055
  121OSM   C18S12804   4.009   2.735   8.306  0.5041  0.5134  0.1482
  121OSM   H18S12805   4.113   2.696   8.306 -0.1103 -1.1457  0.6564
  121OSM   H18T12806   3.941   2.667   8.361 -0.1168 -0.2073 -1.4816
  121OSM   H18U12807   4.029   2.824   8.370 -0.3005  1.5860 -1.0804
  121OSM    C1F12808   4.344   2.570   6.469  0.8172  0.1696 -0.3101
  121OSM     OF12809   4.385   2.620   6.364  0.3097  0.3070 -0.5621
  121OSM    C2F12810   4.432   2.476   6.547 -0.0685  0.3619 -0.0417
  121OSM    H2F12811   4.523   2.465   6.484 -0.3740  0.5279 -0.5196
  121OSM    H2G12812   4.369   2.386   6.566 -0.7704  0.9486  0.4516
  121OSM    C3F12813   4.483   2.532   6.678 -0.2748 -0.2181 -0.1879
  121OSM    H3F12814   4.557   2.456   6.712 -0.4125 -0.6138 -0.7761
  121OSM    H3G12815   4.400   2.540   6.752 -0.7634  2.0138 -0.9319
  121OSM    C4F12816   4.556   2.665   6.645 -1.2436  0.0049  0.6708
  121OSM    H4F12817   4.483   2.734   6.597  0.8201  2.2837  0.6986
  121OSM    H4G12818   4.628   2.636   6.566 -0.8854 -2.2080  1.7777
  121OSM    C5F12819   4.626   2.725   6.762  0.4161 -0.2780 -0.1070
  121OSM    H5F12820   4.675   2.822   6.739 -0.2143 -0.0360 -0.4545
  121OSM    H5G12821   4.693   2.651   6.810 -1.3217 -1.3519  0.7237
  121OSM    C6F12822   4.527   2.763   6.868 -0.0914  0.4449  0.0885
  121OSM    H6F12823   4.473   2.673   6.904  3.7031 -1.3241  1.6412
  121OSM    H6G12824   4.466   2.843   6.821 -0.0471  0.0544 -0.6448
  121OSM    C7F12825   4.596   2.830   6.983  0.0867 -0.7629  0.1036
  121OSM    H7F12826   4.683   2.771   7.020  1.1597 -0.7289 -2.2838
  121OSM    H7G12827   4.518   2.826   7.062 -0.9861 -2.6783 -1.0161
  121OSM    C8F12828   4.648   2.969   6.946 -0.4529  0.1599 -0.4064
  121OSM    H8F12829   4.556   3.024   6.917  1.2851  3.8611  0.8003
  121OSM    H8G12830   4.710   2.958   6.855  0.3613 -2.6400  0.4414
  121OSM    C9F12831   4.722   3.036   7.049  0.1907 -0.6291  0.3386
  121OSM    H9F12832   4.828   3.008   7.043  1.2999  3.4237  0.2061
  121OSM   C10F12833   4.678   3.125   7.136  0.1438  0.1357 -0.0646
  121OSM   H10F12834   4.758   3.145   7.209 -0.4166  1.6999  0.1565
  121OSM   C11F12835   4.539   3.173   7.151  0.0767 -0.4310 -0.4401
  121OSM   H11F12836   4.473   3.150   7.065  0.7783  0.6414 -1.2868
  121OSM   H11G12837   4.532   3.282   7.172 -0.9145 -0.8685  1.6917
  121OSM   C12F12838   4.472   3.102   7.266 -0.3818 -0.3726  0.0048
  121OSM   H12F12839   4.457   2.994   7.242 -2.6025 -0.1101  0.1108
  121OSM   H12G12840   4.373   3.153   7.270  0.4271  1.2645 -0.7515
  121OSM   C13F12841   4.546   3.119   7.401  0.3062 -0.1970 -0.1133
  121OSM   H13F12842   4.606   3.211   7.417 -1.5743  0.7005  1.9496
  121OSM   H13G12843   4.631   3.048   7.396  0.7133  0.1541  1.7280
  121OSM   C14F12844   4.455   3.086   7.520 -0.1061  0.5226 -0.3462
  121OSM   H14F12845   4.382   3.169   7.530  0.4657  1.0166 -0.2690
  121OSM   H14G12846   4.512   3.088   7.615  0.2702 -1.0117 -0.5208
  121OSM   C15F12847   4.383   2.949   7.512 -0.0102  0.1660 -0.5094
  121OSM   H15F12848   4.459   2.868   7.517  0.4734  0.5809 -1.0514
  121OSM   H15G12849   4.340   2.938   7.410  0.3044 -0.1217 -0.6136
  121OSM   C16F12850   4.278   2.926   7.622  0.0335  0.2797  0.0198
  121OSM   H16F12851   4.229   2.826   7.610  0.1537  0.2960 -0.5788
  121OSM   H16G12852   4.193   2.995   7.605  0.0958  0.7498  1.5128
  121OSM   C17F12853   4.323   2.932   7.764 -0.8108  0.2567  0.5946
  121OSM   H17F12854   4.350   3.035   7.793  1.3993 -0.3659  0.8546
  121OSM   H17G12855   4.421   2.881   7.773 -0.7173  0.6640  2.0834
  121OSM   C18F12856   4.233   2.879   7.872  0.1784  0.0359 -0.7592
  121OSM   H18F12857   4.204   2.774   7.851  2.6984 -0.9224  0.2860
  121OSM   H18G12858   4.138   2.937   7.872  0.0460 -0.1001  2.2573
  121OSM   H18H12859   4.269   2.891   7.976  1.0495  1.2339 -1.1860
  122OSM      N12860   2.807   5.525   6.188 -0.2859  0.2678  0.2344
  122OSM    C1512861   2.738   5.658   6.169 -0.3712  0.6607 -0.3200
  122OSM   H15A12862   2.803   5.728   6.119 -0.1379  0.3519 -0.4474
  122OSM   H15B12863   2.683   5.689   6.257 -0.9208  0.7589 -0.7000
  122OSM   H15C12864   2.658   5.663   6.096 -0.9654  2.2994  0.4105
  122OSM    C1412865   2.842   5.462   6.057 -0.0820 -0.3308 -0.5364
  122OSM   H14A12866   2.751   5.444   6.002 -2.1702  1.5721  2.1706
  122OSM   H14B12867   2.897   5.372   6.078  0.1756 -0.0995 -0.2038
  122OSM   H14C12868   2.911   5.524   6.000  1.3904 -0.8338  0.6750
  122OSM    C1312869   2.930   5.548   6.268 -0.1237  0.6176  0.2993
  122OSM   H13A12870   2.980   5.453   6.258  1.3597  1.4866 -1.0050
  122OSM   H13B12871   2.894   5.570   6.367  0.2494  3.1780 -0.0885
  122OSM   H13C12872   2.990   5.628   6.226 -1.4208  1.1136 -0.6518
  122OSM    C1212873   2.711   5.429   6.263 -0.2071  0.2016  0.1297
  122OSM   H12A12874   2.621   5.425   6.204 -0.0085  1.8538 -0.3174
  122OSM   H12B12875   2.687   5.475   6.358  2.1293  1.3026  0.2225
  122OSM    C1112876   2.764   5.289   6.304  0.4344  0.3647 -0.1208
  122OSM   H11A12877   2.684   5.242   6.364  1.1893 -0.5179  0.2144
  122OSM   H11B12878   2.847   5.313   6.375  1.3260 -2.0505 -0.2763
  122OSM      P12879   2.711   5.131   6.100  0.1317 -0.2030 -0.0678
  122OSM    O1312880   2.626   5.228   6.023 -0.1069  0.0448 -0.0380
  122OSM    O1412881   2.786   5.035   6.010 -0.7174 -0.0944  0.1332
  122OSM    O1112882   2.620   5.055   6.204 -0.3398  0.0037 -0.1538
  122OSM    O1212883   2.814   5.211   6.192 -0.3438  0.2135  0.4759
  122OSM    C1S12884   2.670   4.955   6.290  0.0080 -0.1867  0.6774
  122OSM    H1S12885   2.777   4.929   6.283  0.0933  0.9250 -3.3155
  122OSM    H1T12886   2.618   4.863   6.255 -0.3206  0.4579 -0.5617
  122OSM     NF12887   2.658   4.841   6.509  0.6587  0.3614 -0.2386
  122OSM    HNF12888   2.583   4.784   6.542  0.1951  0.8002 -0.5220
  122OSM    C2S12889   2.634   4.971   6.447 -0.2918  0.9552 -0.5410
  122OSM    H2S12890   2.694   5.051   6.493  0.4923  0.3775 -0.5517
  122OSM    C3S12891   2.488   5.014   6.474 -0.3286 -0.0271  0.1812
  122OSM    H3S12892   2.423   4.931   6.440 -0.5111  0.0923  0.2358
  122OSM     O312893   2.444   5.123   6.396 -0.1971  0.1337 -0.0604
  122OSM    HO312894   2.505   5.132   6.323 -0.8462 -0.5359 -0.6899
  122OSM    C4S12895   2.457   5.046   6.625 -0.5084  0.1456  0.1695
  122OSM    H4S12896   2.416   4.954   6.667  0.3127 -0.7092 -0.8799
  122OSM    C5S12897   2.455   5.155   6.697  0.8530  0.4840  0.1641
  122OSM    H5S12898   2.475   5.255   6.657  0.2032  0.2264 -0.8224
  122OSM    C6S12899   2.421   5.152   6.844  0.5455  0.6250 -0.5129
  122OSM    H6S12900   2.313   5.129   6.858  0.8897  0.0277  1.2195
  122OSM    H6T12901   2.438   5.248   6.898  0.7218 -0.1495  0.8229
  122OSM    C7S12902   2.502   5.043   6.920 -0.1528  0.5242  0.0164
  122OSM    H7S12903   2.610   5.067   6.917 -0.0222  0.0237  0.5291
  122OSM    H7T12904   2.494   4.943   6.871  2.9293  0.1256  0.2416
  122OSM    C8S12905   2.460   5.014   7.066 -0.2902 -0.1898 -0.2492
  122OSM    H8S12906   2.501   4.917   7.101 -1.9068 -1.4134 -1.6335
  122OSM    H8T12907   2.349   5.002   7.067 -0.0240 -3.0785 -0.5190
  122OSM    C9S12908   2.488   5.123   7.165  0.1533 -0.1128  0.0795
  122OSM    H9S12909   2.412   5.202   7.150  1.4444  1.3938  1.2388
  122OSM    H9T12910   2.592   5.161   7.154 -0.4704  1.6223  0.1301
  122OSM   C10S12911   2.459   5.080   7.309 -0.0023 -0.1427 -0.6171
  122OSM   H10S12912   2.523   4.990   7.327  0.5610  0.3680 -0.0563
  122OSM   H10T12913   2.359   5.035   7.325  0.7673 -1.7558 -0.1479
  122OSM   C11S12914   2.483   5.176   7.427 -0.3372 -0.0684  0.2571
  122OSM   H11S12915   2.428   5.273   7.426  0.1871  0.2356  0.5146
  122OSM   H11T12916   2.586   5.212   7.408 -0.0331 -0.9669  0.1995
  122OSM   C12S12917   2.457   5.104   7.567  0.2117  0.3071  0.6838
  122OSM   H12S12918   2.359   5.053   7.555 -0.0446  0.9252  0.0443
  122OSM   H12T12919   2.448   5.187   7.641  0.6146  0.4795  0.5410
  122OSM   C13S12920   2.576   5.022   7.613 -0.4652 -0.5982 -0.3998
  122OSM   H13S12921   2.673   5.076   7.603  0.4299 -2.3733 -1.6793
  122OSM   H13T12922   2.579   4.924   7.560 -0.2964  0.6124 -2.7045
  122OSM   C14S12923   2.574   4.985   7.758 -0.2729  0.4531  0.0948
  122OSM   H14S12924   2.474   4.941   7.777  0.3790 -1.0477  0.1271
  122OSM   H14T12925   2.597   5.068   7.828  0.7773 -0.5516  0.9672
  122OSM   C15S12926   2.679   4.872   7.799  0.5338 -0.0439 -0.3090
  122OSM   H15S12927   2.783   4.906   7.777  0.1580  0.7931 -0.8272
  122OSM   H15T12928   2.667   4.783   7.734 -1.6377  0.0402 -0.0602
  122OSM   C16S12929   2.655   4.811   7.938  0.2767 -0.3309  1.2201
  122OSM   H16S12930   2.750   4.761   7.965  0.2659 -1.5402 -0.8224
  122OSM   H16T12931   2.585   4.726   7.951 -1.1982  1.0233  2.1882
  122OSM   C17S12932   2.622   4.913   8.047 -0.2441 -1.1481 -0.4279
  122OSM   H17S12933   2.669   5.011   8.027  1.2984 -1.8568 -0.3713
  122OSM   H17T12934   2.661   4.867   8.141 -0.3412 -0.7676 -0.2018
  122OSM   C18S12935   2.476   4.954   8.076 -0.2872  0.9442  0.4348
  122OSM   H18S12936   2.436   4.869   8.136  0.8415 -2.4285 -3.3976
  122OSM   H18T12937   2.423   4.967   7.980  1.3978 -0.9442 -0.7883
  122OSM   H18U12938   2.461   5.038   8.148 -2.3354  0.4931  0.5635
  122OSM    C1F12939   2.787   4.795   6.537 -0.2719  0.6837  0.3234
  122OSM     OF12940   2.884   4.859   6.496  0.3553  0.2594 -0.2174
  122OSM    C2F12941   2.808   4.672   6.607  0.7941 -0.1609 -0.0129
  122OSM    H2F12942   2.871   4.596   6.555 -0.0326  0.0230 -1.3209
  122OSM    H2G12943   2.712   4.619   6.631  1.1621 -1.3730 -1.1281
  122OSM    C3F12944   2.880   4.697   6.741  0.1943  0.0114  0.5000
  122OSM    H3F12945   2.966   4.768   6.741  0.4965 -0.3506 -0.5449
  122OSM    H3G12946   2.922   4.602   6.781  2.1375  0.8023  0.4041
  122OSM    C4F12947   2.794   4.762   6.849  0.1651  0.3264 -0.0950
  122OSM    H4F12948   2.702   4.703   6.870 -0.8663  1.6530 -0.8388
  122OSM    H4G12949   2.770   4.867   6.823  1.0523  0.4496 -0.4015
  122OSM    C5F12950   2.877   4.766   6.979 -0.2618 -0.2160 -0.6585
  122OSM    H5F12951   2.976   4.814   6.963 -1.1024  1.2472 -1.5722
  122OSM    H5G12952   2.912   4.668   7.017  1.9422  1.3301  1.3967
  122OSM    C6F12953   2.803   4.828   7.099  0.5315 -0.3410 -0.3615
  122OSM    H6F12954   2.700   4.787   7.108  0.8096 -1.0492 -0.3141
  122OSM    H6G12955   2.804   4.938   7.085  1.9209 -0.2815  0.0645
  122OSM    C7F12956   2.871   4.790   7.227  0.2504 -0.5164  0.1259
  122OSM    H7F12957   2.981   4.783   7.217 -0.1227 -4.2281 -2.7277
  122OSM    H7G12958   2.844   4.682   7.238  0.2095 -0.2232  3.5350
  122OSM    C8F12959   2.822   4.875   7.344 -0.0356  0.3892  0.6064
  122OSM    H8F12960   2.712   4.861   7.354  0.3269 -3.5035  0.0503
  122OSM    H8G12961   2.842   4.983   7.325 -0.5096  0.8456  2.5921
  122OSM    C9F12962   2.895   4.836   7.477 -0.5376 -0.7376  0.0464
  122OSM    H9F12963   2.839   4.765   7.539  0.7462 -1.8487 -0.0578
  122OSM   C10F12964   3.014   4.884   7.521  1.1208 -0.3826  0.2251
  122OSM   H10F12965   3.047   4.852   7.621  0.6046  1.8920  1.1545
  122OSM   C11F12966   3.101   4.981   7.443 -0.6002  0.1067 -0.0509
  122OSM   H11F12967   3.093   5.079   7.494 -0.0280  0.8296 -1.3245
  122OSM   H11G12968   3.070   4.989   7.336 -0.2496 -0.0942 -0.1696
  122OSM   C12F12969   3.247   4.926   7.459  0.2814 -0.8017  0.4894
  122OSM   H12F12970   3.243   4.815   7.465 -1.6103 -0.7753  0.1844
  122OSM   H12G12971   3.301   4.969   7.546  0.9669  0.1324 -0.3834
  122OSM   C13F12972   3.347   4.969   7.348  0.9728 -0.4211 -0.1281
  122OSM   H13F12973   3.444   4.930   7.386  0.5591 -0.7441  0.6151
  122OSM   H13G12974   3.360   5.079   7.352 -3.3242  0.1578  0.4636
  122OSM   C14F12975   3.319   4.912   7.212 -0.1657 -0.8105  0.4466
  122OSM   H14F12976   3.243   4.977   7.163 -0.1662 -1.3167 -0.2286
  122OSM   H14G12977   3.273   4.811   7.212 -1.5208 -0.2139 -0.0397
  122OSM   C15F12978   3.438   4.935   7.116  0.2404 -0.0688 -0.0270
  122OSM   H15F12979   3.516   4.859   7.137 -0.1216 -0.3937  0.1409
  122OSM   H15G12980   3.483   5.031   7.152  0.7849  0.2044 -1.4038
  122OSM   C16F12981   3.393   4.946   6.971  0.5236  0.3440  0.2715
  122OSM   H16F12982   3.481   4.967   6.906 -1.5572  1.0867 -2.3787
  122OSM   H16G12983   3.323   5.031   6.963 -1.3407 -1.2098 -0.4139
  122OSM   C17F12984   3.335   4.810   6.907 -0.0249 -0.6551  0.2821
  122OSM   H17F12985   3.281   4.761   6.991  1.7733 -2.7710  0.2373
  122OSM   H17G12986   3.416   4.741   6.877 -0.8356 -1.1837 -0.7174
  122OSM   C18F12987   3.238   4.830   6.788 -0.6962  0.2915 -0.2567
  122OSM   H18F12988   3.298   4.898   6.723  1.8249 -1.9604 -0.3811
  122OSM   H18G12989   3.145   4.888   6.807  0.3719  1.2727  2.1702
  122OSM   H18H12990   3.217   4.732   6.741 -0.3631  0.6459 -1.1700
  123OSM      N12991   1.126   0.298   6.114 -0.2875  0.5362 -0.4567
  123OSM    C1512992   1.267   0.330   6.068  0.0190 -0.2364 -0.2712
  123OSM   H15A12993   1.281   0.337   5.961  1.0219 -1.9056 -0.2620
  123OSM   H15B12994   1.328   0.248   6.102 -0.0219 -0.3040 -0.3576
  123OSM   H15C12995   1.307   0.419   6.113  0.7792 -0.1958 -1.0061
  123OSM    C1412996   1.034   0.385   6.031 -0.3405  0.7490 -0.2900
  123OSM   H14A12997   1.067   0.387   5.928 -0.2417 -1.0136 -0.3107
  123OSM   H14B12998   1.043   0.488   6.065  0.6351  0.4471  0.4071
  123OSM   H14C12999   0.934   0.346   6.028  0.5930 -1.8192  0.5263
  123OSM    C1313000   1.080   0.156   6.090 -0.6565 -0.8055  0.6583
  123OSM   H13A13001   1.159   0.088   6.121  0.7689 -0.0910 -1.2940
  123OSM   H13B13002   1.070   0.144   5.983  0.4075  0.9967  0.3437
  123OSM   H13C13003   0.989   0.134   6.144 -2.0623 -2.0101 -2.0686
  123OSM    C1213004   1.108   0.322   6.263 -0.2544  0.4249 -0.0177
  123OSM   H12A13005   1.001   0.326   6.278 -0.3371 -0.1779 -0.4380
  123OSM   H12B13006   1.144   0.421   6.288 -0.3146  0.5747 -0.5166
  123OSM    C1113007   1.180   0.231   6.364  0.3826 -0.2717 -0.0239
  123OSM   H11A13008   1.147   0.125   6.351 -3.4624  1.0929 -2.4375
  123OSM   H11B13009   1.156   0.257   6.469  1.5280 -0.6883  0.3433
  123OSM      P13010   1.416   0.344   6.380  0.5201 -0.4115  0.5675
  123OSM    O1313011   1.550   0.302   6.342  0.3902 -0.0571  0.2774
  123OSM    O1413012   1.379   0.471   6.315  1.0010 -0.2456 -0.4630
  123OSM    O1113013   1.399   0.354   6.536 -0.2823  0.1084  0.4589
  123OSM    O1213014   1.319   0.237   6.335  0.7131 -0.6016 -0.3378
  123OSM    C1S13015   1.425   0.245   6.622  0.2314  0.4509  0.5269
  123OSM    H1S13016   1.526   0.205   6.602 -0.9660 -0.9916 -2.9289
  123OSM    H1T13017   1.369   0.158   6.583 -0.1578 -0.0304  2.1377
  123OSM     NF13018   1.509   0.191   6.850  0.3188 -0.2873 -0.4097
  123OSM    HNF13019   1.474   0.110   6.896 -0.8069  0.1514 -0.4813
  123OSM    C2S13020   1.412   0.279   6.779 -0.5419 -0.0786  0.4751
  123OSM    H2S13021   1.430   0.386   6.799  0.2259  0.4163 -2.6354
  123OSM    C3S13022   1.262   0.256   6.812 -0.2948 -0.4549 -0.7720
  123OSM    H3S13023   1.237   0.149   6.797 -0.1574 -0.6373  0.2724
  123OSM     O313024   1.171   0.341   6.735  0.1364  0.4264  0.7741
  123OSM    HO313025   1.239   0.379   6.679 -1.3332 -0.9357 -1.9976
  123OSM    C4S13026   1.255   0.280   6.961  0.6308 -0.0753 -0.2336
  123OSM    H4S13027   1.298   0.191   7.010  0.3656 -0.0519  0.0442
  123OSM    C5S13028   1.204   0.386   7.026 -0.1651  0.8416 -0.4596
  123OSM    H5S13029   1.159   0.461   6.960 -1.9920 -0.7003 -1.0206
  123OSM    C6S13030   1.201   0.408   7.180  0.8136  0.0707  0.1282
  123OSM    H6S13031   1.096   0.411   7.218  0.5790 -0.3992 -0.4581
  123OSM    H6T13032   1.237   0.505   7.219 -0.2883  0.7589 -0.5349
  123OSM    C7S13033   1.265   0.295   7.269  0.5782  0.0718  0.0055
  123OSM    H7S13034   1.352   0.247   7.220 -0.3236 -2.2514  0.6080
  123OSM    H7T13035   1.187   0.217   7.277 -0.4844  0.9699 -1.2836
  123OSM    C8S13036   1.296   0.336   7.418 -0.0756  0.5731  0.4620
  123OSM    H8S13037   1.202   0.353   7.475  0.2566  0.1442  1.1262
  123OSM    H8T13038   1.357   0.429   7.425 -0.1016  0.4734  2.0617
  123OSM    C9S13039   1.361   0.225   7.514  0.0872  0.0554 -0.2237
  123OSM    H9S13040   1.472   0.234   7.510  0.0084  1.1180 -0.1534
  123OSM    H9T13041   1.326   0.132   7.465 -0.0984  0.4314 -0.8129
  123OSM   C10S13042   1.304   0.240   7.661  0.5985  0.0555  0.1176
  123OSM   H10S13043   1.347   0.157   7.721 -1.8948 -0.8328  0.7443
  123OSM   H10T13044   1.196   0.215   7.655  0.8470 -1.0371  0.1059
  123OSM   C11S13045   1.341   0.376   7.716  1.1416  0.2138  0.6042
  123OSM   H11S13046   1.278   0.443   7.655  4.4641  4.0567  1.2187
  123OSM   H11T13047   1.447   0.407   7.703  1.3098 -1.0270 -1.0993
  123OSM   C12S13048   1.301   0.386   7.865 -0.1912 -0.0690 -0.4821
  123OSM   H12S13049   1.196   0.354   7.881 -1.1129  2.7177 -0.6970
  123OSM   H12T13050   1.322   0.486   7.909  1.1635 -1.6557  2.6891
  123OSM   C13S13051   1.395   0.298   7.950 -0.1772  0.5865  0.1085
  123OSM   H13S13052   1.501   0.311   7.916 -0.5203  0.8121 -0.8987
  123OSM   H13T13053   1.377   0.191   7.926  1.6120  0.0871  0.8900
  123OSM   C14S13054   1.377   0.316   8.105 -0.4235 -0.3643 -0.6565
  123OSM   H14S13055   1.445   0.244   8.156  0.1080 -1.8617 -3.4298
  123OSM   H14T13056   1.277   0.277   8.136 -0.4383  1.3357  1.6207
  123OSM   C15S13057   1.391   0.453   8.168  0.3466 -0.9117 -0.7718
  123OSM   H15S13058   1.314   0.525   8.133  0.4180 -0.9500 -1.0050
  123OSM   H15T13059   1.487   0.505   8.155 -1.2514  2.6078  0.9574
  123OSM   C16S13060   1.365   0.434   8.317 -0.2757 -0.1843  0.9178
  123OSM   H16S13061   1.429   0.348   8.345 -2.7638 -0.8797  5.0967
  123OSM   H16T13062   1.261   0.397   8.333 -0.5082  0.2436  0.4004
  123OSM   C17S13063   1.368   0.568   8.393  0.0053 -0.0053  0.2610
  123OSM   H17S13064   1.347   0.545   8.500  0.7802 -2.3283 -0.0634
  123OSM   H17T13065   1.280   0.628   8.361 -1.1740 -0.7325  2.0782
  123OSM   C18S13066   1.489   0.650   8.380 -0.1317 -0.4463 -0.2684
  123OSM   H18S13067   1.575   0.589   8.414  0.3454 -0.1101 -0.8608
  123OSM   H18T13068   1.478   0.743   8.440 -0.1861 -1.0682  0.7151
  123OSM   H18U13069   1.509   0.696   8.281 -0.7863 -1.2412 -0.7809
  123OSM    C1F13070   1.639   0.200   6.847  0.0243 -0.0976 -0.6537
  123OSM     OF13071   1.689   0.299   6.798 -0.4067 -0.2950  0.4132
  123OSM    C2F13072   1.705   0.085   6.914  0.2760  0.2260  1.0433
  123OSM    H2F13073   1.702   0.001   6.842 -0.7843 -0.8409  2.3080
  123OSM    H2G13074   1.659   0.057   7.012  0.4511  0.7170  1.2700
  123OSM    C3F13075   1.856   0.110   6.939 -0.0874  0.7182 -0.7137
  123OSM    H3F13076   1.912   0.143   6.849  0.4709  2.6011  0.3076
  123OSM    H3G13077   1.908   0.020   6.978 -0.6425 -0.3965 -2.4728
  123OSM    C4F13078   1.878   0.219   7.042 -0.6947 -0.7367 -0.7477
  123OSM    H4F13079   1.828   0.311   7.006 -0.6996 -0.2585  0.4546
  123OSM    H4G13080   1.983   0.250   7.058 -0.4570 -0.7832 -2.1852
  123OSM    C5F13081   1.825   0.180   7.178  0.5474  0.5642  0.0224
  123OSM    H5F13082   1.872   0.085   7.209 -0.7869 -0.0591  0.1654
  123OSM    H5G13083   1.714   0.173   7.176  0.5035  1.2524 -0.0860
  123OSM    C6F13084   1.857   0.286   7.294  0.2788 -0.1853 -0.1017
  123OSM    H6F13085   1.834   0.381   7.242 -2.5751 -1.7837 -1.9137
  123OSM    H6G13086   1.967   0.289   7.308  0.5625 -3.0632 -1.3944
  123OSM    C7F13087   1.766   0.279   7.415 -0.1615 -0.8611  0.7660
  123OSM    H7F13088   1.755   0.176   7.455  1.0816 -0.8232  1.2367
  123OSM    H7G13089   1.665   0.312   7.382  0.4232 -0.8152 -1.0779
  123OSM    C8F13090   1.807   0.376   7.518 -0.5512 -0.4763 -0.3094
  123OSM    H8F13091   1.724   0.401   7.587  0.1714  0.7620  0.1248
  123OSM    H8G13092   1.829   0.473   7.469  2.1907  0.2084  2.1909
  123OSM    C9F13093   1.919   0.331   7.606  0.1070  0.2102 -0.4679
  123OSM    H9F13094   1.999   0.294   7.540  0.3112  3.3774 -2.0608
  123OSM   C10F13095   1.935   0.339   7.744  0.5337 -0.5013 -0.0919
  123OSM   H10F13096   2.026   0.294   7.788  1.2708 -1.2487 -2.2641
  123OSM   C11F13097   1.830   0.401   7.840 -0.2934  0.8366  0.2822
  123OSM   H11F13098   1.733   0.348   7.833  0.2870 -0.2964  0.6144
  123OSM   H11G13099   1.810   0.505   7.808 -0.4768  1.5098  2.5320
  123OSM   C12F13100   1.887   0.409   7.983  0.5992 -0.5074  0.0538
  123OSM   H12F13101   1.988   0.455   7.995 -0.2054  0.8633  1.8165
  123OSM   H12G13102   1.891   0.302   8.014 -1.7502  0.0228  2.3675
  123OSM   C13F13103   1.792   0.492   8.076  0.1959 -0.0009 -0.4142
  123OSM   H13F13104   1.786   0.443   8.175 -2.1698 -0.5654 -0.7994
  123OSM   H13G13105   1.689   0.496   8.034 -0.4994 -0.3126  1.2501
  123OSM   C14F13106   1.834   0.641   8.097  0.1736 -0.8093 -0.9536
  123OSM   H14F13107   1.746   0.691   8.143  1.2004 -0.5078  0.7193
  123OSM   H14G13108   1.858   0.691   8.000 -2.0534 -2.0221 -2.1708
  123OSM   C15F13109   1.951   0.657   8.193 -0.0258 -0.1104  0.1008
  123OSM   H15F13110   2.035   0.606   8.143  0.8303 -0.6421  2.0411
  123OSM   H15G13111   1.934   0.613   8.293  1.3996  0.5231  0.6396
  123OSM   C16F13112   1.999   0.804   8.211  0.1711 -0.6858  0.2440
  123OSM   H16F13113   2.022   0.854   8.115 -1.8301  0.0094  0.1090
  123OSM   H16G13114   2.091   0.796   8.274  1.8568  1.3534 -1.8691
  123OSM   C17F13115   1.897   0.882   8.286 -0.3907 -0.1782 -0.6091
  123OSM   H17F13116   1.842   0.825   8.365 -2.1654  0.0822 -1.6276
  123OSM   H17G13117   1.826   0.908   8.205 -1.5870  1.9912  1.0568
  123OSM   C18F13118   1.957   1.004   8.353 -0.1096  0.5695 -0.1458
  123OSM   H18F13119   1.878   1.078   8.378 -0.1381  0.0510  1.3673
  123OSM   H18G13120   2.026   1.056   8.283  0.6835 -1.8947 -1.2441
  123OSM   H18H13121   1.997   0.978   8.453 -0.7262  1.8275  0.4327
  124OSM      N13122   1.506   3.145   6.089  0.0784 -0.3687  0.4634
  124OSM    C1513123   1.578   3.223   5.985  0.1576 -0.2213 -0.1665
  124OSM   H15A13124   1.664   3.272   6.028 -1.5924  0.2319  2.9768
  124OSM   H15B13125   1.519   3.301   5.938  0.5606 -0.5443 -1.2050
  124OSM   H15C13126   1.617   3.149   5.918 -0.0164  1.2477 -1.9083
  124OSM    C1413127   1.418   3.247   6.160 -0.3880  0.2647 -0.2388
  124OSM   H14A13128   1.355   3.295   6.086 -0.0714  0.8013 -0.1648
  124OSM   H14B13129   1.481   3.329   6.194  1.5743 -1.6661  0.9032
  124OSM   H14C13130   1.369   3.195   6.240 -0.6567 -2.9267 -2.4060
  124OSM    C1313131   1.415   3.048   6.012 -0.5422  0.0629  0.0139
  124OSM   H13A13132   1.359   2.981   6.074 -3.3311  2.1418 -0.1370
  124OSM   H13B13133   1.479   2.978   5.960 -0.7746 -0.0067 -0.1787
  124OSM   H13C13134   1.346   3.104   5.950 -0.4087  1.4021  1.0435
  124OSM    C1213135   1.596   3.074   6.180 -0.2411 -0.1586  0.0486
  124OSM   H12A13136   1.663   3.019   6.116 -0.5326 -1.3270  0.7446
  124OSM   H12B13137   1.542   3.006   6.243  0.1336  0.5077  1.1145
  124OSM    C1113138   1.699   3.154   6.270  0.5072 -0.2057  0.1598
  124OSM   H11A13139   1.739   3.083   6.346  0.6577  2.2091  2.3912
  124OSM   H11B13140   1.640   3.230   6.325  0.6847  0.8645 -1.0934
  124OSM      P13141   1.924   3.143   6.128  0.3157  0.1658 -0.2868
  124OSM    O1313142   1.895   3.001   6.094  0.0422 -0.2883 -0.1869
  124OSM    O1413143   1.983   3.225   6.023 -0.6895  0.6398 -0.0448
  124OSM    O1113144   2.031   3.144   6.243 -0.2688  0.1249 -0.0407
  124OSM    O1213145   1.804   3.209   6.194 -0.2169  0.6235  0.1992
  124OSM    C1S13146   2.059   3.252   6.328  0.2648  0.2832 -0.7304
  124OSM    H1S13147   2.001   3.345   6.310  2.6376  2.3712  1.9102
  124OSM    H1T13148   2.165   3.280   6.308  0.5869 -0.4588 -0.0638
  124OSM     NF13149   2.114   3.328   6.551 -0.0993  0.0377  0.2467
  124OSM    HNF13150   2.211   3.337   6.571  0.2169  0.0635 -1.2133
  124OSM    C2S13151   2.065   3.208   6.476  0.4041 -0.2220  0.5567
  124OSM    H2S13152   1.961   3.186   6.511  0.6552  0.5522  1.8201
  124OSM    C3S13153   2.143   3.074   6.510  0.3228 -0.2872 -0.2502
  124OSM    H3S13154   2.249   3.096   6.484  0.1333  0.9104 -0.0126
  124OSM     O313155   2.085   2.965   6.434  0.4901  0.2728 -0.0101
  124OSM    HO313156   2.065   3.002   6.347 -2.1320 -1.1093 -0.0634
  124OSM    C4S13157   2.136   3.045   6.656  0.0621  0.4822 -0.9547
  124OSM    H4S13158   2.219   3.082   6.718 -1.2964 -0.4373  1.5100
  124OSM    C5S13159   2.036   2.982   6.723 -0.3411 -0.1582 -0.1458
  124OSM    H5S13160   1.942   2.967   6.668 -0.2557 -3.5245  0.5545
  124OSM    C6S13161   2.026   2.957   6.870 -0.5432  0.8831 -1.0535
  124OSM    H6S13162   2.047   2.849   6.887 -3.5877  0.3257 -0.4569
  124OSM    H6T13163   1.918   2.958   6.896  0.1518 -0.8932  2.1759
  124OSM    C7S13164   2.099   3.040   6.981 -0.4335  0.7515  0.8196
  124OSM    H7S13165   2.055   3.142   6.986 -0.2142  0.7772  3.0096
  124OSM    H7T13166   2.208   3.050   6.962 -0.5607 -1.2989 -1.2038
  124OSM    C8S13167   2.073   2.972   7.118  0.2589 -0.0029  0.0257
  124OSM    H8S13168   2.124   2.873   7.109 -0.0361  0.0910 -3.2472
  124OSM    H8T13169   1.965   2.959   7.144  0.9190 -2.8872  1.6436
  124OSM    C9S13170   2.148   3.029   7.244  0.0187  0.5501  0.2308
  124OSM    H9S13171   2.123   3.137   7.246 -0.5599  0.4748 -1.5599
  124OSM    H9T13172   2.258   3.022   7.234 -0.0042  0.8779 -0.2302
  124OSM   C10S13173   2.095   2.955   7.371  0.1785 -0.6560 -0.3667
  124OSM   H10S13174   2.115   2.849   7.347 -1.0815 -1.1455  0.7199
  124OSM   H10T13175   1.985   2.957   7.383 -0.0366 -2.6821 -1.9180
  124OSM   C11S13176   2.161   3.002   7.501  0.3212  1.1885 -0.0315
  124OSM   H11S13177   2.150   3.112   7.504  0.0216  1.1156  1.8752
  124OSM   H11T13178   2.267   2.969   7.496  1.3503  4.5428 -1.2607
  124OSM   C12S13179   2.096   2.936   7.621  0.2020 -0.4586 -0.2931
  124OSM   H12S13180   2.123   2.829   7.634 -0.1183 -0.1477  3.4957
  124OSM   H12T13181   1.985   2.933   7.612  0.1284 -1.0779  0.7225
  124OSM   C13S13182   2.130   2.997   7.756 -0.1520 -0.1084  0.3213
  124OSM   H13S13183   2.091   3.101   7.757  1.5460  0.5397  2.0674
  124OSM   H13T13184   2.240   3.000   7.773 -0.1189 -1.3028  0.3867
  124OSM   C14S13185   2.070   2.920   7.879  0.1727  0.4627 -1.0480
  124OSM   H14S13186   2.098   2.812   7.884 -0.1227  0.3171 -2.2708
  124OSM   H14T13187   1.959   2.916   7.874 -0.0311  0.9462  2.3206
  124OSM   C15S13188   2.106   2.983   8.014  0.4098 -0.7024  0.3039
  124OSM   H15S13189   2.059   3.080   8.041 -4.1460 -2.5540 -0.5690
  124OSM   H15T13190   2.216   2.998   8.023  0.3337 -0.0221  0.1743
  124OSM   C16S13191   2.073   2.882   8.122 -0.2832 -0.0641  0.0201
  124OSM   H16S13192   2.137   2.902   8.210  1.0555 -0.9898 -0.7232
  124OSM   H16T13193   2.090   2.776   8.095 -0.9267 -0.7950  2.3435
  124OSM   C17S13194   1.932   2.886   8.168 -0.2485  0.5136 -0.5725
  124OSM   H17S13195   1.911   2.808   8.245  2.7907 -1.3060 -1.4851
  124OSM   H17T13196   1.865   2.872   8.080  0.9575 -0.6683 -1.3356
  124OSM   C18S13197   1.876   3.013   8.224 -0.4662 -0.0691 -0.3568
  124OSM   H18S13198   1.882   3.091   8.145  0.4436 -2.9940 -3.3209
  124OSM   H18T13199   1.942   3.053   8.304 -0.2001  1.6184 -1.4102
  124OSM   H18U13200   1.771   3.005   8.258 -0.2562  0.6299  0.4666
  124OSM    C1F13201   2.046   3.436   6.560  0.0591 -0.2108 -0.3723
  124OSM     OF13202   1.921   3.436   6.566  0.0772 -0.1117 -0.3107
  124OSM    C2F13203   2.128   3.563   6.580  0.0516 -0.4563  0.1125
  124OSM    H2F13204   2.185   3.573   6.485  2.6119  1.0676  1.7542
  124OSM    H2G13205   2.200   3.557   6.665  0.8834 -3.3325 -0.7321
  124OSM    C3F13206   2.039   3.687   6.604  0.1623  0.6461  0.3010
  124OSM    H3F13207   1.971   3.670   6.690  0.1827 -2.1236 -0.2058
  124OSM    H3G13208   1.973   3.704   6.516  0.4858  2.2013  0.3463
  124OSM    C4F13209   2.123   3.808   6.642 -0.4201 -0.3361  0.3124
  124OSM    H4F13210   2.156   3.861   6.551  0.2908 -2.3108 -0.6240
  124OSM    H4G13211   2.211   3.763   6.692 -0.7114 -1.1776  0.0860
  124OSM    C5F13212   2.051   3.909   6.736  0.0422  0.0350  0.6540
  124OSM    H5F13213   1.967   3.959   6.683  2.6881  2.2822 -1.5571
  124OSM    H5G13214   2.128   3.987   6.754  0.1131 -0.1075  0.9614
  124OSM    C6F13215   2.010   3.858   6.877 -0.4814 -0.0385 -0.0912
  124OSM    H6F13216   2.107   3.839   6.929  0.7163 -1.2469 -2.6550
  124OSM    H6G13217   1.955   3.761   6.868 -1.0308  0.3323 -0.7823
  124OSM    C7F13218   1.940   3.967   6.962 -0.2664  0.3486  0.1111
  124OSM    H7F13219   1.844   3.991   6.911  0.4070 -0.6799 -1.7230
  124OSM    H7G13220   1.997   4.060   6.943  0.6092  0.0949  1.4328
  124OSM    C8F13221   1.945   3.947   7.119  0.0719  0.1128  0.6191
  124OSM    H8F13222   1.924   4.045   7.167 -0.1611  0.6463 -0.5696
  124OSM    H8G13223   2.051   3.924   7.144 -0.5282  0.5334  3.7976
  124OSM    C9F13224   1.836   3.845   7.158  0.4380 -0.2776  0.5169
  124OSM    H9F13225   1.737   3.877   7.122  0.0126 -0.7133  1.2904
  124OSM   C10F13226   1.854   3.737   7.235 -0.2031  0.1176 -0.0479
  124OSM   H10F13227   1.766   3.677   7.262  0.1433  0.0854  1.0286
  124OSM   C11F13228   1.988   3.686   7.279  0.8445 -0.4106 -0.4075
  124OSM   H11F13229   2.070   3.730   7.219  0.3554  1.0972  0.0192
  124OSM   H11G13230   1.975   3.577   7.262 -2.5128  0.1400 -1.8232
  124OSM   C12F13231   2.016   3.722   7.420  0.2381  0.3719  0.4898
  124OSM   H12F13232   1.997   3.830   7.437 -2.1480 -0.3197  2.5247
  124OSM   H12G13233   2.123   3.698   7.439 -0.2703 -3.3326 -1.0215
  124OSM   C13F13234   1.924   3.634   7.509  0.3540 -0.0987 -0.1073
  124OSM   H13F13235   1.995   3.553   7.538  1.3019  0.8382  0.1945
  124OSM   H13G13236   1.841   3.580   7.457 -0.4851  1.1608 -0.1041
  124OSM   C14F13237   1.859   3.713   7.629  0.7886 -0.0044  0.4386
  124OSM   H14F13238   1.793   3.782   7.572  2.3382  1.9600  0.9861
  124OSM   H14G13239   1.930   3.765   7.697  2.2781  0.2467 -1.2650
  124OSM   C15F13240   1.752   3.631   7.706 -0.0923  0.1089 -0.1438
  124OSM   H15F13241   1.808   3.545   7.749  1.3823  0.3078 -1.6101
  124OSM   H15G13242   1.701   3.588   7.617 -2.4492  1.3134  0.5868
  124OSM   C16F13243   1.670   3.708   7.815  0.4342 -0.0302  0.0743
  124OSM   H16F13244   1.563   3.722   7.791  0.5361  1.6840  0.5820
  124OSM   H16G13245   1.710   3.811   7.826 -1.7949  0.9066 -0.2846
  124OSM   C17F13246   1.680   3.633   7.943 -0.6685  0.1375 -0.0436
  124OSM   H17F13247   1.788   3.615   7.965  0.1125  1.1157 -2.8560
  124OSM   H17G13248   1.629   3.535   7.932 -0.3820  0.1139 -1.2830
  124OSM   C18F13249   1.617   3.703   8.064  0.7169 -0.5845  1.1076
  124OSM   H18F13250   1.667   3.799   8.087 -2.6089  0.9618  2.0975
  124OSM   H18G13251   1.610   3.644   8.158  0.9036 -1.8402  0.3549
  124OSM   H18H13252   1.512   3.720   8.032  1.0390 -2.1196 -0.8434
  125OSM      N13253   4.696   2.542   6.089  0.0142  0.0168 -0.3072
  125OSM    C1513254   4.561   2.585   6.113  0.3266 -0.0627 -0.2387
  125OSM   H15A13255   4.536   2.572   6.217 -1.2077 -0.9399 -0.6922
  125OSM   H15B13256   4.482   2.536   6.058 -1.0908 -0.8087  2.3886
  125OSM   H15C13257   4.560   2.693   6.109  2.6552  0.0647  1.5938
  125OSM    C1413258   4.734   2.585   5.953 -0.5158 -0.2292 -0.4437
  125OSM   H14A13259   4.688   2.519   5.882  0.0301 -1.7002  0.5447
  125OSM   H14B13260   4.841   2.589   5.943 -0.6241 -0.7032 -1.9169
  125OSM   H14C13261   4.699   2.685   5.932  0.1912  0.1738  0.2799
  125OSM    C1313262   4.789   2.608   6.194  0.2450 -0.6912 -0.4105
  125OSM   H13A13263   4.895   2.593   6.178  0.7588  2.2737 -0.1003
  125OSM   H13B13264   4.755   2.569   6.289  0.5144  0.3426  0.1196
  125OSM   H13C13265   4.773   2.714   6.203  4.1405  0.0615 -1.3306
  125OSM    C1213266   4.713   2.387   6.082  0.4143  0.1293 -0.4314
  125OSM   H12A13267   4.810   2.375   6.035 -0.1931 -0.8863 -1.4382
  125OSM   H12B13268   4.651   2.332   6.013  0.1626  1.9485 -1.7007
  125OSM    C1113269   4.713   2.309   6.206  0.2050  0.0269  0.1424
  125OSM   H11A13270   4.608   2.288   6.235 -0.4725 -1.1430 -2.9995
  125OSM   H11B13271   4.763   2.357   6.293  0.8064 -0.7219  0.2252
  125OSM      P13272   4.915   2.136   6.229 -0.0621  0.2216 -0.1827
  125OSM    O1313273   4.921   1.989   6.254  0.7274 -0.1519  0.1057
  125OSM    O1413274   5.017   2.188   6.134  0.1893  0.4276 -0.1115
  125OSM    O1113275   4.937   2.211   6.369 -0.0650  0.4561  0.0448
  125OSM    O1213276   4.769   2.179   6.178  0.5966  0.1893 -0.2363
  125OSM    C1S13277   4.881   2.172   6.485 -0.5185  0.1964  0.3617
  125OSM    H1S13278   4.919   2.070   6.506 -0.4043  0.6653  2.5724
  125OSM    H1T13279   4.770   2.166   6.478 -0.2655 -2.3269 -2.4356
  125OSM     NF13280   4.874   2.198   6.729  0.5380 -0.1200 -0.3972
  125OSM    HNF13281   4.791   2.233   6.772  1.0133  0.6563 -0.1022
  125OSM    C2S13282   4.921   2.254   6.605  0.2920 -0.2625  0.4188
  125OSM    H2S13283   5.032   2.256   6.606  0.4137 -1.5556 -2.7119
  125OSM    C3S13284   4.872   2.405   6.585 -0.0827 -0.0206 -0.3393
  125OSM    H3S13285   4.763   2.387   6.575  0.4934 -2.9991 -2.0518
  125OSM     O313286   4.918   2.460   6.467 -0.0257  0.1750  0.0319
  125OSM    HO313287   4.950   2.385   6.417 -1.9336  1.1122 -2.7581
  125OSM    C4S13288   4.902   2.491   6.700  0.9902  0.2937 -0.5432
  125OSM    H4S13289   4.825   2.485   6.778  1.0336 -1.1608 -0.5910
  125OSM    C5S13290   5.001   2.577   6.728  0.0931 -0.3455 -0.0402
  125OSM    H5S13291   5.074   2.606   6.651 -0.6423  0.4283 -0.4669
  125OSM    C6S13292   5.028   2.655   6.858  0.7659  0.2003  0.2042
  125OSM    H6S13293   4.997   2.760   6.842  0.3320 -0.2646 -2.2024
  125OSM    H6T13294   5.139   2.654   6.872  0.7399  1.8239  0.6116
  125OSM    C7S13295   4.948   2.613   6.979 -0.4210 -0.6070 -0.2709
  125OSM    H7S13296   4.992   2.517   7.012  0.3673 -0.0432  0.3238
  125OSM    H7T13297   4.837   2.606   6.975 -0.4193 -0.8168  0.0658
  125OSM    C8S13298   4.973   2.711   7.091 -0.5231 -0.5041  0.1834
  125OSM    H8S13299   4.925   2.809   7.067  0.1562  0.3377  2.1493
  125OSM    H8T13300   5.082   2.720   7.106 -0.2415 -3.6745  0.2924
  125OSM    C9S13301   4.889   2.659   7.210 -0.7118  0.3736 -0.3562
  125OSM    H9S13302   4.921   2.555   7.234  0.6848  0.7385 -0.5861
  125OSM    H9T13303   4.783   2.673   7.180 -0.9225 -0.2275  0.0810
  125OSM   C10S13304   4.907   2.736   7.346 -0.1466 -0.4455 -0.6458
  125OSM   H10S13305   4.910   2.846   7.333 -1.1410 -0.3826 -0.3642
  125OSM   H10T13306   5.009   2.712   7.384 -0.4942  0.9517  1.2198
  125OSM   C11S13307   4.799   2.691   7.444  0.7642 -0.2627 -1.0001
  125OSM   H11S13308   4.811   2.581   7.453 -3.3886 -0.6280  1.1715
  125OSM   H11T13309   4.700   2.709   7.399  0.4357 -0.7778 -0.4916
  125OSM   C12S13310   4.807   2.763   7.588 -0.2136  0.7683 -0.4285
  125OSM   H12S13311   4.786   2.869   7.565 -0.9791  1.4332  3.1006
  125OSM   H12T13312   4.913   2.758   7.621 -1.1196 -0.3050  2.4142
  125OSM   C13S13313   4.727   2.699   7.707  0.7569 -0.3481 -0.1519
  125OSM   H13S13314   4.756   2.593   7.717  0.2497 -0.4677  0.0506
  125OSM   H13T13315   4.618   2.705   7.687  1.0081 -1.1275 -1.8686
  125OSM   C14S13316   4.768   2.765   7.835 -0.2091  0.3890  0.1099
  125OSM   H14S13317   4.726   2.867   7.845 -2.1910 -0.3017 -0.9634
  125OSM   H14T13318   4.879   2.761   7.844 -0.0702 -1.3771 -1.8847
  125OSM   C15S13319   4.716   2.681   7.957 -0.0294 -0.3724 -0.1576
  125OSM   H15S13320   4.791   2.665   8.037 -1.0907  0.3844  1.0345
  125OSM   H15T13321   4.666   2.591   7.916 -2.6333  1.4794 -1.1866
  125OSM   C16S13322   4.609   2.761   8.034  0.2667  0.3127 -0.6091
  125OSM   H16S13323   4.512   2.773   7.983 -2.4491  0.9883  4.3457
  125OSM   H16T13324   4.651   2.852   8.081  1.0814 -0.1345 -0.4396
  125OSM   C17S13325   4.566   2.681   8.164 -0.7120  0.0218  0.1689
  125OSM   H17S13326   4.652   2.657   8.229  1.1078  1.2236 -1.7326
  125OSM   H17T13327   4.518   2.585   8.133 -0.7031  1.1996 -3.8903
  125OSM   C18S13328   4.461   2.761   8.247  0.2089  0.0457 -0.0230
  125OSM   H18S13329   4.489   2.864   8.277 -3.0133  0.0646  3.3737
  125OSM   H18T13330   4.430   2.707   8.339  0.6710  0.8063  0.5948
  125OSM   H18U13331   4.370   2.769   8.184  0.8194  0.2286 -0.8889
  125OSM    C1F13332   4.923   2.091   6.784  0.0935 -0.2144  0.0227
  125OSM     OF13333   5.018   2.033   6.739  0.4451 -0.2735  0.0887
  125OSM    C2F13334   4.857   2.044   6.912 -0.0063 -0.4458  0.2580
  125OSM    H2F13335   4.748   2.060   6.899  0.3538  2.3430  0.3484
  125OSM    H2G13336   4.888   2.114   6.992 -0.4101  0.4550 -0.3663
  125OSM    C3F13337   4.885   1.901   6.951 -0.6701 -0.0847 -0.3464
  125OSM    H3F13338   4.992   1.876   6.965 -0.3752  0.6646 -1.2777
  125OSM    H3G13339   4.847   1.832   6.873 -0.7511  0.1724 -0.5345
  125OSM    C4F13340   4.806   1.852   7.067  0.0098  0.3082 -0.1081
  125OSM    H4F13341   4.823   1.743   7.080 -0.5402  0.3894  1.4405
  125OSM    H4G13342   4.700   1.858   7.032 -0.1012  3.7590  0.6644
  125OSM    C5F13343   4.840   1.914   7.207  0.1366  0.0580 -0.8237
  125OSM    H5F13344   4.824   2.023   7.196  0.3584  0.0299 -1.4328
  125OSM    H5G13345   4.950   1.903   7.211 -0.0769 -1.6964  2.3969
  125OSM    C6F13346   4.780   1.843   7.328  0.6141 -0.6011  1.0043
  125OSM    H6F13347   4.760   1.735   7.310  1.0996 -0.5275  0.0372
  125OSM    H6G13348   4.688   1.898   7.360  0.0506 -0.9469  0.0206
  125OSM    C7F13349   4.873   1.846   7.446 -0.2386 -0.0658 -0.4342
  125OSM    H7F13350   4.902   1.951   7.470 -3.4234  0.7552  0.0498
  125OSM    H7G13351   4.972   1.805   7.418 -0.6168 -1.6309  0.4369
  125OSM    C8F13352   4.815   1.776   7.576 -0.1509  0.0502 -0.6420
  125OSM    H8F13353   4.833   1.667   7.560  2.4637  0.5096 -0.9743
  125OSM    H8G13354   4.706   1.794   7.590  0.1442  2.0540 -0.8187
  125OSM    C9F13355   4.898   1.822   7.698 -0.4517  0.0354  0.5149
  125OSM    H9F13356   5.003   1.792   7.696 -0.7194 -0.9900  1.1654
  125OSM   C10F13357   4.857   1.910   7.789 -0.6863  1.2533 -0.0322
  125OSM   H10F13358   4.919   1.930   7.877 -0.9902 -3.0683  1.2362
  125OSM   C11F13359   4.726   1.985   7.810 -0.5837 -0.6414  0.5676
  125OSM   H11F13360   4.668   2.015   7.720  0.1923 -2.3495 -0.5309
  125OSM   H11G13361   4.760   2.083   7.849 -2.4083  0.1319  0.2449
  125OSM   C12F13362   4.624   1.909   7.900 -0.2520  0.2789 -0.4321
  125OSM   H12F13363   4.605   1.807   7.858 -1.4276  0.3683 -0.1360
  125OSM   H12G13364   4.532   1.969   7.886  0.5241  1.1650 -1.8673
  125OSM   C13F13365   4.663   1.903   8.043  0.2509 -0.3486 -0.4819
  125OSM   H13F13366   4.603   1.982   8.094 -1.1284 -2.2446  0.9519
  125OSM   H13G13367   4.770   1.926   8.062  0.5618 -2.7760  0.9411
  125OSM   C14F13368   4.647   1.763   8.107  0.8480  0.3462  0.8843
  125OSM   H14F13369   4.714   1.700   8.044  3.5744  1.7764  2.3022
  125OSM   H14G13370   4.541   1.729   8.106  1.0266 -0.2126  0.8293
  125OSM   C15F13371   4.682   1.765   8.259 -0.1939 -0.2405 -0.0168
  125OSM   H15F13372   4.591   1.798   8.313 -1.2773  1.4978 -2.7845
  125OSM   H15G13373   4.774   1.823   8.281 -0.1193 -0.9959  1.7471
  125OSM   C16F13374   4.718   1.629   8.315 -0.6180 -0.0564  0.1197
  125OSM   H16F13375   4.730   1.633   8.425 -1.2156 -1.3524  0.2513
  125OSM   H16G13376   4.804   1.584   8.260  0.1981  0.9010  0.6059
  125OSM   C17F13377   4.607   1.518   8.303  0.5868 -0.8937 -0.1607
  125OSM   H17F13378   4.606   1.504   8.192 -0.6218 -2.7509  0.0547
  125OSM   H17G13379   4.512   1.566   8.336 -0.2000 -0.8946 -2.3421
  125OSM   C18F13380   4.642   1.389   8.370 -0.3746  0.0713 -0.3262
  125OSM   H18F13381   4.751   1.366   8.367  0.0234  1.8085  0.3263
  125OSM   H18G13382   4.582   1.302   8.334  0.2808 -0.5787  0.1205
  125OSM   H18H13383   4.634   1.399   8.481 -3.9055 -2.8464 -0.1924
  126OSM      N13384   1.946   5.780   6.450 -0.5250 -0.1382  0.3627
  126OSM    C1513385   1.896   5.707   6.329  0.0468  0.0751 -0.3474
  126OSM   H15A13386   1.982   5.653   6.293  1.2644  1.2194  0.7813
  126OSM   H15B13387   1.855   5.772   6.253 -1.1296 -2.0477 -1.5811
  126OSM   H15C13388   1.815   5.639   6.351 -0.6346  0.5129 -1.4596
  126OSM    C1413389   2.005   5.689   6.554 -0.0079 -0.7040  0.8703
  126OSM   H14A13390   2.085   5.634   6.508 -1.2179 -0.8686 -1.0887
  126OSM   H14B13391   1.935   5.616   6.594 -0.1524  0.2885  2.4980
  126OSM   H14C13392   2.046   5.741   6.639 -0.3443 -0.6296  0.9899
  126OSM    C1313393   2.070   5.860   6.398  0.2040  0.5375 -0.4340
  126OSM   H13A13394   2.113   5.909   6.484 -0.2173 -1.6041  1.0558
  126OSM   H13B13395   2.045   5.938   6.328  1.9605  0.6622 -0.9294
  126OSM   H13C13396   2.149   5.800   6.356  0.4178  1.0656 -0.7896
  126OSM    C1213397   1.834   5.869   6.499 -0.4825 -0.5404  0.2125
  126OSM   H12A13398   1.738   5.822   6.516 -1.2211  0.4344 -1.2191
  126OSM   H12B13399   1.835   5.937   6.416  2.7307  0.2912  0.8404
  126OSM    C1113400   1.858   5.953   6.630 -0.4183  0.4596 -0.0731
  126OSM   H11A13401   1.855   5.885   6.718  1.5875  0.6939  0.2059
  126OSM   H11B13402   1.782   6.032   6.642 -1.8388 -0.9072  0.0342
  126OSM      P13403   2.008   6.166   6.643 -0.2851 -0.3615  0.4376
  126OSM    O1313404   2.144   6.200   6.689  0.4974 -0.2782 -0.6604
  126OSM    O1413405   1.969   6.230   6.519  0.1213  0.1741 -0.3562
  126OSM    O1113406   1.904   6.209   6.758 -0.6083  0.1595 -0.4545
  126OSM    O1213407   1.993   6.012   6.633  0.6977  0.4077 -0.0068
  126OSM    C1S13408   1.873   6.128   6.872  0.0144 -0.0140  0.7755
  126OSM    H1S13409   1.948   6.051   6.902 -0.3640  0.2657  2.5260
  126OSM    H1T13410   1.780   6.073   6.847  0.5076 -0.6194  0.2661
  126OSM     NF13411   1.844   6.150   7.120  0.0836  0.0112 -0.1171
  126OSM    HNF13412   1.773   6.168   7.187 -0.3572  4.5754 -1.6832
  126OSM    C2S13413   1.848   6.220   6.996 -0.2589  0.2487  0.1579
  126OSM    H2S13414   1.930   6.295   7.006 -1.1996  1.3008  0.1340
  126OSM    C3S13415   1.717   6.319   6.970 -0.3062  0.3557 -0.4521
  126OSM    H3S13416   1.623   6.277   7.011  1.6489 -3.8896 -0.1033
  126OSM     O313417   1.693   6.360   6.840  0.2397 -0.2251  0.1561
  126OSM    HO313418   1.753   6.311   6.783 -2.4084 -1.8789 -1.2820
  126OSM    C4S13419   1.733   6.449   7.048  0.0842  0.7084 -1.1379
  126OSM    H4S13420   1.814   6.516   7.017  1.2419  0.0602  0.3932
  126OSM    C5S13421   1.649   6.486   7.149  0.4668 -0.1167 -0.7794
  126OSM    H5S13422   1.574   6.417   7.192  2.0378 -1.0572  0.5179
  126OSM    C6S13423   1.681   6.614   7.226  0.4504 -0.6771  0.7664
  126OSM    H6S13424   1.593   6.681   7.216  0.0372 -1.2509  0.4678
  126OSM    H6T13425   1.765   6.670   7.181 -1.9358  1.0394 -1.7469
  126OSM    C7S13426   1.703   6.595   7.380  0.7939 -0.4314 -0.4882
  126OSM    H7S13427   1.790   6.531   7.406  1.3106 -0.5499 -2.4537
  126OSM    H7T13428   1.612   6.539   7.411  1.2272 -1.6741 -1.3961
  126OSM    C8S13429   1.701   6.731   7.465  0.6350  0.3581 -0.4656
  126OSM    H8S13430   1.625   6.801   7.424 -0.9670 -0.5691  0.8359
  126OSM    H8T13431   1.801   6.780   7.459 -0.2593  2.5105  1.5737
  126OSM    C9S13432   1.679   6.707   7.611  0.3370  0.2993 -0.2884
  126OSM    H9S13433   1.746   6.640   7.669  3.0682  2.7810 -0.4699
  126OSM    H9T13434   1.582   6.653   7.625  0.2016  0.6657  0.2022
  126OSM   C10S13435   1.661   6.830   7.690  0.6175 -1.1245 -0.4072
  126OSM   H10S13436   1.599   6.906   7.638  0.9897 -1.6796 -1.6814
  126OSM   H10T13437   1.762   6.872   7.709  0.3672 -0.0333 -1.4127
  126OSM   C11S13438   1.611   6.806   7.830 -0.2878 -0.2510  1.0483
  126OSM   H11S13439   1.528   6.733   7.844 -1.0216  0.4718  0.5090
  126OSM   H11T13440   1.572   6.902   7.871  2.2857  1.9297 -1.4289
  126OSM   C12S13441   1.733   6.760   7.926 -0.2113 -0.3097 -1.0157
  126OSM   H12S13442   1.827   6.798   7.880 -0.5078  2.9275  0.8753
  126OSM   H12T13443   1.741   6.649   7.919 -1.3122 -0.4389 -0.3600
  126OSM   C13S13444   1.725   6.800   8.074  0.6047 -0.6210 -0.0937
  126OSM   H13S13445   1.619   6.773   8.094  0.1354  0.6443 -0.8289
  126OSM   H13T13446   1.746   6.907   8.094  3.0350 -0.9936 -0.5191
  126OSM   C14S13447   1.822   6.713   8.165 -0.5224 -0.7250  0.2344
  126OSM   H14S13448   1.925   6.752   8.148 -0.3744 -1.4239 -0.5070
  126OSM   H14T13449   1.820   6.607   8.131 -1.2086 -0.5965 -0.1280
  126OSM   C15S13450   1.782   6.706   8.309  1.0948 -0.6863  0.2703
  126OSM   H15S13451   1.682   6.658   8.319  0.9060 -0.0967  1.2782
  126OSM   H15T13452   1.764   6.808   8.350  0.4189 -0.6067 -0.2003
  126OSM   C16S13453   1.882   6.632   8.385 -0.5419  0.0991  0.0807
  126OSM   H16S13454   1.982   6.675   8.365 -1.2752  1.3872 -0.8998
  126OSM   H16T13455   1.879   6.529   8.345 -2.9725 -0.3737  1.3553
  126OSM   C17S13456   1.858   6.625   8.531 -0.3046  0.5765 -0.1489
  126OSM   H17S13457   1.761   6.579   8.558 -0.2515  0.0250 -0.8884
  126OSM   H17T13458   1.846   6.733   8.556 -2.3162  0.2828  0.2328
  126OSM   C18S13459   1.972   6.566   8.615 -0.3900  0.4477 -0.3395
  126OSM   H18S13460   1.945   6.563   8.723  0.1494  0.4342 -0.2051
  126OSM   H18T13461   2.076   6.599   8.595 -0.2540  1.1773  1.4603
  126OSM   H18U13462   1.968   6.464   8.570  0.1803  0.7778 -1.1187
  126OSM    C1F13463   1.954   6.097   7.171  0.3271  0.3010  0.1103
  126OSM     OF13464   2.062   6.099   7.114  0.1126  0.5030 -0.2818
  126OSM    C2F13465   1.941   6.056   7.316 -0.0242 -0.1511 -0.6691
  126OSM    H2F13466   1.855   5.985   7.316 -0.7957  0.7692 -0.0194
  126OSM    H2G13467   1.922   6.150   7.372  0.8561  0.1420 -0.8493
  126OSM    C3F13468   2.074   5.996   7.364 -0.0787  0.2944  0.3829
  126OSM    H3F13469   2.155   6.069   7.342 -0.6824  0.8413 -0.0528
  126OSM    H3G13470   2.105   5.903   7.312  0.2866  0.2212  0.7267
  126OSM    C4F13471   2.068   5.966   7.512 -0.2950 -0.1056 -0.2862
  126OSM    H4F13472   2.029   6.050   7.574 -0.5794 -0.3677 -0.1100
  126OSM    H4G13473   2.170   5.952   7.555 -0.4829 -1.6222 -0.3143
  126OSM    C5F13474   1.991   5.839   7.552  0.5525  0.3580 -0.2495
  126OSM    H5F13475   2.008   5.753   7.483 -1.4460  0.4386 -0.8840
  126OSM    H5G13476   1.883   5.854   7.529  1.0934  0.4342 -2.8931
  126OSM    C6F13477   2.004   5.799   7.700  1.4520 -0.0888  0.3069
  126OSM    H6F13478   2.112   5.809   7.724  1.8154  0.3905 -1.4462
  126OSM    H6G13479   1.973   5.693   7.710 -0.0904  0.3544  0.3213
  126OSM    C7F13480   1.926   5.882   7.807 -0.5624 -0.0645  0.1330
  126OSM    H7F13481   1.818   5.856   7.806 -0.4150 -0.7497  1.1879
  126OSM    H7G13482   1.928   5.985   7.766 -1.2902  0.4056  1.2587
  126OSM    C8F13483   1.965   5.870   7.958  0.2265 -0.4245  0.3962
  126OSM    H8F13484   2.076   5.881   7.965  0.1785 -0.8160  1.9158
  126OSM    H8G13485   1.962   5.760   7.976  1.2235 -0.6331 -0.6395
  126OSM    C9F13486   1.877   5.950   8.048 -0.8535  0.6958  0.0558
  126OSM    H9F13487   1.876   6.059   8.032  1.6142  1.1513  2.5797
  126OSM   C10F13488   1.812   5.895   8.159 -0.1348  0.7238 -0.2107
  126OSM   H10F13489   1.750   5.964   8.219 -1.0289 -1.9048  2.0016
  126OSM   C11F13490   1.802   5.752   8.205 -0.2768  0.5865  0.1552
  126OSM   H11F13491   1.886   5.714   8.267 -0.3380 -0.2927 -0.2984
  126OSM   H11G13492   1.799   5.692   8.112 -0.5509 -0.9490  1.1364
  126OSM   C12F13493   1.662   5.734   8.270 -0.0324 -0.3803 -0.2089
  126OSM   H12F13494   1.643   5.625   8.278 -2.0975  0.0422  1.1370
  126OSM   H12G13495   1.579   5.768   8.204 -1.9005 -1.8805  1.2942
  126OSM   C13F13496   1.635   5.792   8.408 -0.2366 -0.1585  0.7281
  126OSM   H13F13497   1.645   5.902   8.417 -0.0841  0.2030 -3.1206
  126OSM   H13G13498   1.701   5.737   8.478  1.7943 -1.1194 -1.8654
  126OSM   C14F13499   1.482   5.751   8.441  0.3503  0.1980 -0.0945
  126OSM   H14F13500   1.465   5.642   8.437  1.8921 -0.0731  0.3085
  126OSM   H14G13501   1.425   5.798   8.358 -0.6161 -0.5630  0.1327
  126OSM   C15F13502   1.404   5.806   8.558  0.4864 -0.4162 -0.6777
  126OSM   H15F13503   1.297   5.808   8.529  0.9788 -0.8762 -2.5692
  126OSM   H15G13504   1.423   5.912   8.585 -2.1500  0.1727 -1.0372
  126OSM   C16F13505   1.417   5.725   8.692 -0.1310 -0.6733  0.3632
  126OSM   H16F13506   1.526   5.723   8.710  0.0624  0.5389 -0.6356
  126OSM   H16G13507   1.389   5.618   8.677 -2.1002 -0.0135 -0.9485
  126OSM   C17F13508   1.346   5.783   8.817  0.9431  0.1379  0.9317
  126OSM   H17F13509   1.362   5.707   8.896 -0.7995 -0.7146  0.4924
  126OSM   H17G13510   1.236   5.794   8.808  0.9262 -0.0364  0.9299
  126OSM   C18F13511   1.401   5.923   8.863  0.3355  0.3027  0.0187
  126OSM   H18F13512   1.411   5.994   8.778 -1.8617 -1.4684 -1.7678
  126OSM   H18G13513   1.497   5.894   8.911  0.3111  1.1322  0.5822
  126OSM   H18H13514   1.340   5.954   8.951  0.8379  1.2189  0.0458
  127OSM      N13515   0.670   0.926   5.958  0.0279 -0.1905 -0.4570
  127OSM    C1513516   0.745   0.952   5.827  0.2367 -0.2207 -0.1910
  127OSM   H15A13517   0.749   0.860   5.770 -2.3745 -0.9133  0.6737
  127OSM   H15B13518   0.840   0.994   5.857  0.8030 -0.9356 -0.9685
  127OSM   H15C13519   0.695   1.028   5.768  2.1374  2.1379  1.1193
  127OSM    C1413520   0.639   1.054   6.024 -0.0066 -0.5499 -0.2491
  127OSM   H14A13521   0.718   1.128   6.020 -2.3532  2.0381 -0.6508
  127OSM   H14B13522   0.618   1.049   6.130  0.2586  3.5691  0.1033
  127OSM   H14C13523   0.549   1.099   5.984 -1.5467 -2.3621  1.0940
  127OSM    C1313524   0.530   0.874   5.932 -0.4947  0.4533 -0.7264
  127OSM   H13A13525   0.460   0.945   5.889  0.1033  1.2049 -0.4706
  127OSM   H13B13526   0.485   0.849   6.028  0.7664  0.3804 -0.1475
  127OSM   H13C13527   0.525   0.783   5.875 -0.2159 -1.4722  2.1950
  127OSM    C1213528   0.745   0.829   6.052 -0.2224  0.2878 -0.4987
  127OSM   H12A13529   0.697   0.833   6.148  3.7977 -0.0701  1.6446
  127OSM   H12B13530   0.837   0.881   6.074  0.3477 -0.7200 -0.4457
  127OSM    C1113531   0.778   0.686   6.012 -0.4445  0.5103 -0.0823
  127OSM   H11A13532   0.839   0.644   6.095  1.4302 -0.4040 -1.8412
  127OSM   H11B13533   0.853   0.687   5.929  0.8485 -1.1590  1.0189
  127OSM      P13534   0.600   0.505   6.073  0.2208 -0.1865  0.1715
  127OSM    O1313535   0.483   0.434   6.015  0.0914  0.0073  0.2997
  127OSM    O1413536   0.712   0.424   6.122 -0.3753 -0.4522  0.3846
  127OSM    O1113537   0.545   0.596   6.188  0.0832  0.4498  0.0865
  127OSM    O1213538   0.664   0.606   5.974 -0.1679 -0.5257  0.1514
  127OSM    C1S13539   0.490   0.530   6.304  0.1210  0.2658 -0.2878
  127OSM    H1S13540   0.554   0.448   6.343  0.5014  1.2032  1.0986
  127OSM    H1T13541   0.391   0.485   6.287  0.3034 -0.0439 -0.5292
  127OSM     NF13542   0.401   0.570   6.523 -0.9390 -0.1859 -0.1597
  127OSM    HNF13543   0.304   0.594   6.513 -0.5802  1.4032  0.0853
  127OSM    C2S13544   0.479   0.631   6.422  0.3581  0.0884 -0.0309
  127OSM    H2S13545   0.582   0.649   6.458  0.7236  0.6751 -1.3326
  127OSM    C3S13546   0.420   0.769   6.361  0.3474 -0.2875  0.0141
  127OSM    H3S13547   0.333   0.737   6.300  1.5013 -0.1463 -1.7417
  127OSM     O313548   0.513   0.832   6.269 -0.4898 -0.0867  0.3460
  127OSM    HO313549   0.552   0.759   6.220  2.2950  1.9969 -0.6983
  127OSM    C4S13550   0.394   0.859   6.472  0.3247 -0.5302 -0.8385
  127OSM    H4S13551   0.483   0.879   6.534 -1.7238  1.1410  1.6876
  127OSM    C5S13552   0.272   0.904   6.502 -0.0173  0.5066  0.1639
  127OSM    H5S13553   0.188   0.883   6.434 -0.3468  0.8226  0.4693
  127OSM    C6S13554   0.238   0.992   6.618  0.0999 -0.7004  0.2438
  127OSM    H6S13555   0.152   0.949   6.674  0.0831 -2.1459 -0.8707
  127OSM    H6T13556   0.203   1.089   6.575  2.7551  1.0646  1.8897
  127OSM    C7S13557   0.345   1.020   6.726 -1.1639  0.8087 -0.0816
  127OSM    H7S13558   0.431   1.079   6.687 -1.1920  1.0739  0.2510
  127OSM    H7T13559   0.374   0.918   6.757  0.2270  1.3775  0.5589
  127OSM    C8S13560   0.275   1.086   6.847  0.1685 -0.0535 -0.3389
  127OSM    H8S13561   0.175   1.039   6.863  0.6819 -0.2801  2.3474
  127OSM    H8T13562   0.248   1.188   6.812  1.2097  0.0316 -0.9231
  127OSM    C9S13563   0.345   1.098   6.980 -0.1943  0.5272  0.1222
  127OSM    H9S13564   0.283   1.162   7.047 -1.2582 -0.9005  0.5140
  127OSM    H9T13565   0.441   1.153   6.972 -0.9995  1.8088 -1.0487
  127OSM   C10S13566   0.350   0.965   7.055 -0.0436 -0.2216  0.8242
  127OSM   H10S13567   0.422   0.909   6.992 -0.6302  0.4995 -0.4857
  127OSM   H10T13568   0.251   0.918   7.073  1.0904 -2.5457  1.1695
  127OSM   C11S13569   0.421   0.986   7.193  0.8257 -0.7578  0.5258
  127OSM   H11S13570   0.369   1.072   7.241 -3.0658 -1.4825 -2.1388
  127OSM   H11T13571   0.522   1.031   7.188  0.2386  0.5607  0.3051
  127OSM   C12S13572   0.435   0.857   7.277 -0.1345  0.3026  0.0749
  127OSM   H12S13573   0.508   0.789   7.229 -0.2710  0.4640 -0.3651
  127OSM   H12T13574   0.334   0.810   7.279  0.4681 -1.1600 -1.9241
  127OSM   C13S13575   0.492   0.887   7.414 -0.7407 -0.5348  0.1547
  127OSM   H13S13576   0.430   0.963   7.466 -1.5309 -0.8961 -0.2551
  127OSM   H13T13577   0.596   0.926   7.404 -0.9362 -0.4370 -1.6885
  127OSM   C14S13578   0.496   0.767   7.518 -0.5692 -0.6954  0.0780
  127OSM   H14S13579   0.549   0.682   7.470 -1.1685 -1.4638  0.7474
  127OSM   H14T13580   0.390   0.735   7.531 -0.5484 -0.7128  0.2077
  127OSM   C15S13581   0.579   0.799   7.646 -0.4564  0.0585  0.2234
  127OSM   H15S13582   0.684   0.824   7.617  0.6381 -2.0063  2.1950
  127OSM   H15T13583   0.578   0.714   7.718  0.0551  0.0526  0.2275
  127OSM   C16S13584   0.512   0.908   7.735  0.1425 -0.5082 -0.7017
  127OSM   H16S13585   0.408   0.877   7.759  0.6047  0.1850  2.4505
  127OSM   H16T13586   0.498   1.007   7.687 -0.5933 -0.8269 -1.1596
  127OSM   C17S13587   0.593   0.938   7.863  0.3997 -0.0485 -0.3467
  127OSM   H17S13588   0.698   0.958   7.834  0.6135  2.3183  1.8833
  127OSM   H17T13589   0.608   0.848   7.926 -0.6335  0.0500  0.0440
  127OSM   C18S13590   0.534   1.055   7.945  0.3055 -0.3744  0.5646
  127OSM   H18S13591   0.582   1.062   8.045 -2.3432 -0.9142  1.9071
  127OSM   H18T13592   0.424   1.058   7.958  0.0650  0.4486 -1.4547
  127OSM   H18U13593   0.568   1.147   7.892  0.7949 -0.1902  1.1875
  127OSM    C1F13594   0.443   0.479   6.607  0.3546  0.5811 -1.1638
  127OSM     OF13595   0.536   0.397   6.589  0.1623  0.2831 -0.1135
  127OSM    C2F13596   0.376   0.484   6.741 -0.5148  0.2879  0.7052
  127OSM    H2F13597   0.342   0.381   6.764  1.1463 -0.1225  1.4510
  127OSM    H2G13598   0.294   0.559   6.732 -0.3923  0.2558 -0.8239
  127OSM    C3F13599   0.485   0.528   6.843  0.0926 -0.4161 -0.2252
  127OSM    H3F13600   0.556   0.604   6.802  0.1707  0.3128  1.1942
  127OSM    H3G13601   0.539   0.432   6.857  0.8483  0.0201 -0.1082
  127OSM    C4F13602   0.419   0.572   6.986  0.1140 -0.5307  0.0886
  127OSM    H4F13603   0.359   0.665   6.977  0.9537 -0.0714 -0.9285
  127OSM    H4G13604   0.504   0.598   7.052 -0.8758  0.2751  1.0698
  127OSM    C5F13605   0.340   0.459   7.044  0.5293 -0.0415  0.4082
  127OSM    H5F13606   0.417   0.382   7.065  1.3113  0.1649 -1.6656
  127OSM    H5G13607   0.274   0.422   6.963 -0.0314  1.9928 -0.1051
  127OSM    C6F13608   0.261   0.514   7.162 -0.0177 -0.4191  0.5620
  127OSM    H6F13609   0.176   0.566   7.114  0.9211  1.3992  0.7959
  127OSM    H6G13610   0.321   0.586   7.223 -0.1077  0.8494 -0.8349
  127OSM    C7F13611   0.194   0.418   7.265 -0.7275  0.0322  0.0787
  127OSM    H7F13612   0.259   0.373   7.343  2.0527 -1.1837 -2.7956
  127OSM    H7G13613   0.149   0.332   7.212  0.3442 -1.3658  1.3935
  127OSM    C8F13614   0.091   0.499   7.349 -0.1492  0.1986  0.7419
  127OSM    H8F13615   0.025   0.560   7.283 -1.6764 -0.9662  1.1710
  127OSM    H8G13616   0.151   0.567   7.413  1.9773  1.5364 -2.5024
  127OSM    C9F13617   0.004   0.409   7.430 -0.2775 -0.3266  0.5722
  127OSM    H9F13618  -0.006   0.312   7.380  0.0153  0.6819 -1.5076
  127OSM   C10F13619  -0.036   0.425   7.556  0.0325  0.2142  0.1524
  127OSM   H10F13620  -0.107   0.350   7.592  0.3816  0.3911  1.2064
  127OSM   C11F13621  -0.006   0.552   7.642  0.1362  0.3028 -0.3766
  127OSM   H11F13622  -0.089   0.583   7.709 -0.3063  0.0853 -0.8192
  127OSM   H11G13623   0.020   0.638   7.577  0.4456  0.3794 -0.1509
  127OSM   C12F13624   0.114   0.508   7.728 -0.1697  0.4058 -0.1274
  127OSM   H12F13625   0.189   0.462   7.659 -2.0537 -1.0002 -1.2776
  127OSM   H12G13626   0.087   0.429   7.801  0.5680  1.0897  0.8975
  127OSM   C13F13627   0.174   0.624   7.813 -0.6212 -0.0039 -0.5892
  127OSM   H13F13628   0.088   0.671   7.867  0.6443  1.9245 -0.2064
  127OSM   H13G13629   0.225   0.698   7.748 -0.9444  0.6745 -0.0798
  127OSM   C14F13630   0.261   0.576   7.923  0.0411 -0.0226 -0.6832
  127OSM   H14F13631   0.356   0.526   7.892  0.7308 -1.9632  4.1548
  127OSM   H14G13632   0.212   0.493   7.978  0.7104 -1.1781 -1.7981
  127OSM   C15F13633   0.305   0.682   8.023  0.0744 -0.3240 -0.2737
  127OSM   H15F13634   0.215   0.746   8.042  0.3484 -0.3819  1.3453
  127OSM   H15G13635   0.398   0.736   7.995  0.7972 -0.4556  1.7923
  127OSM   C16F13636   0.339   0.621   8.166  0.0993 -0.8976  0.8753
  127OSM   H16F13637   0.428   0.555   8.157  0.5582 -0.3084  1.1194
  127OSM   H16G13638   0.241   0.573   8.191 -0.9691  0.5604 -0.4227
  127OSM   C17F13639   0.368   0.723   8.274 -0.2610 -0.6213  0.3600
  127OSM   H17F13640   0.295   0.807   8.267 -0.5639 -0.8860  0.3181
  127OSM   H17G13641   0.466   0.773   8.259 -1.0281  1.1206  0.9530
  127OSM   C18F13642   0.383   0.659   8.411 -0.0189  0.0396  0.2217
  127OSM   H18F13643   0.448   0.568   8.406 -1.2068 -0.8485  0.7840
  127OSM   H18G13644   0.287   0.616   8.447  0.5780 -0.5209  1.1550
  127OSM   H18H13645   0.423   0.745   8.468 -0.1035  0.8414 -0.9136
  128OSM      N13646   0.466   4.460   6.146  0.3484 -0.1159  0.3361
  128OSM    C1513647   0.533   4.548   6.253 -0.8168 -0.1214 -0.5455
  128OSM   H15A13648   0.506   4.651   6.238 -0.2549 -0.1206 -1.5770
  128OSM   H15B13649   0.641   4.543   6.251 -0.8908 -2.1258 -0.6856
  128OSM   H15C13650   0.507   4.523   6.355 -0.9094 -0.5828 -0.6807
  128OSM    C1413651   0.497   4.502   6.015 -0.3591  0.0802  0.3893
  128OSM   H14A13652   0.602   4.522   6.000 -1.0036  1.4887 -2.6296
  128OSM   H14B13653   0.445   4.594   5.995  1.2361  0.7757 -0.6816
  128OSM   H14C13654   0.458   4.436   5.939  0.1494 -0.1407  0.3161
  128OSM    C1313655   0.505   4.310   6.160 -0.1460 -0.3707 -0.0077
  128OSM   H13A13656   0.443   4.256   6.090  0.0147 -1.4793  0.6833
  128OSM   H13B13657   0.473   4.288   6.261  0.8783 -1.1974  0.1450
  128OSM   H13C13658   0.612   4.298   6.162 -0.2396 -1.4792 -1.5577
  128OSM    C1213659   0.315   4.483   6.156  0.0394 -0.2388  0.5139
  128OSM   H12A13660   0.260   4.428   6.081 -2.0245  2.5246 -0.0920
  128OSM   H12B13661   0.302   4.589   6.136  1.1878 -0.0803  0.6185
  128OSM    C1113662   0.262   4.450   6.293  0.4909 -0.2417  0.5715
  128OSM   H11A13663   0.154   4.474   6.288  0.8314  1.1802 -0.2899
  128OSM   H11B13664   0.295   4.516   6.376  0.7892 -1.6298  1.5890
  128OSM      P13665   0.179   4.202   6.285 -0.2518  0.1506 -0.1932
  128OSM    O1313666   0.148   4.229   6.141  0.7559  0.3046  0.2325
  128OSM    O1413667   0.247   4.080   6.325  0.2040  0.4208 -0.4248
  128OSM    O1113668   0.052   4.227   6.376  0.1683 -0.1209  0.1745
  128OSM    O1213669   0.284   4.311   6.331 -0.4994 -0.0147  0.2138
  128OSM    C1S13670   0.052   4.176   6.513 -0.1804 -0.8299  0.6085
  128OSM    H1S13671   0.115   4.086   6.528 -0.4700 -1.0937  0.2646
  128OSM    H1T13672  -0.049   4.143   6.545 -0.8279  0.3914 -0.1245
  128OSM     NF13673   0.078   4.216   6.754 -0.0141  0.5192 -0.4419
  128OSM    HNF13674  -0.011   4.192   6.792  1.0809 -1.2825  1.1189
  128OSM    C2S13675   0.083   4.286   6.628 -0.5697  0.3996 -1.1168
  128OSM    H2S13676   0.183   4.334   6.618 -0.0137 -0.4881  0.1396
  128OSM    C3S13677  -0.028   4.400   6.613  0.0606  0.0222  0.3816
  128OSM    H3S13678  -0.125   4.346   6.610 -1.4278  2.6785 -2.5228
  128OSM     O313679  -0.020   4.485   6.495 -0.1598  0.3007  0.6208
  128OSM    HO313680   0.015   4.425   6.428 -0.0267 -1.0026  1.8270
  128OSM    C4S13681  -0.019   4.494   6.733 -1.0204 -0.6435 -0.1261
  128OSM    H4S13682   0.072   4.556   6.734 -0.3540 -1.6092  2.3110
  128OSM    C5S13683  -0.112   4.531   6.814 -0.6899 -0.4362 -0.4724
  128OSM    H5S13684  -0.215   4.502   6.788 -0.6969 -0.9374  0.1064
  128OSM    C6S13685  -0.101   4.643   6.922 -0.8334 -0.0556  0.5885
  128OSM    H6S13686  -0.197   4.699   6.927 -1.4290 -1.1128  1.2846
  128OSM    H6T13687  -0.040   4.726   6.881 -1.9363  0.6392  0.3277
  128OSM    C7S13688  -0.054   4.605   7.064  0.1744 -0.6905  0.5799
  128OSM    H7S13689   0.049   4.564   7.062  0.2354 -0.5735  1.3961
  128OSM    H7T13690  -0.116   4.519   7.099 -1.7053  0.8032  1.0074
  128OSM    C8S13691  -0.066   4.718   7.158  0.0469 -0.3555 -0.1567
  128OSM    H8S13692  -0.162   4.771   7.141 -0.0993 -0.0048  1.6428
  128OSM    H8T13693   0.020   4.784   7.134  0.9616 -1.7096 -0.6984
  128OSM    C9S13694  -0.053   4.660   7.301 -0.3470  0.8003 -0.3922
  128OSM    H9S13695   0.033   4.589   7.294  0.7988  2.1729 -0.5212
  128OSM    H9T13696  -0.150   4.621   7.337  0.6619  1.1124  2.8507
  128OSM   C10S13697  -0.011   4.760   7.412 -0.3883 -0.3463 -0.7843
  128OSM   H10S13698  -0.082   4.846   7.409 -1.9485 -1.3833  3.0976
  128OSM   H10T13699   0.096   4.782   7.391  0.6370 -1.7177  2.7028
  128OSM   C11S13700  -0.006   4.698   7.551  0.6351 -0.5066  0.3158
  128OSM   H11S13701   0.048   4.604   7.524 -0.6284 -0.7983 -1.3392
  128OSM   H11T13702  -0.112   4.681   7.579  0.2407  1.1712 -0.1122
  128OSM   C12S13703   0.064   4.786   7.655 -0.1710 -0.3873 -0.0031
  128OSM   H12S13704   0.029   4.891   7.654 -0.5036 -0.4833  1.2418
  128OSM   H12T13705   0.174   4.779   7.640 -0.0505 -1.2211  1.1703
  128OSM   C13S13706   0.028   4.735   7.800 -0.6790  0.5401 -0.4821
  128OSM   H13S13707   0.077   4.635   7.799  0.2217  0.9809 -1.2316
  128OSM   H13T13708  -0.080   4.726   7.823 -0.6907 -1.4681 -1.2016
  128OSM   C14S13709   0.072   4.824   7.915  0.1209 -0.0645  0.1237
  128OSM   H14S13710  -0.002   4.907   7.912 -0.0634 -0.2309  0.0920
  128OSM   H14T13711   0.176   4.865   7.906 -0.7306  2.9387  2.8539
  128OSM   C15S13712   0.049   4.775   8.052  0.7716 -0.0096  0.0581
  128OSM   H15S13713   0.105   4.680   8.067 -1.3264 -0.9930  1.9572
  128OSM   H15T13714  -0.057   4.752   8.075  0.2521  1.0691 -1.1672
  128OSM   C16S13715   0.103   4.883   8.153  0.0839 -0.0418 -0.2570
  128OSM   H16S13716   0.044   4.976   8.138 -1.2861 -0.8824 -0.2247
  128OSM   H16T13717   0.206   4.913   8.127  0.1875 -0.1501  0.0268
  128OSM   C17S13718   0.082   4.843   8.302 -0.1889  0.4932  0.3327
  128OSM   H17S13719   0.118   4.922   8.372 -0.4132  2.7622 -2.0069
  128OSM   H17T13720   0.134   4.746   8.316 -0.0579  0.9478  3.1982
  128OSM   C18S13721  -0.070   4.820   8.341 -0.2602  0.3324  0.3529
  128OSM   H18S13722  -0.114   4.721   8.317 -0.7060  0.1335  1.9506
  128OSM   H18T13723  -0.132   4.897   8.289  1.6397  1.4032 -0.3862
  128OSM   H18U13724  -0.071   4.851   8.448 -0.6135  0.1017  0.4173
  128OSM    C1F13725   0.178   4.139   6.797 -0.1793 -0.0465  1.0388
  128OSM     OF13726   0.283   4.133   6.735 -0.0335  0.4713 -0.3889
  128OSM    C2F13727   0.142   4.056   6.922 -0.4371  0.5517 -0.5064
  128OSM    H2F13728   0.136   3.947   6.901 -0.7737  0.4079  0.3609
  128OSM    H2G13729   0.051   4.093   6.974  0.7189 -0.2117  2.1184
  128OSM    C3F13730   0.253   4.071   7.022  0.5713  0.4433  0.2280
  128OSM    H3F13731   0.350   4.051   6.973  0.5745  0.7528  0.1076
  128OSM    H3G13732   0.257   3.999   7.107  1.4202  0.7484  0.4525
  128OSM    C4F13733   0.257   4.215   7.086 -0.8394 -0.4404  0.1393
  128OSM    H4F13734   0.152   4.226   7.119 -0.6848  0.0213  0.4794
  128OSM    H4G13735   0.281   4.292   7.009 -2.2190  1.9705  2.0737
  128OSM    C5F13736   0.364   4.221   7.196 -0.2494  0.1602 -0.3076
  128OSM    H5F13737   0.461   4.184   7.157 -1.1688 -1.0087 -1.4974
  128OSM    H5G13738   0.327   4.148   7.272 -0.6496  0.8854  0.1997
  128OSM    C6F13739   0.378   4.356   7.259 -0.2346 -0.0731  0.8233
  128OSM    H6F13740   0.280   4.366   7.308 -0.4549  0.2036  0.3329
  128OSM    H6G13741   0.401   4.447   7.199  0.3331 -0.8039 -0.0822
  128OSM    C7F13742   0.476   4.344   7.380  0.2009  0.7816  0.9048
  128OSM    H7F13743   0.584   4.334   7.356  0.3568  1.5191  1.3125
  128OSM    H7G13744   0.431   4.260   7.437 -1.3164 -1.0412 -2.8009
  128OSM    C8F13745   0.464   4.467   7.461 -0.2191  0.8236 -0.1840
  128OSM    H8F13746   0.358   4.479   7.494  0.5414  2.2950  1.8340
  128OSM    H8G13747   0.485   4.557   7.399 -0.2367 -0.2608 -1.7874
  128OSM    C9F13748   0.558   4.463   7.577 -0.7599  0.3795 -0.0103
  128OSM    H9F13749   0.663   4.476   7.548 -0.6151  0.3385  0.4797
  128OSM   C10F13750   0.524   4.455   7.705  0.3469  0.1378 -0.0284
  128OSM   H10F13751   0.606   4.448   7.779 -0.2083 -0.4671  0.5319
  128OSM   C11F13752   0.386   4.443   7.765  0.1874 -0.5533  0.1318
  128OSM   H11F13753   0.346   4.343   7.736  0.9380 -0.8765  0.2247
  128OSM   H11G13754   0.324   4.528   7.729  1.4559  0.6323  0.7220
  128OSM   C12F13755   0.382   4.441   7.915  0.4788 -0.2874 -0.0490
  128OSM   H12F13756   0.446   4.365   7.964  0.4365 -1.8929 -2.3768
  128OSM   H12G13757   0.277   4.426   7.949  0.7897 -0.0114  1.0339
  128OSM   C13F13758   0.417   4.582   7.968 -0.4725 -0.5652  0.1955
  128OSM   H13F13759   0.342   4.655   7.932  0.2037 -0.1898 -0.4790
  128OSM   H13G13760   0.516   4.610   7.925 -1.0586 -0.6954 -1.2774
  128OSM   C14F13761   0.418   4.593   8.125  0.7341 -0.8011 -0.1490
  128OSM   H14F13762   0.469   4.510   8.177 -0.1758 -1.0385  0.3785
  128OSM   H14G13763   0.311   4.580   8.152  1.2892 -1.9073  1.5224
  128OSM   C15F13764   0.455   4.738   8.166  0.4869  0.3490 -0.5467
  128OSM   H15F13765   0.393   4.819   8.123  0.7205 -0.2777 -2.0762
  128OSM   H15G13766   0.560   4.761   8.139  1.0276  1.2100  2.1431
  128OSM   C16F13767   0.460   4.745   8.323  0.7427 -0.0189 -0.5836
  128OSM   H16F13768   0.520   4.667   8.374 -0.8238 -1.3853 -0.7822
  128OSM   H16G13769   0.353   4.737   8.352  0.7795 -2.2616 -0.9750
  128OSM   C17F13770   0.532   4.879   8.373 -0.3449 -0.2392  0.0149
  128OSM   H17F13771   0.630   4.873   8.321 -0.0664 -2.2856  0.7386
  128OSM   H17G13772   0.546   4.881   8.484  0.9867  2.7452 -0.1604
  128OSM   C18F13773   0.475   5.008   8.320  0.3552 -0.4017  0.3451
  128OSM   H18F13774   0.369   5.030   8.345 -0.2963 -0.4233 -2.2664
  128OSM   H18G13775   0.477   5.017   8.209 -1.2201  1.3478  0.4323
  128OSM   H18H13776   0.542   5.086   8.363 -0.9520  0.3209  1.1180
  129OSM      N13777   5.674   6.130   6.155 -0.6499  0.0703 -0.2753
  129OSM    C1513778   5.701   6.272   6.129  0.3107 -0.7595  0.1315
  129OSM   H15A13779   5.740   6.297   6.032 -1.1013 -1.7919 -0.7189
  129OSM   H15B13780   5.770   6.315   6.200  1.3923 -1.3389 -0.5689
  129OSM   H15C13781   5.608   6.328   6.133  0.0635 -1.1221 -0.5252
  129OSM    C1413782   5.601   6.073   6.038 -0.1730  0.4241 -0.7949
  129OSM   H14A13783   5.499   6.106   6.025 -1.6935 -3.2772  0.9577
  129OSM   H14B13784   5.628   5.968   6.033 -3.4665 -0.6438  2.1627
  129OSM   H14C13785   5.652   6.115   5.952  0.9850 -0.8858 -0.7704
  129OSM    C1313786   5.810   6.063   6.170 -0.0564  0.7287  0.1089
  129OSM   H13A13787   5.800   5.956   6.169 -2.5423  0.9254  1.0948
  129OSM   H13B13788   5.860   6.104   6.257 -1.1566  4.6954 -0.9982
  129OSM   H13C13789   5.869   6.087   6.082 -1.1777 -0.7262 -1.0752
  129OSM    C1213790   5.598   6.103   6.288 -0.3228  0.1225  0.0485
  129OSM   H12A13791   5.662   6.132   6.370 -0.1306  1.1077 -0.4537
  129OSM   H12B13792   5.586   5.995   6.295  0.1555 -0.2196 -3.5682
  129OSM    C1113793   5.451   6.163   6.309 -0.8242 -0.1850  0.4646
  129OSM   H11A13794   5.450   6.267   6.272 -0.1161 -0.0852  0.7294
  129OSM   H11B13795   5.432   6.169   6.418 -0.2586 -1.8186  0.6656
  129OSM      P13796   5.255   6.131   6.129 -0.1773 -0.5100  0.3967
  129OSM    O1313797   5.322   6.204   6.020  0.2740 -0.2930 -0.6630
  129OSM    O1413798   5.171   6.018   6.075 -0.0361 -0.1229 -0.4049
  129OSM    O1113799   5.167   6.237   6.200 -0.0642  0.1861 -0.2654
  129OSM    O1213800   5.358   6.075   6.241  0.2804 -0.5183 -0.1822
  129OSM    C1S13801   5.071   6.204   6.294 -0.4318  0.2293  0.0659
  129OSM    H1S13802   5.046   6.096   6.301  2.4141 -0.7465 -3.2445
  129OSM    H1T13803   4.976   6.257   6.274 -1.1975 -1.4689 -0.8796
  129OSM     NF13804   5.031   6.187   6.541 -0.1186 -0.2902  0.0854
  129OSM    HNF13805   4.965   6.242   6.593  1.9371  0.2818  2.1439
  129OSM    C2S13806   5.121   6.242   6.444  0.9309  0.0350  0.0197
  129OSM    H2S13807   5.218   6.190   6.463 -0.2863 -2.2422  0.1362
  129OSM    C3S13808   5.139   6.392   6.448 -0.3101 -0.0650  0.1001
  129OSM    H3S13809   5.037   6.435   6.444  0.5800  2.0401 -0.6804
  129OSM     O313810   5.204   6.455   6.337 -0.5007  0.9111 -0.1611
  129OSM    HO313811   5.219   6.383   6.275  0.7460  2.0985 -1.2654
  129OSM    C4S13812   5.203   6.427   6.584 -0.8041  0.0796  0.0598
  129OSM    H4S13813   5.133   6.447   6.666 -0.2243 -0.3159  0.6575
  129OSM    C5S13814   5.335   6.436   6.609 -0.8917  0.6308 -0.0197
  129OSM    H5S13815   5.413   6.420   6.533 -0.0806  2.0965  0.4852
  129OSM    C6S13816   5.387   6.474   6.749  0.6682 -0.4437  0.0763
  129OSM    H6S13817   5.308   6.526   6.807  0.8039 -2.5932  2.2541
  129OSM    H6T13818   5.469   6.549   6.744  1.5670 -1.4286 -0.1252
  129OSM    C7S13819   5.452   6.354   6.822 -0.0372 -0.2797  0.3241
  129OSM    H7S13820   5.528   6.317   6.750  1.1802 -2.2211  2.4982
  129OSM    H7T13821   5.382   6.269   6.841  0.7067 -1.1101 -0.6305
  129OSM    C8S13822   5.524   6.380   6.959  0.2580 -0.5366  0.1422
  129OSM    H8S13823   5.619   6.425   6.921 -0.8716  0.9972 -0.9568
  129OSM    H8T13824   5.549   6.278   6.993  0.7138  0.1084  1.7872
  129OSM    C9S13825   5.444   6.465   7.062  0.5720 -0.0812 -0.2187
  129OSM    H9S13826   5.343   6.425   7.085  0.5347 -0.4216 -0.9799
  129OSM    H9T13827   5.428   6.563   7.012 -0.9149 -0.0034  0.3983
  129OSM   C10S13828   5.516   6.493   7.191 -0.3336  0.3214 -0.6712
  129OSM   H10S13829   5.620   6.532   7.181  0.4816 -1.6011  0.1830
  129OSM   H10T13830   5.540   6.397   7.240 -0.1156  1.2373  1.0585
  129OSM   C11S13831   5.439   6.575   7.293 -0.6659  0.0812  0.0022
  129OSM   H11S13832   5.366   6.510   7.346 -0.3945 -0.4342 -0.2583
  129OSM   H11T13833   5.386   6.656   7.239 -2.2434  0.1335  1.5935
  129OSM   C12S13834   5.529   6.633   7.409  0.1457 -0.0764 -0.2297
  129OSM   H12S13835   5.599   6.706   7.363  1.2730 -1.4745 -0.7373
  129OSM   H12T13836   5.587   6.542   7.435  0.3548  0.1387  0.0642
  129OSM   C13S13837   5.447   6.703   7.520 -0.5533  0.0076 -0.4404
  129OSM   H13S13838   5.364   6.642   7.563  0.0158 -0.8568 -0.5525
  129OSM   H13T13839   5.401   6.794   7.479  0.3316  0.6967  0.0674
  129OSM   C14S13840   5.529   6.736   7.648 -0.1140 -0.2441  0.0871
  129OSM   H14S13841   5.616   6.796   7.614  0.2104 -0.1954  1.0011
  129OSM   H14T13842   5.573   6.640   7.683 -1.3852 -1.0086 -0.3781
  129OSM   C15S13843   5.456   6.797   7.763  0.5778 -0.2231 -0.0690
  129OSM   H15S13844   5.375   6.731   7.800  0.4224 -0.0378 -0.0736
  129OSM   H15T13845   5.409   6.889   7.722  0.4239 -0.6176 -0.7796
  129OSM   C16S13846   5.559   6.825   7.872 -0.4333  0.0001 -0.3645
  129OSM   H16S13847   5.521   6.901   7.944 -3.2095 -0.1886 -1.5752
  129OSM   H16T13848   5.659   6.847   7.830  0.7356 -2.1993  1.1554
  129OSM   C17S13849   5.567   6.702   7.960 -0.7612 -0.3890 -0.5433
  129OSM   H17S13850   5.597   6.616   7.897 -1.1730 -0.5129 -0.5736
  129OSM   H17T13851   5.463   6.685   7.996 -1.3795  1.9360 -1.1787
  129OSM   C18S13852   5.662   6.727   8.078 -0.1645  0.5180  0.0288
  129OSM   H18S13853   5.633   6.671   8.170  0.3776 -1.1628 -0.8052
  129OSM   H18T13854   5.655   6.833   8.113  0.0973  0.4918  0.1551
  129OSM   H18U13855   5.766   6.699   8.054 -0.4886 -1.9548  1.3650
  129OSM    C1F13856   5.024   6.056   6.566  0.8594  0.1680 -1.5640
  129OSM     OF13857   5.089   5.974   6.503  0.3696 -0.3292  0.2869
  129OSM    C2F13858   4.931   6.007   6.671  0.5891 -0.3826  0.5057
  129OSM    H2F13859   4.939   5.897   6.669 -0.2653 -0.4405  0.0371
  129OSM    H2G13860   4.825   6.030   6.644  0.1601 -2.6597  0.1994
  129OSM    C3F13861   4.971   6.073   6.800  0.4167  0.5570 -0.0645
  129OSM    H3F13862   4.899   6.050   6.881 -0.5163  2.1706 -0.4027
  129OSM    H3G13863   4.981   6.184   6.798  1.8392  0.4428 -0.1355
  129OSM    C4F13864   5.116   6.026   6.848  0.3388  0.1347  0.1893
  129OSM    H4F13865   5.194   6.032   6.770  1.2559 -2.0947  0.8907
  129OSM    H4G13866   5.112   5.916   6.862  2.7988 -0.0084 -0.0810
  129OSM    C5F13867   5.168   6.111   6.967  0.9023 -0.2494  0.2383
  129OSM    H5F13868   5.157   6.218   6.942 -0.4624 -0.4121  0.0833
  129OSM    H5G13869   5.278   6.103   6.977  0.9973  1.9842  1.1778
  129OSM    C6F13870   5.100   6.075   7.101  0.5221  0.4809 -0.1928
  129OSM    H6F13871   5.133   5.977   7.142 -2.1302 -0.3200  0.1134
  129OSM    H6G13872   4.989   6.073   7.095  0.6183  2.1701 -3.7682
  129OSM    C7F13873   5.131   6.182   7.208 -0.3370 -0.8328 -0.1072
  129OSM    H7F13874   5.068   6.268   7.178  3.4504  1.6283 -1.4097
  129OSM    H7G13875   5.235   6.220   7.195  0.2029 -1.7518  1.3531
  129OSM    C8F13876   5.117   6.129   7.351  0.5575  0.2959  0.7901
  129OSM    H8F13877   5.196   6.051   7.358  2.8823  2.6012  1.1993
  129OSM    H8G13878   5.019   6.084   7.379 -0.6391  0.6003 -2.7225
  129OSM    C9F13879   5.131   6.241   7.453  0.5642 -0.0928  0.3394
  129OSM    H9F13880   5.042   6.304   7.467 -0.2909 -1.3023  0.3952
  129OSM   C10F13881   5.241   6.270   7.534 -0.2417 -0.7540  0.4236
  129OSM   H10F13882   5.226   6.356   7.601 -2.2286 -0.2311 -0.6652
  129OSM   C11F13883   5.363   6.188   7.551  0.0740  0.1990  0.1213
  129OSM   H11F13884   5.460   6.237   7.526  0.3622  0.4838  1.7394
  129OSM   H11G13885   5.365   6.112   7.470 -2.8590  2.3484 -2.1149
  129OSM   C12F13886   5.387   6.130   7.691 -0.4081  0.1222  0.1433
  129OSM   H12F13887   5.473   6.060   7.680  1.6437  2.5109  0.5278
  129OSM   H12G13888   5.300   6.064   7.711 -0.2401 -0.3815 -0.7375
  129OSM   C13F13889   5.422   6.244   7.791  0.0259 -0.2090  0.3709
  129OSM   H13F13890   5.345   6.323   7.798  1.7243  1.4308  1.1673
  129OSM   H13G13891   5.516   6.293   7.758  0.2967 -0.4334  0.8008
  129OSM   C14F13892   5.450   6.195   7.935 -0.6455  0.0146  1.4428
  129OSM   H14F13893   5.364   6.145   7.985 -1.2465 -0.0233  0.4134
  129OSM   H14G13894   5.478   6.281   8.000 -0.9601  2.2013 -1.1994
  129OSM   C15F13895   5.565   6.093   7.951 -0.0193  0.2983 -0.3869
  129OSM   H15F13896   5.658   6.141   7.914  0.2753  0.1110  0.1042
  129OSM   H15G13897   5.556   6.003   7.887 -1.7448  0.5708 -0.5341
  129OSM   C16F13898   5.586   6.044   8.092  0.5216  0.1935  0.9381
  129OSM   H16F13899   5.503   5.976   8.124  0.8022 -0.3130  0.5776
  129OSM   H16G13900   5.566   6.129   8.162 -2.3629 -2.3008  3.3298
  129OSM   C17F13901   5.717   5.974   8.120  0.4276  0.1923 -0.2435
  129OSM   H17F13902   5.711   5.943   8.227 -1.6172 -1.9926 -0.9704
  129OSM   H17G13903   5.807   6.039   8.109  1.0355 -0.4775  0.6878
  129OSM   C18F13904   5.742   5.849   8.034 -0.5039  0.6568 -0.6000
  129OSM   H18F13905   5.828   5.788   8.071 -0.8859 -0.5618 -1.6827
  129OSM   H18G13906   5.756   5.885   7.930 -1.2613  0.3640 -0.8038
  129OSM   H18H13907   5.655   5.780   8.029 -0.2723  0.4495 -2.1462
  130OSM      N13908   5.513   4.127   6.190  0.7927  0.4381 -0.4919
  130OSM    C1513909   5.621   4.227   6.146 -0.5364 -0.3223 -0.1719
  130OSM   H15A13910   5.628   4.243   6.039 -2.6383  0.7652 -0.1612
  130OSM   H15B13911   5.717   4.186   6.175  0.9292  1.4124 -2.3970
  130OSM   H15C13912   5.600   4.320   6.197 -0.6238 -0.7832  0.6498
  130OSM    C1413913   5.544   4.074   6.325  0.9520 -0.1982 -0.1304
  130OSM   H14A13914   5.456   4.032   6.371  1.9361 -1.3772  0.6889
  130OSM   H14B13915   5.585   4.151   6.389  0.2395 -0.5944  0.8039
  130OSM   H14C13916   5.623   4.001   6.314  0.5717 -1.0043  2.3418
  130OSM    C1313917   5.387   4.216   6.200 -0.7532 -0.3393 -0.2439
  130OSM   H13A13918   5.361   4.219   6.304  1.0399  0.1234  0.2044
  130OSM   H13B13919   5.302   4.180   6.144 -0.7625  1.4284 -1.4357
  130OSM   H13C13920   5.409   4.311   6.153 -1.9669  1.2813  2.3899
  130OSM    C1213921   5.493   4.026   6.085  0.3376  0.2698  0.2248
  130OSM   H12A13922   5.463   4.075   5.994 -1.2240  0.7231  0.9734
  130OSM   H12B13923   5.400   3.974   6.103 -0.8470  1.3138 -2.7527
  130OSM    C1113924   5.613   3.925   6.058  0.1441 -0.0890 -0.3604
  130OSM   H11A13925   5.706   3.974   6.022  1.2002 -0.7928  1.3312
  130OSM   H11B13926   5.591   3.858   5.972 -1.1466  1.3377 -1.1740
  130OSM      P13927   5.590   3.700   6.191  0.0946 -0.5028 -0.3546
  130OSM    O1313928   5.443   3.695   6.171 -0.3727  0.6104  0.2317
  130OSM    O1413929   5.675   3.614   6.109 -0.3718  0.0520 -0.3676
  130OSM    O1113930   5.624   3.675   6.341  0.2333 -0.1133 -0.4437
  130OSM    O1213931   5.635   3.849   6.176 -0.4794  0.2838  0.2459
  130OSM    C1S13932   5.521   3.706   6.438 -0.4398 -0.2983  0.0754
  130OSM    H1S13933   5.454   3.618   6.437 -0.6167 -0.1661  0.3438
  130OSM    H1T13934   5.461   3.797   6.418  2.0084  1.0997 -1.2032
  130OSM     NF13935   5.461   3.730   6.669 -0.2993  0.1493  0.6985
  130OSM    HNF13936   5.432   3.817   6.710  0.9909  1.0774 -0.3019
  130OSM    C2S13937   5.577   3.717   6.584 -0.1397 -0.5186  0.6300
  130OSM    H2S13938   5.636   3.624   6.599  0.5407 -0.1336  0.3398
  130OSM    C3S13939   5.675   3.842   6.590  0.1591  0.0333 -0.3505
  130OSM    H3S13940   5.608   3.925   6.559 -0.4691 -0.0836  0.6917
  130OSM     O313941   5.784   3.830   6.495 -0.1562 -0.3050  0.0049
  130OSM    HO313942   5.764   3.756   6.437 -0.4173 -0.4710  0.3094
  130OSM    C4S13943   5.722   3.861   6.734  0.3837 -0.7270  1.0837
  130OSM    H4S13944   5.642   3.862   6.810  0.2910 -0.7092  0.9850
  130OSM    C5S13945   5.853   3.863   6.779 -0.2234  0.1225 -0.2322
  130OSM    H5S13946   5.936   3.859   6.706  0.5508  0.0432  0.6337
  130OSM    C6S13947   5.888   3.879   6.924 -0.0737  0.2879  0.5383
  130OSM    H6S13948   5.825   3.954   6.977 -1.5216 -0.2999 -0.3325
  130OSM    H6T13949   5.994   3.913   6.931  0.9292 -2.6735  0.0754
  130OSM    C7S13950   5.897   3.748   7.006 -0.4423 -0.0276 -0.2877
  130OSM    H7S13951   5.970   3.679   6.958 -0.1866  0.3176 -0.3939
  130OSM    H7T13952   5.801   3.694   6.991 -0.5788  0.3221 -0.6837
  130OSM    C8S13953   5.942   3.760   7.150  0.4928 -0.1652 -0.2289
  130OSM    H8S13954   5.906   3.858   7.189  0.3832 -0.4745  0.4530
  130OSM    H8T13955   6.053   3.759   7.155  0.5260  0.1560 -0.7700
  130OSM    C9S13956   5.877   3.650   7.241  0.7389  0.1770  0.0903
  130OSM    H9S13957   5.898   3.545   7.211 -0.1180  0.4997 -1.7395
  130OSM    H9T13958   5.767   3.654   7.228  0.9486  0.0685 -1.9593
  130OSM   C10S13959   5.915   3.670   7.384  0.3968  0.0771 -0.4015
  130OSM   H10S13960   6.025   3.657   7.395  0.1990 -2.1704 -0.8802
  130OSM   H10T13961   5.860   3.594   7.444  1.3508 -0.9975 -0.8609
  130OSM   C11S13962   5.895   3.802   7.455 -0.4065  0.2936 -0.0525
  130OSM   H11S13963   5.790   3.837   7.460 -0.1653  1.0389 -0.0615
  130OSM   H11T13964   5.956   3.876   7.399  0.3614  0.6561  1.2289
  130OSM   C12S13965   5.962   3.813   7.596 -0.2704 -0.1922  0.3760
  130OSM   H12S13966   6.072   3.806   7.605 -0.3398  0.2735  1.6995
  130OSM   H12T13967   5.903   3.745   7.662 -0.9005 -0.6563 -0.6575
  130OSM   C13S13968   5.956   3.961   7.645 -0.5288  0.5939 -0.4949
  130OSM   H13S13969   5.846   3.975   7.658 -0.3471  1.2795  0.2951
  130OSM   H13T13970   5.993   4.022   7.560  1.8349  0.5448  0.4584
  130OSM   C14S13971   6.031   3.999   7.772  0.0153  0.5236 -0.4825
  130OSM   H14S13972   6.027   4.108   7.796  0.3037  0.1619  1.3217
  130OSM   H14T13973   6.128   3.946   7.763 -0.2003  0.1770 -0.7310
  130OSM   C15S13974   5.965   3.938   7.910 -0.8892 -0.8283  0.1106
  130OSM   H15S13975   5.859   3.973   7.914 -0.6067  0.2297 -1.0838
  130OSM   H15T13976   6.027   3.974   7.995 -0.5554 -0.2507 -0.3725
  130OSM   C16S13977   5.980   3.787   7.928 -0.2015 -0.6660 -0.3716
  130OSM   H16S13978   6.069   3.755   7.869  2.1440  0.3443  2.4973
  130OSM   H16T13979   5.888   3.740   7.887  0.6816 -1.3742 -1.5873
  130OSM   C17S13980   5.983   3.742   8.077  0.8057  1.1210 -0.3843
  130OSM   H17S13981   5.896   3.783   8.132 -0.4447  2.2037 -3.0525
  130OSM   H17T13982   6.077   3.774   8.126 -0.6314  3.4165  0.9436
  130OSM   C18S13983   5.967   3.589   8.097  0.7125  0.0650 -0.2733
  130OSM   H18S13984   5.994   3.574   8.204 -2.4166  1.2180  0.7224
  130OSM   H18T13985   6.035   3.539   8.024  1.8777  3.5740 -1.6927
  130OSM   H18U13986   5.862   3.557   8.086  1.5599 -2.9837  0.0657
  130OSM    C1F13987   5.391   3.617   6.703 -0.1706 -0.7357 -0.5566
  130OSM     OF13988   5.407   3.506   6.650  0.4573 -0.8241  0.1235
  130OSM    C2F13989   5.281   3.629   6.798 -0.2209 -0.1361 -0.3096
  130OSM    H2F13990   5.183   3.637   6.745 -0.8541  0.1358  0.8586
  130OSM    H2G13991   5.288   3.724   6.856 -0.3381 -0.3048 -0.0153
  130OSM    C3F13992   5.278   3.523   6.911 -0.7673 -0.0015 -0.1148
  130OSM    H3F13993   5.375   3.536   6.963  0.1448  1.8309 -2.1407
  130OSM    H3G13994   5.261   3.424   6.865 -0.3182 -0.7492  1.2987
  130OSM    C4F13995   5.166   3.544   7.015 -0.6540 -0.0367 -0.2762
  130OSM    H4F13996   5.169   3.460   7.087  0.0026  1.4300  1.4336
  130OSM    H4G13997   5.080   3.546   6.945  1.1985 -1.0939 -2.6649
  130OSM    C5F13998   5.192   3.671   7.103  0.0456  0.5269  0.2569
  130OSM    H5F13999   5.146   3.753   7.044  0.0040  0.4712  0.2117
  130OSM    H5G14000   5.301   3.679   7.119  0.5102 -0.9323 -1.9203
  130OSM    C6F14001   5.130   3.660   7.237  0.1042 -0.2623 -0.0601
  130OSM    H6F14002   5.157   3.558   7.272 -0.5619 -1.1697 -2.0942
  130OSM    H6G14003   5.019   3.654   7.243  0.0761 -0.9028 -1.0556
  130OSM    C7F14004   5.160   3.766   7.341  0.5226  0.1898  0.2414
  130OSM    H7F14005   5.146   3.872   7.311  0.5103  0.6844  1.9154
  130OSM    H7G14006   5.265   3.758   7.378  0.3942  0.4223  0.6570
  130OSM    C8F14007   5.070   3.762   7.472  0.7480  0.0825  0.4454
  130OSM    H8F14008   4.963   3.759   7.443  0.4312 -0.2831  1.6080
  130OSM    H8G14009   5.090   3.862   7.518  0.3616  1.5169 -2.4010
  130OSM    C9F14010   5.102   3.638   7.550  0.5400 -0.0832 -0.3848
  130OSM    H9F14011   5.131   3.551   7.489 -2.1151 -1.1512 -0.1919
  130OSM   C10F14012   5.101   3.626   7.680 -0.6448 -0.2903  0.4442
  130OSM   H10F14013   5.116   3.529   7.728 -2.1634 -0.2419  1.0350
  130OSM   C11F14014   5.065   3.738   7.780  0.0683 -0.4571  0.5570
  130OSM   H11F14015   5.049   3.837   7.731  0.3775 -1.7056 -2.1204
  130OSM   H11G14016   5.155   3.749   7.844  1.2472  2.3980 -1.4421
  130OSM   C12F14017   4.940   3.682   7.850  0.2056  0.0257  0.0589
  130OSM   H12F14018   4.854   3.670   7.780 -0.7899  0.7070  1.1270
  130OSM   H12G14019   4.896   3.761   7.914  0.9345  0.5220 -0.0456
  130OSM   C13F14020   4.960   3.558   7.935  0.0745 -0.0291 -0.0033
  130OSM   H13F14021   5.065   3.559   7.972  0.2246  1.1827 -0.4261
  130OSM   H13G14022   4.943   3.467   7.874 -0.7032  0.6151 -0.7625
  130OSM   C14F14023   4.849   3.560   8.045 -1.2097 -0.4244 -0.2665
  130OSM   H14F14024   4.748   3.563   8.000 -0.7698  2.2307 -1.1190
  130OSM   H14G14025   4.866   3.656   8.098  0.4463 -0.6180 -0.4095
  130OSM   C15F14026   4.866   3.434   8.131  0.7250 -0.3450  0.1496
  130OSM   H15F14027   4.831   3.465   8.231 -0.0235  0.1634 -0.2667
  130OSM   H15G14028   4.972   3.407   8.149  0.6248 -0.0006  1.2859
  130OSM   C16F14029   4.797   3.315   8.066  0.0312  0.2360  0.3936
  130OSM   H16F14030   4.809   3.325   7.957 -0.2058  0.5482  0.3919
  130OSM   H16G14031   4.690   3.330   8.096 -0.2309 -2.1212  0.7239
  130OSM   C17F14032   4.853   3.176   8.110  0.1491 -0.3297 -0.2055
  130OSM   H17F14033   4.955   3.166   8.067  0.8874  1.6412  1.0072
  130OSM   H17G14034   4.786   3.097   8.068  1.1988 -0.5581 -1.4836
  130OSM   C18F14035   4.858   3.151   8.263  0.0790  0.0409  0.0484
  130OSM   H18F14036   4.865   3.041   8.282  0.8703  0.2106  0.8195
  130OSM   H18G14037   4.764   3.192   8.306  0.1920  1.7993 -1.3402
  130OSM   H18H14038   4.940   3.204   8.317 -1.2411 -1.2945  3.5538
  131OSM      N14039   5.286   1.394   6.200 -0.1486 -0.7741  0.1680
  131OSM    C1514040   5.283   1.261   6.129  0.4441  0.6089 -0.3770
  131OSM   H15A14041   5.242   1.274   6.029  0.4049  0.9776 -0.3151
  131OSM   H15B14042   5.217   1.198   6.186  1.6447  1.1211  1.6061
  131OSM   H15C14043   5.379   1.213   6.120 -0.9403 -2.5691  0.9769
  131OSM    C1414044   5.344   1.495   6.111 -0.0497  0.7816 -0.2143
  131OSM   H14A14045   5.342   1.585   6.171  2.3564 -0.4482  1.8035
  131OSM   H14B14046   5.287   1.521   6.023 -0.0695  0.9960 -0.1394
  131OSM   H14C14047   5.439   1.453   6.080  0.1218 -0.2250  1.5919
  131OSM    C1314048   5.146   1.429   6.239 -0.0395 -0.4087  0.5596
  131OSM   H13A14049   5.149   1.532   6.269  1.1358  0.0845 -1.1991
  131OSM   H13B14050   5.126   1.360   6.320  2.7883 -0.5994  1.1541
  131OSM   H13C14051   5.072   1.423   6.161  0.9577  0.1201 -0.4373
  131OSM    C1214052   5.361   1.389   6.335  1.0620 -0.0600  0.4596
  131OSM   H12A14053   5.316   1.303   6.382  0.5127  1.3355  2.5456
  131OSM   H12B14054   5.339   1.475   6.396  1.4404  1.1615 -1.0787
  131OSM    C1114055   5.513   1.375   6.343  0.2080 -0.0134 -0.5592
  131OSM   H11A14056   5.527   1.371   6.453 -0.2121  1.0087 -0.4637
  131OSM   H11B14057   5.570   1.465   6.311 -2.3162  1.8794  0.0765
  131OSM      P14058   5.671   1.158   6.316 -0.2205  0.0894  0.3809
  131OSM    O1314059   5.635   1.028   6.263  0.0610  0.0141 -0.6540
  131OSM    O1414060   5.794   1.215   6.261  0.1129  0.5183  0.1999
  131OSM    O1114061   5.678   1.157   6.477 -0.1501 -0.5575  0.4772
  131OSM    O1214062   5.556   1.260   6.278 -0.0436 -0.0406 -0.0734
  131OSM    C1S14063   5.798   1.166   6.547  0.1578  0.5266  0.4261
  131OSM    H1S14064   5.872   1.227   6.492  0.3155 -1.5607 -1.7522
  131OSM    H1T14065   5.846   1.066   6.540 -0.1806  0.0723  3.7623
  131OSM     NF14066   5.896   1.247   6.752 -0.0533 -0.2459  0.3967
  131OSM    HNF14067   5.914   1.181   6.825  2.4876  0.3220  0.3229
  131OSM    C2S14068   5.770   1.230   6.679  0.1235  0.0955  0.6942
  131OSM    H2S14069   5.732   1.333   6.664 -2.7718 -1.1749 -1.2369
  131OSM    C3S14070   5.663   1.137   6.760  0.1036  0.1857 -0.6730
  131OSM    H3S14071   5.710   1.038   6.777  0.2822  0.0988 -1.6680
  131OSM     O314072   5.526   1.101   6.718  0.2092  0.6755  0.1665
  131OSM    HO314073   5.540   1.057   6.634 -1.4428  0.2634  0.0879
  131OSM    C4S14074   5.647   1.203   6.899  0.6848 -0.5810 -0.4447
  131OSM    H4S14075   5.729   1.170   6.964  0.6342 -0.1794 -0.1776
  131OSM    C5S14076   5.562   1.299   6.941 -0.4361 -0.0436 -0.8811
  131OSM    H5S14077   5.490   1.319   6.860 -0.5738 -2.5878 -1.4046
  131OSM    C6S14078   5.555   1.365   7.074  0.3804 -0.1485  0.5861
  131OSM    H6S14079   5.464   1.344   7.133 -0.2827 -0.3187 -0.4957
  131OSM    H6T14080   5.567   1.475   7.060 -0.0066 -0.1832 -0.0173
  131OSM    C7S14081   5.668   1.340   7.176 -0.1868  0.2617  0.3003
  131OSM    H7S14082   5.762   1.367   7.123  0.0861 -0.5138  0.3778
  131OSM    H7T14083   5.685   1.230   7.183  4.0335  0.8746  0.8611
  131OSM    C8S14084   5.653   1.407   7.311 -0.3440 -0.1854 -0.0169
  131OSM    H8S14085   5.555   1.458   7.325 -0.4033 -0.6810  1.4465
  131OSM    H8T14086   5.731   1.485   7.315 -1.4471  0.8787  1.3242
  131OSM    C9S14087   5.683   1.314   7.423 -0.5884  0.2731  0.6206
  131OSM    H9S14088   5.785   1.272   7.431 -0.6115  0.5906  2.9267
  131OSM    H9T14089   5.618   1.225   7.410 -0.5450 -0.1162  2.7802
  131OSM   C10S14090   5.655   1.369   7.565  0.3069  0.1128  0.1920
  131OSM   H10S14091   5.546   1.390   7.568  0.5899  1.6100  0.1969
  131OSM   H10T14092   5.710   1.464   7.583  0.5096 -0.6392  3.7531
  131OSM   C11S14093   5.686   1.265   7.678 -0.4894  0.3916  0.1314
  131OSM   H11S14094   5.791   1.234   7.662 -0.5791  0.7520 -1.1943
  131OSM   H11T14095   5.619   1.177   7.670  0.9096 -0.7738  0.9698
  131OSM   C12S14096   5.663   1.314   7.819  0.1729  0.6049 -0.0004
  131OSM   H12S14097   5.557   1.343   7.839  0.6481  1.6636  1.0920
  131OSM   H12T14098   5.710   1.413   7.839 -0.7071  0.8980  0.6791
  131OSM   C13S14099   5.706   1.211   7.924  0.5131 -0.0437  0.2376
  131OSM   H13S14100   5.817   1.200   7.920  0.4507 -1.1521  1.2806
  131OSM   H13T14101   5.654   1.116   7.900  0.8221  0.1165 -1.0989
  131OSM   C14S14102   5.682   1.241   8.075  0.0791 -0.5449 -0.2033
  131OSM   H14S14103   5.773   1.300   8.103 -0.3446 -1.8353  4.3815
  131OSM   H14T14104   5.696   1.144   8.128 -4.4158 -0.0899  2.0513
  131OSM   C15S14105   5.553   1.315   8.116 -0.4321  0.6855  0.5996
  131OSM   H15S14106   5.476   1.238   8.091  1.3185 -1.0678  0.4600
  131OSM   H15T14107   5.522   1.404   8.058  0.0669  0.7058  0.3642
  131OSM   C16S14108   5.557   1.352   8.265 -0.2894  0.7954 -0.4998
  131OSM   H16S14109   5.654   1.402   8.287 -0.2598 -0.2276  1.7966
  131OSM   H16T14110   5.534   1.260   8.323 -2.1338  0.9617 -0.9284
  131OSM   C17S14111   5.449   1.448   8.310  0.2442  0.1727 -0.2102
  131OSM   H17S14112   5.355   1.399   8.277  0.2573  0.5760 -0.8600
  131OSM   H17T14113   5.459   1.545   8.256 -0.4359 -0.6673 -1.8729
  131OSM   C18S14114   5.431   1.474   8.459 -0.3965  0.2547 -0.2846
  131OSM   H18S14115   5.344   1.537   8.488  0.3248  0.6321  1.0767
  131OSM   H18T14116   5.526   1.525   8.484  0.0073 -0.5381 -0.1738
  131OSM   H18U14117   5.409   1.376   8.507 -0.3960  0.4058  0.0273
  131OSM    C1F14118   6.004   1.321   6.718  0.0906 -0.0102 -0.3928
  131OSM     OF14119   6.004   1.400   6.624 -0.4745 -0.3712 -0.1348
  131OSM    C2F14120   6.128   1.303   6.800 -0.5308 -0.8782 -0.1248
  131OSM    H2F14121   6.177   1.208   6.768  2.0040  0.4043 -0.1888
  131OSM    H2G14122   6.108   1.289   6.908 -3.5996  1.1522 -0.3796
  131OSM    C3F14123   6.226   1.428   6.783  0.5681 -0.0481  0.4358
  131OSM    H3F14124   6.163   1.515   6.812 -1.3280 -0.7723 -1.4044
  131OSM    H3G14125   6.259   1.448   6.679 -0.1275 -2.0669 -0.2082
  131OSM    C4F14126   6.329   1.418   6.891 -1.0660 -0.2514 -0.0049
  131OSM    H4F14127   6.396   1.339   6.850 -0.4093 -1.9289  4.0539
  131OSM    H4G14128   6.300   1.383   6.992  0.9180  1.7425  1.2855
  131OSM    C5F14129   6.419   1.540   6.917  0.1119 -0.6298  0.3811
  131OSM    H5F14130   6.350   1.625   6.935 -1.4189 -1.6975 -0.3829
  131OSM    H5G14131   6.466   1.545   6.817 -1.4242 -1.6990 -0.4060
  131OSM    C6F14132   6.521   1.519   7.035 -0.0614  0.3705 -0.1927
  131OSM    H6F14133   6.466   1.475   7.121  1.2561 -0.3707  0.2937
  131OSM    H6G14134   6.562   1.619   7.059  1.7220 -0.2751 -0.4562
  131OSM    C7F14135   6.641   1.424   6.994 -0.0648 -0.1985  0.1582
  131OSM    H7F14136   6.688   1.457   6.899 -0.1861  1.1707  0.5575
  131OSM    H7G14137   6.628   1.317   6.968  1.5863 -1.3199  3.6007
  131OSM    C8F14138   6.755   1.445   7.100  0.5764  0.1199  0.8335
  131OSM    H8F14139   6.743   1.551   7.130 -0.1643 -0.1944  1.6680
  131OSM    H8G14140   6.856   1.430   7.056  0.5371 -0.4103  0.9193
  131OSM    C9F14141   6.732   1.344   7.209  0.1848  0.2023  0.2396
  131OSM    H9F14142   6.691   1.250   7.169  0.9178  0.3055 -0.7816
  131OSM   C10F14143   6.754   1.356   7.343  0.1522  0.3615  0.6974
  131OSM   H10F14144   6.721   1.267   7.398 -1.3315  0.3401 -0.1858
  131OSM   C11F14145   6.802   1.476   7.413 -0.0761  0.2472 -0.1652
  131OSM   H11F14146   6.838   1.561   7.352  1.6925  1.0585  1.9447
  131OSM   H11G14147   6.896   1.456   7.468 -0.8140 -1.5780  0.4829
  131OSM   C12F14148   6.699   1.536   7.515 -0.6386 -0.3864 -0.0125
  131OSM   H12F14149   6.601   1.565   7.471  0.1259  0.4904 -1.1901
  131OSM   H12G14150   6.733   1.633   7.559 -1.4635 -0.5470  0.9800
  131OSM   C13F14151   6.673   1.450   7.643  0.0486 -0.4308 -0.0939
  131OSM   H13F14152   6.769   1.408   7.680 -0.9355 -1.1884  1.6527
  131OSM   H13G14153   6.616   1.359   7.617 -0.7876  0.2065 -0.5226
  131OSM   C14F14154   6.601   1.529   7.755 -0.5981  0.1922  0.1828
  131OSM   H14F14155   6.494   1.534   7.725 -1.0145 -2.8873  0.9505
  131OSM   H14G14156   6.634   1.635   7.762  0.0184  0.0233 -0.1402
  131OSM   C15F14157   6.610   1.457   7.891  0.8202 -0.7009  0.1759
  131OSM   H15F14158   6.706   1.474   7.944  1.7201 -0.0015 -1.6536
  131OSM   H15G14159   6.580   1.350   7.891 -1.6349 -0.0713 -1.0682
  131OSM   C16F14160   6.505   1.531   7.993 -0.1500  0.8334  0.1059
  131OSM   H16F14161   6.400   1.520   7.957 -0.3851  0.8258  0.7775
  131OSM   H16G14162   6.526   1.638   8.010 -0.6118  0.9971 -0.3358
  131OSM   C17F14163   6.516   1.463   8.134 -0.2429 -0.2921  0.6120
  131OSM   H17F14164   6.598   1.509   8.193  1.1125 -1.1316 -0.5873
  131OSM   H17G14165   6.541   1.357   8.116  1.1287  0.1319 -0.0043
  131OSM   C18F14166   6.387   1.461   8.222 -0.4404  0.5342 -0.2037
  131OSM   H18F14167   6.386   1.396   8.312 -2.1060  0.1700 -0.4627
  131OSM   H18G14168   6.299   1.429   8.163  0.8492 -0.2484 -1.7644
  131OSM   H18H14169   6.374   1.561   8.268 -2.3585 -0.5809  1.7639
  132OSM      N14170   1.466   5.398   6.188  0.1414  0.6686 -0.0977
  132OSM    C1514171   1.528   5.265   6.139  0.2268  0.2512 -0.2157
  132OSM   H15A14172   1.453   5.189   6.124 -0.4450  0.7717  0.4369
  132OSM   H15B14173   1.600   5.221   6.206 -2.5704 -2.8178  0.9493
  132OSM   H15C14174   1.585   5.285   6.050 -0.2245  1.1696 -0.3077
  132OSM    C1414175   1.578   5.464   6.252  0.7973  0.6470 -0.1390
  132OSM   H14A14176   1.621   5.399   6.327 -0.6551  0.3184  0.4202
  132OSM   H14B14177   1.555   5.559   6.299  0.9515  1.3673 -1.4848
  132OSM   H14C14178   1.664   5.476   6.188  1.0820  0.9668  0.2936
  132OSM    C1314179   1.409   5.482   6.082 -0.1753 -0.4195 -0.4285
  132OSM   H13A14180   1.388   5.583   6.114 -1.7907 -0.6612 -0.7106
  132OSM   H13B14181   1.317   5.448   6.037  0.5117 -0.4993 -1.7942
  132OSM   H13C14182   1.479   5.490   5.999 -0.8953  0.4973 -0.9595
  132OSM    C1214183   1.357   5.358   6.289 -0.8228  0.1720  0.1873
  132OSM   H12A14184   1.328   5.433   6.362 -2.6369 -0.0971 -0.2167
  132OSM   H12B14185   1.379   5.269   6.347 -1.4942  0.0629  0.2887
  132OSM    C1114186   1.221   5.315   6.224 -0.7668  0.0423  1.1785
  132OSM   H11A14187   1.189   5.388   6.147  2.3926  0.4216  0.1598
  132OSM   H11B14188   1.146   5.304   6.306 -1.5750 -2.5086  0.1547
  132OSM      P14189   1.244   5.042   6.236  0.7295  0.2119 -0.2248
  132OSM    O1314190   1.123   4.963   6.202 -0.4851  0.0475  0.2591
  132OSM    O1414191   1.376   4.980   6.205 -0.2463 -0.3860 -0.1423
  132OSM    O1114192   1.230   5.100   6.385 -0.0738  0.3125  0.3182
  132OSM    O1214193   1.236   5.184   6.157 -0.4132  0.9553 -0.6200
  132OSM    C1S14194   1.143   5.023   6.472 -0.2493 -0.1701 -0.1382
  132OSM    H1S14195   1.171   4.916   6.474  0.6412  0.0720  2.0292
  132OSM    H1T14196   1.033   5.022   6.454 -0.3058 -1.0757  0.2563
  132OSM     NF14197   1.084   4.993   6.711 -0.1766 -0.4357 -0.5517
  132OSM    HNF14198   0.995   5.019   6.747  0.3692 -2.6603  2.7314
  132OSM    C2S14199   1.153   5.079   6.619 -0.1540  0.0969 -0.1989
  132OSM    H2S14200   1.258   5.078   6.654 -0.0561 -0.4685 -0.5048
  132OSM    C3S14201   1.099   5.229   6.619  0.0964  0.2228  0.0096
  132OSM    H3S14202   1.002   5.238   6.566 -0.7193 -0.2387  1.3865
  132OSM     O314203   1.194   5.311   6.549  0.4106 -0.0465  1.0091
  132OSM    HO314204   1.250   5.246   6.507  1.5053  1.0563  0.7149
  132OSM    C4S14205   1.091   5.280   6.758  0.5343  0.3091  0.3422
  132OSM    H4S14206   0.990   5.293   6.799  0.3955  0.5951 -0.0814
  132OSM    C5S14207   1.187   5.329   6.838  0.5507 -0.0524  0.0077
  132OSM    H5S14208   1.294   5.325   6.817  0.9098 -0.3034  1.7944
  132OSM    C6S14209   1.145   5.388   6.970 -0.4509  0.1885  0.0849
  132OSM    H6S14210   1.037   5.412   6.978 -0.4434  0.2014  0.1453
  132OSM    H6T14211   1.198   5.485   6.976  0.3533  0.0083 -2.9562
  132OSM    C7S14212   1.182   5.298   7.091 -0.1208 -0.4951  0.6067
  132OSM    H7S14213   1.287   5.266   7.074  0.3466  1.3972 -0.2397
  132OSM    H7T14214   1.120   5.207   7.083  0.4085 -0.8995  1.0347
  132OSM    C8S14215   1.191   5.354   7.234  0.3642  0.3723  0.4539
  132OSM    H8S14216   1.136   5.451   7.237  1.5058  0.9954  1.4786
  132OSM    H8T14217   1.299   5.378   7.247  0.9893 -1.3742 -1.2298
  132OSM    C9S14218   1.148   5.253   7.349 -0.1060  0.5117  0.6643
  132OSM    H9S14219   1.222   5.171   7.342 -0.2236  0.5923 -2.7698
  132OSM    H9T14220   1.053   5.202   7.321 -0.3845  2.1232 -1.4931
  132OSM   C10S14221   1.158   5.321   7.480  0.1286  0.2678 -0.6131
  132OSM   H10S14222   1.057   5.366   7.491 -0.5331 -1.5591  1.1639
  132OSM   H10T14223   1.243   5.392   7.488  1.4543 -1.3446 -0.0419
  132OSM   C11S14224   1.169   5.220   7.585 -0.5663  0.9480  0.5391
  132OSM   H11S14225   1.270   5.176   7.569 -0.8688  0.2471  0.5375
  132OSM   H11T14226   1.095   5.141   7.560 -0.0258  1.0139 -1.3967
  132OSM   C12S14227   1.146   5.283   7.725  0.2862  0.4818  0.0072
  132OSM   H12S14228   1.038   5.302   7.738 -0.4289 -1.4299 -2.7432
  132OSM   H12T14229   1.200   5.379   7.707  1.0077  0.0001 -0.4339
  132OSM   C13S14230   1.213   5.200   7.833 -0.2926 -0.0171 -0.4168
  132OSM   H13S14231   1.316   5.191   7.793  0.7006 -0.8795  2.2947
  132OSM   H13T14232   1.178   5.095   7.843  2.9796 -1.0831  0.4298
  132OSM   C14S14233   1.211   5.261   7.977  0.2579 -0.1029 -0.6313
  132OSM   H14S14234   1.112   5.235   8.020 -0.7580  0.6279 -2.4738
  132OSM   H14T14235   1.219   5.371   7.964 -1.0422 -0.2082 -2.5227
  132OSM   C15S14236   1.323   5.202   8.064  0.7511  0.0702 -0.1400
  132OSM   H15S14237   1.420   5.199   8.010  0.8004  1.3611 -0.1236
  132OSM   H15T14238   1.292   5.099   8.094 -2.7455  1.5473  1.6375
  132OSM   C16S14239   1.354   5.288   8.194 -0.7966  0.1935 -0.6234
  132OSM   H16S14240   1.376   5.392   8.159  1.1723 -0.5486 -1.6423
  132OSM   H16T14241   1.452   5.252   8.232 -1.2695 -1.8933 -1.3660
  132OSM   C17S14242   1.243   5.275   8.299  0.1178  0.2715 -0.7258
  132OSM   H17S14243   1.225   5.167   8.315  0.1534  0.3552 -0.1179
  132OSM   H17T14244   1.151   5.311   8.248 -1.6302 -1.5749  1.0587
  132OSM   C18S14245   1.279   5.355   8.427  0.6042  0.2438  0.5071
  132OSM   H18S14246   1.200   5.340   8.504  1.5650 -1.6430  1.1658
  132OSM   H18T14247   1.284   5.464   8.405 -0.3107  0.5998  1.9906
  132OSM   H18U14248   1.373   5.324   8.477 -0.9045 -0.5445  2.9826
  132OSM    C1F14249   1.120   4.869   6.732  0.4117 -0.1257 -0.1016
  132OSM     OF14250   1.218   4.821   6.679  0.1695 -0.4653 -0.7483
  132OSM    C2F14251   1.018   4.784   6.813  0.1526 -0.7049  0.6026
  132OSM    H2F14252   0.915   4.814   6.785 -0.1846 -1.7392  0.7207
  132OSM    H2G14253   1.033   4.798   6.922 -1.7286 -3.8831  1.3426
  132OSM    C3F14254   1.030   4.635   6.768  0.6711 -0.0780 -0.6858
  132OSM    H3F14255   1.006   4.601   6.665  4.0672 -0.6062 -1.3650
  132OSM    H3G14256   0.939   4.587   6.808  0.8117  0.2192 -0.0055
  132OSM    C4F14257   1.152   4.567   6.831 -0.6012  0.9415 -0.2943
  132OSM    H4F14258   1.157   4.608   6.934 -1.4787  1.1069 -0.3090
  132OSM    H4G14259   1.251   4.592   6.787  1.2816 -1.2967  2.4925
  132OSM    C5F14260   1.148   4.416   6.845 -0.7220 -0.4621  0.1985
  132OSM    H5F14261   1.189   4.378   6.749  1.4226  1.2069  0.4188
  132OSM    H5G14262   1.041   4.386   6.859 -0.0429 -2.3846  1.5851
  132OSM    C6F14263   1.221   4.356   6.965 -0.0606  0.3954 -0.4253
  132OSM    H6F14264   1.189   4.411   7.056 -0.8317  1.0041 -1.0522
  132OSM    H6G14265   1.329   4.359   6.940  0.2776  0.4179  1.0030
  132OSM    C7F14266   1.181   4.219   6.990 -0.3248  0.3547 -0.0452
  132OSM    H7F14267   1.213   4.151   6.908  1.6713 -1.0180  1.8195
  132OSM    H7G14268   1.071   4.214   6.975 -0.0208  1.5207 -3.2516
  132OSM    C8F14269   1.225   4.167   7.124  0.2906  0.1318 -0.7283
  132OSM    H8F14270   1.185   4.064   7.131  1.2535 -0.1592  0.6406
  132OSM    H8G14271   1.172   4.225   7.202  0.5370  0.6567 -0.9504
  132OSM    C9F14272   1.372   4.159   7.139  0.0842  0.3355  0.5066
  132OSM    H9F14273   1.425   4.137   7.045  1.4026 -0.3718  1.4104
  132OSM   C10F14274   1.459   4.174   7.239  0.7488  0.0611  0.1058
  132OSM   H10F14275   1.564   4.147   7.222  0.7925  0.0034  0.4578
  132OSM   C11F14276   1.409   4.201   7.377 -0.1942  0.3108  0.0989
  132OSM   H11F14277   1.299   4.203   7.394  0.0406 -0.7040  1.9329
  132OSM   H11G14278   1.443   4.306   7.390  0.6234 -0.2953  3.3578
  132OSM   C12F14279   1.482   4.119   7.490  0.0215 -0.1308  0.2408
  132OSM   H12F14280   1.593   4.118   7.483  0.2816  2.9796  2.6150
  132OSM   H12G14281   1.442   4.015   7.493  1.3276 -0.6064  2.6040
  132OSM   C13F14282   1.448   4.173   7.626  0.6629 -0.2749  0.0311
  132OSM   H13F14283   1.338   4.186   7.637  0.5300  0.8136 -2.2816
  132OSM   H13G14284   1.481   4.279   7.629 -2.1155  0.6293 -0.3681
  132OSM   C14F14285   1.513   4.107   7.748  0.2328 -0.1451  0.0539
  132OSM   H14F14286   1.623   4.115   7.733  0.2063  1.6960  0.7269
  132OSM   H14G14287   1.478   4.002   7.737  2.8423 -0.9733 -0.7133
  132OSM   C15F14288   1.465   4.166   7.889  0.8430 -0.1080  0.4616
  132OSM   H15F14289   1.355   4.178   7.890  1.0365  2.2751 -1.8240
  132OSM   H15G14290   1.504   4.270   7.893  2.4485 -0.4595 -3.8201
  132OSM   C16F14291   1.509   4.077   8.008  0.2666 -0.0102 -0.1824
  132OSM   H16F14292   1.617   4.090   8.030  0.3748 -1.0627 -0.0670
  132OSM   H16G14293   1.494   3.970   7.982  1.2856  0.3277 -2.2900
  132OSM   C17F14294   1.437   4.109   8.139 -0.0053 -0.1763  0.2431
  132OSM   H17F14295   1.487   4.033   8.203  0.7609 -0.4141 -0.6171
  132OSM   H17G14296   1.334   4.069   8.129 -0.4490  0.7493  1.1118
  132OSM   C18F14297   1.457   4.247   8.198  0.4761 -0.4057  0.1339
  132OSM   H18F14298   1.403   4.253   8.294  1.4770  2.2194  0.5629
  132OSM   H18G14299   1.401   4.326   8.143  0.3220  1.0005  2.2791
  132OSM   H18H14300   1.565   4.268   8.214  0.5341 -1.0021  0.5329
  133SAPE     N14301   2.915   3.282  10.923 -0.2909  0.7628  0.1554
  133SAPE   HN114302   2.981   3.237  10.857 -1.7048 -1.6846  0.3685
  133SAPE   HN214303   2.883   3.368  10.873 -2.0488  0.1886  0.2404
  133SAPE   HN314304   2.968   3.301  11.010  3.1167 -0.1933 -1.6601
  133SAPE   C1214305   2.801   3.186  10.941  0.6955 -0.5365  0.4784
  133SAPE  H12A14306   2.747   3.187  10.844 -0.3707  2.9622  1.0403
  133SAPE  H12B14307   2.740   3.232  11.022  0.5455 -0.0275  0.0797
  133SAPE   C1114308   2.842   3.049  10.988 -0.1698 -0.6184 -0.1170
  133SAPE  H11A14309   2.747   2.998  11.013 -0.6094 -0.4736 -1.4626
  133SAPE  H11B14310   2.910   3.048  11.077 -0.6730  0.5097  0.2876
  133SAPE     P14311   2.826   2.909  10.770  0.1315  0.4156  0.0198
  133SAPE   O1314312   2.683   2.953  10.760  0.6002  0.0591 -0.5552
  133SAPE   O1414313   2.904   2.885  10.645 -0.3323 -0.2862 -0.0038
  133SAPE   O1214314   2.911   2.995  10.876  0.3153  0.0194  0.0604
  133SAPE   O1114315   2.837   2.772  10.843  0.6043 -0.1803  0.2346
  133SAPE    C114316   2.766   2.658  10.793  0.2805  0.4539  0.0628
  133SAPE    HA14317   2.765   2.577  10.869  2.9120 -2.8624 -3.1939
  133SAPE    HB14318   2.660   2.683  10.771  0.1865 -1.6670 -2.2125
  133SAPE    C214319   2.835   2.595  10.671  0.5096 -0.3831 -0.3002
  133SAPE    HS14320   2.945   2.610  10.674  0.4919 -0.3518  0.4123
  133SAPE   O2114321   2.774   2.650  10.553 -0.6497 -0.0773 -0.7999
  133SAPE   C2114322   2.847   2.670  10.451 -0.2680  1.1823  0.6582
  133SAPE   O2214323   2.969   2.643  10.445 -0.0400 -0.6775 -1.0530
  133SAPE   C2214324   2.774   2.751  10.345  0.1769  0.4821 -0.6789
  133SAPE   H2R14325   2.683   2.692  10.319  0.7762 -1.7374  2.0183
  133SAPE   H2S14326   2.752   2.856  10.376  2.5101  0.5361  0.9489
  133SAPE    C314327   2.797   2.439  10.675 -0.8609  0.2293  0.2424
  133SAPE    HX14328   2.689   2.441  10.701 -0.8380  2.8659  0.3493
  133SAPE    HY14329   2.852   2.393  10.760  0.1482 -0.9500 -1.0360
  133SAPE   O3114330   2.845   2.369  10.559 -0.1967 -0.3499 -0.3330
  133SAPE   C3114331   2.766   2.343  10.455 -0.2984  0.1971  0.1449
  133SAPE   O3214332   2.654   2.386  10.448 -0.3346  0.3530  0.6606
  133SAPE   C3214333   2.832   2.234  10.362  0.2664  0.3035 -0.0992
  133SAPE   H2X14334   2.795   2.139  10.407 -0.3652  0.0697 -1.1038
  133SAPE   H2Y14335   2.943   2.231  10.368  0.3191 -1.0834 -1.4291
  133SAPE   C2314336   2.868   2.773  10.220  0.1021 -0.3898  0.0268
  133SAPE   H3R14337   2.967   2.804  10.259  0.1789 -0.7931  0.1518
  133SAPE   H3S14338   2.836   2.868  10.172  0.2117 -0.9663 -1.1953
  133SAPE   C2414339   2.864   2.655  10.123  0.5206  0.4815  0.2722
  133SAPE   H4R14340   2.896   2.570  10.186 -2.0311  0.7172  1.9882
  133SAPE   H4S14341   2.943   2.678  10.049  0.4708  2.8539  0.9232
  133SAPE   C2514342   2.729   2.621  10.057  0.0931  0.3082 -0.8019
  133SAPE   H5R14343   2.649   2.586  10.124  1.5668 -0.6693  0.4889
  133SAPE   C2614344   2.706   2.637   9.923  0.9903 -0.1993  0.0788
  133SAPE   H6R14345   2.606   2.613   9.882  0.4968  1.2253  0.4107
  133SAPE   C2714346   2.799   2.700   9.818  0.6100 -0.4972  0.0517
  133SAPE   H7R14347   2.906   2.683   9.842  1.0811  0.0701 -1.5682
  133SAPE   H7S14348   2.775   2.808   9.829  2.5261 -0.1160  0.7874
  133SAPE   C2814349   2.755   2.651   9.680 -0.4955  0.1834 -0.1441
  133SAPE   H8R14350   2.708   2.551   9.676  0.2522 -0.1614 -0.4594
  133SAPE   C2914351   2.776   2.714   9.561 -0.1590 -0.1714  0.7633
  133SAPE   H9R14352   2.735   2.668   9.470 -0.7148 -0.1052  0.9737
  133SAPE  C21014353   2.852   2.845   9.521  0.3905  0.1966 -0.0756
  133SAPE  H10R14354   2.835   2.922   9.599  2.4617  0.6376 -0.0163
  133SAPE  H10S14355   2.816   2.886   9.424 -0.2702  3.8753  1.6300
  133SAPE  C21114356   3.002   2.837   9.517 -0.4807 -0.9026 -0.0366
  133SAPE  H11R14357   3.049   2.794   9.606 -2.9249 -0.6613  1.4206
  133SAPE  C21214358   3.080   2.861   9.409  0.3195  0.2781 -0.2683
  133SAPE  H12R14359   3.189   2.849   9.415  0.2101 -0.4106  0.5155
  133SAPE  C21314360   3.035   2.906   9.269 -0.2189  1.0401 -0.3532
  133SAPE  H13R14361   3.125   2.929   9.208  1.6845 -1.5036  1.4046
  133SAPE  H13S14362   2.988   3.006   9.281 -0.8194  0.5796  1.3298
  133SAPE  C21414363   2.944   2.820   9.184  0.9731  0.8561 -0.4230
  133SAPE  H14R14364   2.944   2.715   9.218  1.9068  0.2161 -2.3484
  133SAPE  C21514365   2.881   2.861   9.072 -0.4873  0.2961 -0.0666
  133SAPE  H15R14366   2.817   2.787   9.023  0.2889  0.2209 -0.9711
  133SAPE  C21614367   2.883   2.998   9.010 -0.0993  0.6078 -0.2483
  133SAPE  H16R14368   2.933   3.075   9.073  0.9486 -0.3121  0.0649
  133SAPE  H16S14369   2.776   3.028   9.000  0.0778  1.0016 -0.9695
  133SAPE  C21714370   2.941   3.004   8.874 -0.7231  0.3850 -0.3325
  133SAPE  H17R14371   2.915   2.915   8.812 -3.7337  1.4740 -0.7005
  133SAPE  H17S14372   3.048   3.034   8.878 -0.2073 -1.3840 -0.3331
  133SAPE  C21814373   2.892   3.138   8.798  0.0940  0.0894 -0.1083
  133SAPE  H18R14374   2.783   3.156   8.806  0.3329  0.5824  2.4362
  133SAPE  H18S14375   2.902   3.120   8.689  0.4779 -1.6892  0.2018
  133SAPE  C21914376   2.978   3.257   8.841 -0.5917  0.6351 -0.4554
  133SAPE  H19R14377   3.075   3.256   8.788  0.2412 -1.5863  1.0886
  133SAPE  H19S14378   3.012   3.252   8.947 -0.6826 -0.9907 -0.4991
  133SAPE  C22014379   2.900   3.387   8.827  0.1843 -0.0804  0.2991
  133SAPE  H20R14380   2.866   3.393   8.722  0.2867  0.1711  0.2800
  133SAPE  H20S14381   2.961   3.474   8.859 -0.9817  1.1830 -0.9014
  133SAPE  H20T14382   2.806   3.383   8.887 -0.9340 -0.1335 -1.4380
  133SAPE   C3314383   2.778   2.252  10.218  0.0960 -0.7140 -0.5287
  133SAPE   H3X14384   2.790   2.358  10.186  0.0672  0.0083  1.8097
  133SAPE   H3Y14385   2.669   2.232  10.218  0.4198 -2.5053  0.1730
  133SAPE   C3414386   2.841   2.168  10.102 -0.3141  0.4525  0.8424
  133SAPE   H4X14387   2.794   2.068  10.107 -1.0586  0.7633  0.1578
  133SAPE   H4Y14388   2.952   2.162  10.113 -0.1140 -1.9519 -1.9221
  133SAPE   C3514389   2.824   2.231   9.969  0.0845 -0.3054  0.1922
  133SAPE   H5X14390   2.869   2.332   9.964 -0.4294  0.0204  1.8346
  133SAPE   H5Y14391   2.714   2.235   9.953 -0.1253  0.3023  1.6927
  133SAPE   C3614392   2.866   2.158   9.842  0.0579  0.3901  0.1378
  133SAPE   H6X14393   2.806   2.065   9.848 -0.2663  0.5382 -0.6894
  133SAPE   H6Y14394   2.973   2.133   9.860 -0.8425 -1.3919  3.3556
  133SAPE   C3714395   2.830   2.235   9.715 -0.7233  0.0384  0.4045
  133SAPE   H7X14396   2.833   2.345   9.728  0.4938  0.0737 -0.1138
  133SAPE   H7Y14397   2.720   2.222   9.707 -0.6395 -1.4253  1.3174
  133SAPE   C3814398   2.900   2.208   9.585 -0.1656 -0.2971 -0.3712
  133SAPE   H8X14399   2.895   2.099   9.567  1.5147 -0.2923 -0.9706
  133SAPE   H8Y14400   3.006   2.238   9.596 -0.4592  0.6941 -0.1772
  133SAPE   C3914401   2.831   2.279   9.463 -0.7590  0.7870 -1.2939
  133SAPE   H9X14402   2.830   2.388   9.486  1.9986  0.5877 -0.1130
  133SAPE   H9Y14403   2.724   2.251   9.474 -1.2870  3.0434 -0.3047
  133SAPE  C31014404   2.896   2.239   9.332 -0.1703 -0.2425  0.1733
  133SAPE  H10X14405   2.881   2.130   9.315 -2.3992 -0.7054  4.2548
  133SAPE  H10Y14406   3.006   2.254   9.336 -0.0551 -0.7278 -1.0814
  133SAPE  C31114407   2.855   2.313   9.203  0.0062 -0.0718  1.0246
  133SAPE  H11X14408   2.877   2.421   9.210  2.1280 -0.5486  2.2298
  133SAPE  H11Y14409   2.747   2.289   9.194  0.4283 -1.6236 -0.3416
  133SAPE  C31214410   2.925   2.263   9.071  0.1785 -0.1751 -0.6300
  133SAPE  H12X14411   2.940   2.154   9.080 -1.8875 -0.3429  1.3753
  133SAPE  H12Y14412   3.024   2.313   9.072 -1.1942  2.7056  1.7233
  133SAPE  C31314413   2.843   2.296   8.942 -0.4913  0.4525 -0.6006
  133SAPE  H13X14414   2.735   2.272   8.952 -0.3036  0.4091  1.5315
  133SAPE  H13Y14415   2.873   2.231   8.858 -1.6490  0.1779 -0.8114
  133SAPE  C31414416   2.847   2.446   8.897 -0.5868 -0.1162 -0.4140
  133SAPE  H14X14417   2.861   2.511   8.987 -2.1279 -2.1566  1.3595
  133SAPE  H14Y14418   2.747   2.468   8.853 -1.5331 -1.4004  1.0460
  133SAPE  C31514419   2.950   2.464   8.789 -0.3692  0.2942 -0.3846
  133SAPE  H15X14420   2.933   2.392   8.707  0.6689 -0.3397 -0.0431
  133SAPE  H15Y14421   3.053   2.444   8.825 -0.0674 -0.1612 -1.4811
  133SAPE  C31614422   2.953   2.598   8.712  0.0851 -0.1542  0.4799
  133SAPE  H16X14423   3.057   2.607   8.674 -0.3566 -0.5511 -0.8562
  133SAPE  H16Y14424   2.936   2.685   8.779  2.3831  0.4444  0.3277
  133SAPE  C31714425   2.850   2.594   8.594  0.3233  0.0049 -0.1294
  133SAPE  H17X14426   2.757   2.564   8.647  0.8193 -0.3095  0.5872
  133SAPE  H17Y14427   2.876   2.522   8.513  2.7091  0.7427 -0.0645
  133SAPE  C31814428   2.834   2.736   8.534  0.3318 -0.3545  0.7897
  133SAPE  H18X14429   2.837   2.818   8.609 -2.2725 -0.3471  0.9330
  133SAPE  H18Y14430   2.732   2.735   8.492  0.1534  1.9547  1.1129
  133SAPE  H18Z14431   2.906   2.750   8.451  0.6694 -3.1042  0.5507
  134SAPE     N14432   5.645   3.545  10.713 -0.1088 -0.3367 -0.5140
  134SAPE   HN114433   5.556   3.520  10.666 -0.0935 -0.8289 -0.2817
  134SAPE   HN214434   5.637   3.521  10.814  1.7573 -0.4193 -0.3681
  134SAPE   HN314435   5.648   3.649  10.717 -0.9210 -0.2402 -2.0079
  134SAPE   C1214436   5.772   3.486  10.644 -0.5919 -0.2800  0.3760
  134SAPE  H12A14437   5.859   3.483  10.711 -0.7877 -1.0920  0.5976
  134SAPE  H12B14438   5.795   3.549  10.555 -1.2362 -0.1016  0.3304
  134SAPE   C1114439   5.751   3.345  10.600  0.6254  0.0827 -0.5917
  134SAPE  H11A14440   5.835   3.303  10.540  1.8126 -0.5483  1.4732
  134SAPE  H11B14441   5.671   3.337  10.524  0.1468  1.3689 -0.2317
  134SAPE     P14442   5.847   3.188  10.780  0.2825  0.0729  0.2131
  134SAPE   O1314443   5.952   3.282  10.808  0.5270 -0.2416  0.4778
  134SAPE   O1414444   5.801   3.084  10.877 -0.2594 -0.0031  0.2961
  134SAPE   O1214445   5.722   3.260  10.712 -0.1985  0.1659 -0.2696
  134SAPE   O1114446   5.906   3.107  10.660  0.1574 -0.6004  0.7966
  134SAPE    C114447   5.841   3.013  10.573 -0.1580 -0.0167  0.3234
  134SAPE    HA14448   5.866   2.912  10.611  0.6287  0.2096  0.4170
  134SAPE    HB14449   5.731   3.021  10.586 -0.2738  0.6172 -0.9708
  134SAPE    C214450   5.892   3.034  10.428 -0.4464  0.5594  0.0808
  134SAPE    HS14451   5.872   3.141  10.403 -0.9543  0.6224  0.7318
  134SAPE   O2114452   5.826   2.947  10.329 -0.2018  0.3411 -0.3146
  134SAPE   C2114453   5.702   2.962  10.320  0.2266 -0.7293  0.4598
  134SAPE   O2214454   5.638   3.056  10.370  0.1445  0.8268  0.4581
  134SAPE   C2214455   5.640   2.859  10.228  1.0578 -0.6485  0.3716
  134SAPE   H2R14456   5.724   2.815  10.169  1.4454 -1.3987  1.4836
  134SAPE   H2S14457   5.596   2.777  10.287  2.2796  0.0670  2.3493
  134SAPE    C314458   6.049   3.026  10.422  0.1707 -0.1988 -0.0550
  134SAPE    HX14459   6.081   2.926  10.460 -1.7948 -0.5064  0.8193
  134SAPE    HY14460   6.085   3.103  10.494 -0.6348 -1.1681  1.4197
  134SAPE   O3114461   6.096   3.052  10.285 -0.1764  0.2054  0.1733
  134SAPE   C3114462   6.229   3.057  10.276  0.3614 -0.4918 -0.4878
  134SAPE   O3214463   6.307   3.061  10.365  0.0827  0.1617 -0.3345
  134SAPE   C3214464   6.272   3.051  10.125  0.4835 -0.0018 -0.9733
  134SAPE   H2X14465   6.210   3.122  10.066  3.0351  0.3055 -3.4286
  134SAPE   H2Y14466   6.251   2.948  10.091 -1.7734 -0.0463  0.4995
  134SAPE   C2314467   5.538   2.917  10.134 -0.2382 -0.3027 -0.5740
  134SAPE   H3R14468   5.598   2.982  10.067  0.4175  0.2132  0.5026
  134SAPE   H3S14469   5.465   2.984  10.185 -0.5976 -1.6050  0.6668
  134SAPE   C2414470   5.462   2.820  10.041 -0.9232  0.2117 -0.2341
  134SAPE   H4R14471   5.394   2.753  10.097  0.5770 -1.3054 -0.1882
  134SAPE   H4S14472   5.539   2.761   9.987 -1.6105 -1.8346  0.9361
  134SAPE   C2514473   5.387   2.900   9.941 -0.1744 -0.4345  0.2523
  134SAPE   H5R14474   5.285   2.919   9.979  0.4127 -0.9440  2.1463
  134SAPE   C2614475   5.440   2.948   9.823  0.1353 -0.4095  0.2734
  134SAPE   H6R14476   5.382   3.014   9.757  0.0359 -1.1892 -0.4141
  134SAPE   C2714477   5.585   2.927   9.783 -0.0901 -0.0452  0.0035
  134SAPE   H7R14478   5.569   2.860   9.696 -2.9486 -0.0850  0.5098
  134SAPE   H7S14479   5.643   2.875   9.862 -1.3787  0.6241  1.4338
  134SAPE   C2814480   5.660   3.057   9.756 -0.2021  0.5689 -0.6322
  134SAPE   H8R14481   5.675   3.120   9.845 -0.9200 -0.9864  0.6218
  134SAPE   C2914482   5.702   3.101   9.635  0.0801 -0.5883 -0.2196
  134SAPE   H9R14483   5.757   3.196   9.624 -0.3875 -0.4703 -1.6939
  134SAPE  C21014484   5.662   3.046   9.503 -1.0506 -0.1690 -0.6010
  134SAPE  H10R14485   5.581   2.970   9.504 -1.2320  0.0068 -1.3852
  134SAPE  H10S14486   5.751   2.991   9.464  0.0927  2.1692 -1.4521
  134SAPE  C21114487   5.627   3.153   9.397  0.8423  1.0422 -0.0097
  134SAPE  H11R14488   5.705   3.152   9.319  0.8352 -0.7947 -0.0163
  134SAPE  C21214489   5.520   3.232   9.391  0.3702  0.8075 -0.7319
  134SAPE  H12R14490   5.508   3.304   9.309  1.3989 -0.8640 -2.3987
  134SAPE  C21314491   5.412   3.242   9.495 -0.0983 -0.0422  0.0076
  134SAPE  H13R14492   5.445   3.202   9.593 -1.0448 -0.3551  0.2038
  134SAPE  H13S14493   5.334   3.174   9.455 -0.1349 -0.2862  0.4902
  134SAPE  C21414494   5.364   3.384   9.503 -0.0326  0.3427 -0.6918
  134SAPE  H14R14495   5.392   3.452   9.422 -0.4346  0.7425 -0.5016
  134SAPE  C21514496   5.296   3.438   9.610 -0.4845  0.1473 -0.0453
  134SAPE  H15R14497   5.262   3.543   9.605  0.9483  0.7351  1.9364
  134SAPE  C21614498   5.258   3.362   9.742  0.6512  1.1237 -0.1925
  134SAPE  H16R14499   5.275   3.253   9.725  1.7598  0.8871  2.1695
  134SAPE  H16S14500   5.148   3.372   9.754  0.4691 -0.3746 -0.4797
  134SAPE  C21714501   5.337   3.400   9.866 -0.1551  0.2830  0.3235
  134SAPE  H17R14502   5.329   3.510   9.878  5.5896  0.7169  1.5067
  134SAPE  H17S14503   5.441   3.366   9.847  0.2036  1.5714 -0.0607
  134SAPE  C21814504   5.287   3.332   9.998 -0.3128 -1.0360  1.1055
  134SAPE  H18R14505   5.274   3.223   9.987 -1.9841 -0.6712 -0.8168
  134SAPE  H18S14506   5.183   3.370  10.010 -0.8012 -1.7910 -0.6024
  134SAPE  C21914507   5.361   3.379  10.133  0.3646 -0.1794 -0.3901
  134SAPE  H19R14508   5.295   3.352  10.218  1.2188 -0.9003  0.0459
  134SAPE  H19S14509   5.357   3.490  10.127  1.4253 -0.1826 -1.3441
  134SAPE  C22014510   5.507   3.327  10.153  0.4693 -0.3721  0.0730
  134SAPE  H20R14511   5.558   3.335  10.054 -2.0176  1.7555 -1.0912
  134SAPE  H20S14512   5.495   3.222  10.187  0.5821 -0.4915 -0.2534
  134SAPE  H20T14513   5.557   3.391  10.229  1.8063 -2.1557  0.7488
  134SAPE   C3314514   6.423   3.085  10.113  0.3380 -0.2285 -0.3781
  134SAPE   H3X14515   6.483   3.002  10.156  2.5186  1.5584  0.1273
  134SAPE   H3Y14516   6.452   3.168  10.181  0.5823 -0.3828 -0.2910
  134SAPE   C3414517   6.465   3.113   9.966  0.2412  0.2584 -0.1489
  134SAPE   H4X14518   6.576   3.118   9.967  0.2122  0.7399  0.8440
  134SAPE   H4Y14519   6.432   3.217   9.942 -0.4096  0.1291  0.1831
  134SAPE   C3514520   6.434   3.024   9.854 -0.4037 -0.7308  0.7817
  134SAPE   H5X14521   6.325   3.003   9.843 -0.5716  0.0831  0.8958
  134SAPE   H5Y14522   6.478   2.923   9.874  2.1644  0.4034  1.0480
  134SAPE   C3614523   6.485   3.068   9.720  0.3739  0.1376  0.6253
  134SAPE   H6X14524   6.594   3.055   9.703  0.4394  0.2582  0.9645
  134SAPE   H6Y14525   6.475   3.178   9.718 -1.0213  0.0229  1.1585
  134SAPE   C3714526   6.420   2.988   9.601  0.5004  0.0241  0.4893
  134SAPE   H7X14527   6.313   3.011   9.614  0.8638  1.7069  0.6687
  134SAPE   H7Y14528   6.429   2.877   9.600  0.9891  0.0705 -0.8502
  134SAPE   C3814529   6.463   3.047   9.468  0.1629 -0.4835  0.1080
  134SAPE   H8X14530   6.569   3.017   9.456 -0.1975 -1.8228  0.2286
  134SAPE   H8Y14531   6.445   3.157   9.459 -3.3189 -0.8191  2.0106
  134SAPE   C3914532   6.397   2.988   9.344 -0.5269 -1.0480  0.7282
  134SAPE   H9X14533   6.290   2.984   9.373 -0.3984 -0.5473  1.2689
  134SAPE   H9Y14534   6.429   2.884   9.319 -1.3396 -1.2802  0.6354
  134SAPE  C31014535   6.429   3.077   9.224  0.0052  0.2784 -0.2756
  134SAPE  H10X14536   6.536   3.063   9.196  0.2329 -0.3886  0.8859
  134SAPE  H10Y14537   6.419   3.186   9.241  0.7062  0.3382 -0.2541
  134SAPE  C31114538   6.356   3.050   9.093 -0.5881  0.4484  0.0666
  134SAPE  H11X14539   6.326   2.943   9.085  0.4220  0.2326 -0.9968
  134SAPE  H11Y14540   6.403   3.058   8.992 -0.5690 -2.0584 -0.1681
  134SAPE  C31214541   6.225   3.131   9.079 -0.6617 -0.2781  1.1345
  134SAPE  H12X14542   6.258   3.226   9.126 -2.8235  1.4911 -0.7948
  134SAPE  H12Y14543   6.143   3.090   9.143 -0.2649 -2.5451  0.2191
  134SAPE  C31314544   6.175   3.158   8.943  0.2098 -0.8097  0.3332
  134SAPE  H13X14545   6.067   3.136   8.935  0.4523 -1.6760 -0.6035
  134SAPE  H13Y14546   6.229   3.091   8.873  0.7427  0.8746 -0.9237
  134SAPE  C31414547   6.197   3.307   8.902  0.1967  0.0385 -1.0316
  134SAPE  H14X14548   6.307   3.324   8.894  0.3598  0.9597  2.2078
  134SAPE  H14Y14549   6.155   3.366   8.987  0.9351 -1.6714  0.5552
  134SAPE  C31514550   6.141   3.338   8.762 -0.0613 -0.2142  0.4340
  134SAPE  H15X14551   6.033   3.311   8.752 -0.2999  0.3181  1.4972
  134SAPE  H15Y14552   6.191   3.270   8.689 -0.5926  1.1870 -1.2798
  134SAPE  C31614553   6.184   3.478   8.709 -0.1184  0.2957  0.7495
  134SAPE  H16X14554   6.295   3.479   8.716 -0.0784  0.7617  0.0848
  134SAPE  H16Y14555   6.127   3.561   8.757 -1.4433 -0.1597 -0.0117
  134SAPE  C31714556   6.157   3.495   8.561  0.4180  0.0329  0.1471
  134SAPE  H17X14557   6.209   3.421   8.496  3.2272  2.2008 -0.1693
  134SAPE  H17Y14558   6.197   3.592   8.525  1.8798 -1.2401 -1.7180
  134SAPE  C31814559   6.005   3.502   8.535  0.1785  0.2508  0.0759
  134SAPE  H18X14560   5.957   3.595   8.572 -0.1901  0.3835 -0.7351
  134SAPE  H18Y14561   5.944   3.420   8.580  0.3501  0.1169  0.0624
  134SAPE  H18Z14562   5.992   3.484   8.426  2.3198 -0.5855 -0.0637
  135SAPE     N14563   6.334   1.667  10.664 -0.2110 -0.5489 -0.0660
  135SAPE   HN114564   6.371   1.755  10.706 -2.3048 -0.4205  1.5957
  135SAPE   HN214565   6.418   1.608  10.647 -0.7133 -0.4837 -3.0956
  135SAPE   HN314566   6.299   1.690  10.568 -0.1555 -2.0570 -0.4574
  135SAPE   C1214567   6.236   1.618  10.759 -0.3739 -0.1362 -0.2513
  135SAPE  H12A14568   6.286   1.625  10.858  0.6377  3.7411 -0.9463
  135SAPE  H12B14569   6.209   1.515  10.730  0.3043 -0.4644  0.2620
  135SAPE   C1114570   6.109   1.704  10.760 -0.7617 -0.0246 -0.3770
  135SAPE  H11A14571   6.127   1.790  10.827  2.1278  0.4371 -1.6560
  135SAPE  H11B14572   6.024   1.653  10.810 -1.6855  2.2397  0.4264
  135SAPE     P14573   5.926   1.785  10.579 -0.0643  0.1597 -0.3521
  135SAPE   O1314574   5.885   1.898  10.662 -0.6433  0.2130 -0.0483
  135SAPE   O1414575   5.920   1.799  10.434  0.2506 -0.1628  0.3890
  135SAPE   O1214576   6.071   1.745  10.625 -0.3342 -0.3021 -0.4479
  135SAPE   O1114577   5.836   1.663  10.628 -0.4720 -0.1154  0.1371
  135SAPE    C114578   5.869   1.535  10.566  0.0419  0.6070  0.0136
  135SAPE    HA14579   5.904   1.540  10.461  0.9829 -0.6921  0.2508
  135SAPE    HB14580   5.959   1.497  10.619 -0.8673  0.6136  1.5846
  135SAPE    C214581   5.748   1.432  10.578  0.1090  0.0099 -0.5817
  135SAPE    HS14582   5.725   1.423  10.686 -0.8688  0.8074 -0.7140
  135SAPE   O2114583   5.793   1.305  10.528 -0.3536 -0.3390  0.2001
  135SAPE   C2114584   5.750   1.199  10.572  0.0098 -0.4195 -0.4728
  135SAPE   O2214585   5.668   1.188  10.661  0.1941 -0.7113 -0.4344
  135SAPE   C2214586   5.812   1.081  10.495 -0.0161  0.2242  0.0394
  135SAPE   H2R14587   5.911   1.113  10.456 -0.7540  2.2726 -0.2178
  135SAPE   H2S14588   5.830   0.996  10.565 -0.7827  0.3396  0.3859
  135SAPE    C314589   5.624   1.491  10.512 -0.0761  0.1290 -0.2263
  135SAPE    HX14590   5.592   1.590  10.551  1.0797 -0.3134  1.9573
  135SAPE    HY14591   5.538   1.426  10.541  0.4329 -1.3588 -1.9900
  135SAPE   O3114592   5.640   1.495  10.370 -0.0714  0.0657 -0.5734
  135SAPE   C3114593   5.586   1.401  10.296  0.3154  0.2687  0.0464
  135SAPE   O3214594   5.519   1.311  10.336  0.2077 -0.3133 -0.7635
  135SAPE   C3214595   5.612   1.435  10.153 -0.4143  0.0098 -0.2362
  135SAPE   H2X14596   5.722   1.446  10.142 -0.2953 -0.4987  0.4044
  135SAPE   H2Y14597   5.563   1.531  10.125 -0.7384 -0.3842 -1.0467
  135SAPE   C2314598   5.723   1.048  10.371  0.5544  0.4981  0.9423
  135SAPE   H3R14599   5.724   1.137  10.305 -1.0797  1.1330  1.7395
  135SAPE   H3S14600   5.621   1.017  10.404  0.7027 -0.8282  0.2244
  135SAPE   C2414601   5.773   0.924  10.285  0.0008 -0.9187  0.1774
  135SAPE   H4R14602   5.756   0.833  10.346 -1.7661 -0.3279  0.6167
  135SAPE   H4S14603   5.883   0.929  10.295  0.1184 -0.1516 -1.3404
  135SAPE   C2514604   5.710   0.915  10.151  0.1475 -0.2060  0.3524
  135SAPE   H5R14605   5.600   0.928  10.153  0.3271  1.5909 -0.5719
  135SAPE   C2614606   5.788   0.886  10.046  0.5509  0.6491  0.6446
  135SAPE   H6R14607   5.740   0.886   9.947  0.3200  0.7563  0.7572
  135SAPE   C2714608   5.936   0.871  10.032 -0.1455  0.5939  1.2630
  135SAPE   H7R14609   5.979   0.836  10.128  0.2415 -0.9245  0.5448
  135SAPE   H7S14610   5.986   0.968  10.009  0.3445 -0.0550 -0.5008
  135SAPE   C2814611   5.987   0.767   9.937  0.3955 -0.1292 -0.1293
  135SAPE   H8R14612   6.053   0.692   9.984  1.1387  0.8354  0.4064
  135SAPE   C2914613   5.969   0.769   9.801  0.3264 -0.0705 -0.1976
  135SAPE   H9R14614   6.020   0.685   9.751 -0.9289 -1.6779  1.1706
  135SAPE  C21014615   5.907   0.878   9.718  0.5106 -0.2489 -0.2577
  135SAPE  H10R14616   5.916   0.964   9.787 -0.8940 -0.3625  0.1008
  135SAPE  H10S14617   5.798   0.859   9.704  0.2852 -1.1606  2.3204
  135SAPE  C21114618   5.972   0.892   9.581  0.2464 -0.8916  0.7828
  135SAPE  H11R14619   6.068   0.842   9.567  1.8529  2.3550 -0.4140
  135SAPE  C21214620   5.927   0.967   9.483  0.1341  0.3926  0.8797
  135SAPE  H12R14621   5.979   0.961   9.387  1.5070 -1.3647  1.7044
  135SAPE  C21314622   5.794   1.045   9.479 -0.0696  0.1776 -0.2784
  135SAPE  H13R14623   5.829   1.147   9.506 -0.3095  0.0424  0.5537
  135SAPE  H13S14624   5.727   1.035   9.567 -1.5452  0.7068 -1.3319
  135SAPE  C21414625   5.722   1.036   9.349  0.6238 -0.5778  0.4031
  135SAPE  H14R14626   5.714   0.937   9.300  0.2785  0.6724 -2.1195
  135SAPE  C21514627   5.656   1.143   9.288 -0.4882 -0.2768  0.3623
  135SAPE  H15R14628   5.604   1.117   9.195  0.5816 -1.4411  0.0652
  135SAPE  C21614629   5.649   1.289   9.332  0.3869  0.2173 -0.5212
  135SAPE  H16R14630   5.684   1.348   9.245  3.3258 -4.0149 -2.4044
  135SAPE  H16S14631   5.725   1.296   9.413 -0.8675 -0.8462  0.7849
  135SAPE  C21714632   5.515   1.341   9.388  0.3944 -1.0293  0.0653
  135SAPE  H17R14633   5.515   1.452   9.382 -0.6729 -0.8864  1.9203
  135SAPE  H17S14634   5.516   1.309   9.495  1.9085  0.2882  0.4606
  135SAPE  C21814635   5.386   1.309   9.314  0.2920  0.2479  0.1127
  135SAPE  H18R14636   5.296   1.356   9.359  1.8151  2.2398  1.1725
  135SAPE  H18S14637   5.359   1.201   9.323  2.2455 -0.3629 -0.8940
  135SAPE  C21914638   5.384   1.349   9.161 -0.5236  0.3425 -0.5616
  135SAPE  H19R14639   5.485   1.328   9.122  0.0907  0.7178  0.8010
  135SAPE  H19S14640   5.372   1.460   9.153 -1.1347  0.4383  1.4005
  135SAPE  C22014641   5.285   1.274   9.067  0.4365 -0.4257 -0.0738
  135SAPE  H20R14642   5.177   1.285   9.091  0.9723 -0.8052  2.6281
  135SAPE  H20S14643   5.297   1.164   9.066  0.2882 -0.4401 -0.3097
  135SAPE  H20T14644   5.285   1.322   8.966 -1.8745 -0.1822  0.0052
  135SAPE   C3314645   5.550   1.324  10.060 -0.3465  0.3696  0.1738
  135SAPE   H3X14646   5.439   1.327  10.053 -0.1453  0.7610 -3.5256
  135SAPE   H3Y14647   5.585   1.221  10.081  0.1885  0.3344 -0.8668
  135SAPE   C3414648   5.583   1.344   9.913  0.3966 -0.6268 -0.3795
  135SAPE   H4X14649   5.680   1.301   9.881  0.1095 -2.4008  1.0126
  135SAPE   H4Y14650   5.592   1.453   9.894  2.4027 -0.7210 -0.0713
  135SAPE   C3514651   5.480   1.300   9.805 -0.5636 -0.0939 -0.0574
  135SAPE   H5X14652   5.525   1.325   9.706 -1.1851 -1.9273 -0.8327
  135SAPE   H5Y14653   5.382   1.340   9.839 -0.0327  1.6546 -0.5526
  135SAPE   C3614654   5.463   1.145   9.803 -0.8122 -0.3275 -0.5077
  135SAPE   H6X14655   5.463   1.096   9.903  1.1487 -3.0887 -1.7759
  135SAPE   H6Y14656   5.548   1.109   9.742 -1.4659  1.9163 -2.8231
  135SAPE   C3714657   5.336   1.090   9.734 -0.4458  0.7326  0.1819
  135SAPE   H7X14658   5.332   1.125   9.629 -2.7463 -0.5048 -0.1593
  135SAPE   H7Y14659   5.251   1.143   9.782 -1.1006  1.2594 -1.5281
  135SAPE   C3814660   5.332   0.940   9.737  0.0259 -0.0099  0.5912
  135SAPE   H8X14661   5.343   0.918   9.846  2.6680 -0.0906  0.3385
  135SAPE   H8Y14662   5.417   0.901   9.677  0.5820  2.0361  0.0219
  135SAPE   C3914663   5.200   0.872   9.677  0.6022 -0.2873  0.0547
  135SAPE   H9X14664   5.111   0.900   9.736  0.4145 -0.4924 -0.1288
  135SAPE   H9Y14665   5.205   0.761   9.675 -3.0841 -0.4924 -1.1456
  135SAPE  C31014666   5.158   0.923   9.533 -0.2377 -0.6033 -0.2374
  135SAPE  H10X14667   5.169   1.033   9.517 -2.9095 -0.3633 -0.6448
  135SAPE  H10Y14668   5.052   0.895   9.517  0.0214 -1.7485 -0.0030
  135SAPE  C31114669   5.246   0.866   9.425  0.0461 -0.5505  0.8755
  135SAPE  H11X14670   5.258   0.756   9.426  0.8682 -0.5051 -1.0497
  135SAPE  H11Y14671   5.347   0.911   9.435 -1.5423  2.6411  3.6533
  135SAPE  C31214672   5.198   0.903   9.286  0.0588  0.0050  0.1154
  135SAPE  H12X14673   5.203   1.013   9.276 -1.2951 -0.2095 -3.7898
  135SAPE  H12Y14674   5.089   0.887   9.270 -0.7098  2.8506  2.2198
  135SAPE  C31314675   5.285   0.835   9.182  1.0205 -0.7598  0.3814
  135SAPE  H13X14676   5.307   0.729   9.206 -2.3411 -1.5466  0.1504
  135SAPE  H13Y14677   5.384   0.884   9.173  0.8886  0.1512  3.4754
  135SAPE  C31414678   5.224   0.846   9.042  0.2810  0.4978  0.6372
  135SAPE  H14X14679   5.237   0.949   9.004 -1.4984  0.2736 -0.6435
  135SAPE  H14Y14680   5.116   0.819   9.041  0.3695  0.1433  0.3873
  135SAPE  C31514681   5.300   0.750   8.937  0.6468 -0.4325  0.4820
  135SAPE  H15X14682   5.268   0.646   8.958  0.4061 -0.1420  1.5885
  135SAPE  H15Y14683   5.411   0.748   8.948  0.3850  0.1922  3.8488
  135SAPE  C31614684   5.275   0.776   8.792 -0.3237  0.3192 -0.2555
  135SAPE  H16X14685   5.336   0.861   8.753 -0.1513 -0.0615 -0.8192
  135SAPE  H16Y14686   5.171   0.813   8.783 -0.9114 -1.3310 -0.3004
  135SAPE  C31714687   5.272   0.649   8.693 -0.5280  0.0222  0.3128
  135SAPE  H17X14688   5.361   0.583   8.700  0.1522  0.8971  0.0799
  135SAPE  H17Y14689   5.253   0.674   8.587 -0.0312 -0.2317  0.1617
  135SAPE  C31814690   5.156   0.558   8.724 -0.4945 -0.4138 -0.6131
  135SAPE  H18X14691   5.179   0.503   8.817  0.4688  0.2027 -0.4836
  135SAPE  H18Y14692   5.148   0.483   8.642  0.8138 -0.9323 -0.2737
  135SAPE  H18Z14693   5.056   0.606   8.727 -1.1321 -1.8161  1.5678
  136SAPE     N14694   2.083   1.255  10.759  0.5795 -0.1602 -0.9806
  136SAPE   HN114695   2.075   1.231  10.659 -0.2119 -0.3320 -0.8753
  136SAPE   HN214696   2.181   1.265  10.795  0.8230  1.0548 -1.9480
  136SAPE   HN314697   2.041   1.176  10.812  0.8379 -1.0071 -2.0318
  136SAPE   C1214698   2.009   1.384  10.776 -0.7040 -0.4596 -0.1310
  136SAPE  H12A14699   2.063   1.467  10.725  1.4803 -2.6034 -1.4191
  136SAPE  H12B14700   2.007   1.400  10.885 -1.9291  2.1736 -0.5110
  136SAPE   C1114701   1.869   1.378  10.718  0.8401 -0.2824  0.2271
  136SAPE  H11A14702   1.874   1.363  10.608 -4.0638  0.2145 -0.1950
  136SAPE  H11B14703   1.814   1.473  10.732  0.2932 -0.3341 -1.4510
  136SAPE     P14704   1.640   1.267  10.728 -0.4771  0.2079 -0.0172
  136SAPE   O1314705   1.560   1.185  10.823 -0.0595  0.0204 -0.8180
  136SAPE   O1414706   1.593   1.402  10.704 -0.7120 -0.7520  0.3030
  136SAPE   O1214707   1.793   1.265  10.764 -0.0607 -0.3250 -0.3044
  136SAPE   O1114708   1.626   1.193  10.592  0.3295  0.5992  0.1529
  136SAPE    C114709   1.715   1.089  10.565  0.1720 -0.3813  0.2365
  136SAPE    HA14710   1.823   1.114  10.565  0.3484 -1.1246 -0.2284
  136SAPE    HB14711   1.711   1.000  10.631 -0.8990  2.0143  3.5360
  136SAPE    C214712   1.689   1.018  10.426  0.0598 -0.0509  0.6626
  136SAPE    HS14713   1.788   0.979  10.395  0.0025  1.2211 -1.1553
  136SAPE   O2114714   1.635   1.120  10.329 -0.0964 -0.4860  0.1024
  136SAPE   C2114715   1.734   1.181  10.259  0.1596  0.2648  0.0197
  136SAPE   O2214716   1.850   1.158  10.277  0.2326 -0.3436 -0.3199
  136SAPE   C2214717   1.675   1.289  10.175 -0.0814  0.0081 -0.4054
  136SAPE   H2R14718   1.595   1.335  10.236  0.3569 -2.4548  2.1428
  136SAPE   H2S14719   1.746   1.373  10.157 -1.1631  1.1494  0.5811
  136SAPE    C314720   1.592   0.898  10.438  0.1860 -0.2015  0.5558
  136SAPE    HX14721   1.518   0.941  10.508 -0.2641 -0.3941  0.1979
  136SAPE    HY14722   1.648   0.813  10.482 -1.5713 -2.0404 -0.6529
  136SAPE   O3114723   1.532   0.860  10.310  0.2608 -0.4129 -0.3891
  136SAPE   C3114724   1.621   0.782  10.232  0.4307  0.1243  0.4360
  136SAPE   O3214725   1.738   0.766  10.258 -0.8385 -0.0941 -0.2728
  136SAPE   C3214726   1.537   0.729  10.113  0.0077 -0.3409 -0.2456
  136SAPE   H2X14727   1.493   0.812  10.055  0.0807  0.3370  0.6486
  136SAPE   H2Y14728   1.459   0.670  10.166  1.1502 -1.6028  0.0681
  136SAPE   C2314729   1.614   1.222  10.047 -0.0944  0.4015 -0.1016
  136SAPE   H3R14730   1.560   1.300   9.991  1.3523 -0.0961 -2.2566
  136SAPE   H3S14731   1.541   1.146  10.081  1.2032 -0.4325  0.8871
  136SAPE   C2414732   1.709   1.162   9.939  0.0330 -0.3213 -0.3143
  136SAPE   H4R14733   1.671   1.103   9.853  1.6925 -2.0203  0.0829
  136SAPE   H4S14734   1.775   1.096   9.998 -2.7215 -0.3179  2.9447
  136SAPE   C2514735   1.789   1.279   9.892  0.8862  0.4831 -0.4782
  136SAPE   H5R14736   1.835   1.340   9.970 -0.3309 -2.0769  2.3399
  136SAPE   C2614737   1.781   1.322   9.769 -0.2875 -1.0947 -0.3731
  136SAPE   H6R14738   1.848   1.406   9.748  0.5976 -2.6296 -4.1675
  136SAPE   C2714739   1.704   1.268   9.645 -0.0293 -0.1519 -0.7028
  136SAPE   H7R14740   1.654   1.170   9.658 -0.3250  0.4042  2.6715
  136SAPE   H7S14741   1.784   1.235   9.575  1.1863 -0.8074  0.9548
  136SAPE   C2814742   1.613   1.379   9.587  0.2497  0.3610  0.2195
  136SAPE   H8R14743   1.564   1.447   9.659  2.1767  3.0568 -0.9054
  136SAPE   C2914744   1.591   1.406   9.459 -0.7280  0.1527 -0.0224
  136SAPE   H9R14745   1.526   1.494   9.443  0.5817  1.1673  0.1309
  136SAPE  C21014746   1.637   1.327   9.342  0.3212  0.0607  0.2262
  136SAPE  H10R14747   1.590   1.228   9.321  0.1127 -0.2963  2.2346
  136SAPE  H10S14748   1.743   1.299   9.362  0.4994 -0.6841 -1.6747
  136SAPE  C21114749   1.627   1.397   9.211  0.2492 -0.0747  0.6205
  136SAPE  H11R14750   1.591   1.501   9.216  1.0196  0.0806  3.3254
  136SAPE  C21214751   1.658   1.347   9.090  0.5065  0.2431  0.3683
  136SAPE  H12R14752   1.644   1.408   9.000 -0.1385 -1.6648 -0.8624
  136SAPE  C21314753   1.720   1.210   9.063  0.2731  0.4276  0.1419
  136SAPE  H13R14754   1.649   1.162   8.992  0.8965 -0.1636 -0.0782
  136SAPE  H13S14755   1.713   1.146   9.153  2.6468  1.1736  0.8843
  136SAPE  C21414756   1.854   1.218   9.000  0.2870 -0.2129 -0.7029
  136SAPE  H14R14757   1.940   1.226   9.068 -0.7044  0.7205  0.4770
  136SAPE  C21514758   1.872   1.210   8.862 -0.2039  0.2710 -0.8378
  136SAPE  H15R14759   1.974   1.223   8.824  0.8394  2.4801  2.4585
  136SAPE  C21614760   1.765   1.204   8.752 -0.5164 -0.1273  0.1150
  136SAPE  H16R14761   1.782   1.288   8.682 -0.3719 -1.5154 -1.5733
  136SAPE  H16S14762   1.665   1.215   8.800 -0.4629  0.7348  0.0245
  136SAPE  C21714763   1.764   1.077   8.661  0.0417 -0.1137  0.4287
  136SAPE  H17R14764   1.864   1.054   8.618 -1.8295 -2.6937 -2.7031
  136SAPE  H17S14765   1.708   1.103   8.569  0.0440 -2.6454 -0.3123
  136SAPE  C21814766   1.696   0.959   8.724 -0.5850 -0.1389 -0.2624
  136SAPE  H18R14767   1.589   0.981   8.742 -0.3404 -0.9869  2.4815
  136SAPE  H18S14768   1.744   0.937   8.822  3.1351  0.2478 -1.9192
  136SAPE  C21914769   1.701   0.838   8.627 -0.3447  0.4150  0.4622
  136SAPE  H19R14770   1.669   0.853   8.522 -0.9635 -0.0058  0.5813
  136SAPE  H19S14771   1.621   0.766   8.657  1.0547 -1.3861 -0.0626
  136SAPE  C22014772   1.836   0.767   8.625  0.6313  0.7169 -0.2722
  136SAPE  H20R14773   1.857   0.736   8.729 -1.3492  1.4536  0.3615
  136SAPE  H20S14774   1.926   0.830   8.602  3.1197 -1.1267  3.8870
  136SAPE  H20T14775   1.842   0.674   8.564 -3.2792  0.6990 -0.7439
  136SAPE   C3314776   1.621   0.628  10.030 -0.0638  0.0503  0.3717
  136SAPE   H3X14777   1.594   0.521  10.046 -0.4723  0.3707  2.0013
  136SAPE   H3Y14778   1.731   0.615  10.044 -0.1806 -1.6772 -0.1414
  136SAPE   C3414779   1.608   0.661   9.885  0.4025 -0.3299 -0.3431
  136SAPE   H4X14780   1.498   0.666   9.874  0.4175  0.9099  0.0014
  136SAPE   H4Y14781   1.638   0.568   9.832  1.1481 -0.5756  0.4840
  136SAPE   C3514782   1.695   0.783   9.839 -0.5394  0.6447 -0.1541
  136SAPE   H5X14783   1.800   0.750   9.853 -1.4421 -2.2986 -0.0678
  136SAPE   H5Y14784   1.684   0.880   9.892  2.4174  0.8078  0.2346
  136SAPE   C3614785   1.675   0.822   9.695 -0.0825 -0.4081  0.2970
  136SAPE   H6X14786   1.750   0.904   9.685 -0.2700 -0.2506  0.1812
  136SAPE   H6Y14787   1.574   0.866   9.684 -0.3712 -0.3791  2.7728
  136SAPE   C3714788   1.697   0.718   9.587 -1.2678  1.2562  0.1056
  136SAPE   H7X14789   1.621   0.638   9.599  2.5462 -2.6218 -0.4036
  136SAPE   H7Y14790   1.789   0.660   9.610 -2.0137 -0.0964 -0.3423
  136SAPE   C3814791   1.697   0.780   9.449  0.1033  0.3371 -0.0234
  136SAPE   H8X14792   1.800   0.820   9.435  0.5569 -0.3525  1.1919
  136SAPE   H8Y14793   1.621   0.860   9.440  0.5627  0.7288 -0.4456
  136SAPE   C3914794   1.679   0.668   9.346  0.2340  0.9456 -0.9846
  136SAPE   H9X14795   1.589   0.604   9.355  0.9226 -0.3682 -2.9142
  136SAPE   H9Y14796   1.756   0.593   9.375 -0.9410 -0.2636 -0.9867
  136SAPE  C31014797   1.696   0.727   9.199 -0.6702  0.2117  1.1035
  136SAPE  H10X14798   1.794   0.775   9.180 -2.0118  1.9429 -1.7823
  136SAPE  H10Y14799   1.611   0.800   9.199 -2.1753 -1.5027  1.8400
  136SAPE  C31114800   1.666   0.634   9.085 -0.1512 -0.1598 -0.5351
  136SAPE  H11X14801   1.679   0.695   8.994  0.7366  0.1582 -0.1953
  136SAPE  H11Y14802   1.569   0.580   9.091 -0.0804 -0.3341 -0.9367
  136SAPE  C31214803   1.760   0.513   9.074  0.2282  0.0515 -0.2237
  136SAPE  H12X14804   1.765   0.455   9.168 -2.6954 -3.4547 -2.0785
  136SAPE  H12Y14805   1.865   0.547   9.064  0.6490 -0.3476  2.4516
  136SAPE  C31314806   1.723   0.415   8.954  0.2550 -0.2390  0.4110
  136SAPE  H13X14807   1.703   0.489   8.874 -1.1199 -1.3214 -0.2839
  136SAPE  H13Y14808   1.632   0.351   8.968 -0.3652  0.6711  0.5593
  136SAPE  C31414809   1.836   0.323   8.918 -0.4210 -0.3148  0.0811
  136SAPE  H14X14810   1.857   0.255   9.004 -2.1238  0.3768  1.0786
  136SAPE  H14Y14811   1.929   0.380   8.899 -1.2939  0.3784 -2.1455
  136SAPE  C31514812   1.799   0.230   8.799  0.3073 -0.1117 -0.0400
  136SAPE  H15X14813   1.709   0.168   8.820 -0.4910  0.4659 -1.7007
  136SAPE  H15Y14814   1.882   0.157   8.785  0.2703 -0.6493  2.2557
  136SAPE  C31614815   1.776   0.317   8.672 -0.4315  0.4199  0.3138
  136SAPE  H16X14816   1.823   0.417   8.681 -1.7622  1.0515  0.3345
  136SAPE  H16Y14817   1.666   0.326   8.656 -0.9129 -1.4420  2.2093
  136SAPE  C31714818   1.846   0.246   8.552 -0.0377 -0.6816 -0.2457
  136SAPE  H17X14819   1.818   0.138   8.543 -1.8355 -0.2982  0.4555
  136SAPE  H17Y14820   1.957   0.253   8.555 -0.1348  0.6196  0.6638
  136SAPE  C31814821   1.800   0.305   8.418 -0.0177 -0.5661 -0.0400
  136SAPE  H18X14822   1.839   0.248   8.332 -0.4909 -0.3017 -0.4385
  136SAPE  H18Y14823   1.843   0.407   8.404  0.2252 -0.6106  0.3845
  136SAPE  H18Z14824   1.692   0.331   8.411  0.1989 -0.0848 -1.7073
  137SAPE     N14825   6.458   4.423  11.237  0.2617  0.0959 -0.0001
  137SAPE   HN114826   6.546   4.403  11.187  0.5940  1.6755 -0.0717
  137SAPE   HN214827   6.463   4.501  11.305 -2.9550  0.0574  0.3558
  137SAPE   HN314828   6.419   4.339  11.284  0.2172  0.5847  0.8488
  137SAPE   C1214829   6.350   4.483  11.148 -0.4372  0.1223  0.4591
  137SAPE  H12A14830   6.359   4.593  11.148 -0.4970  0.1465 -1.8206
  137SAPE  H12B14831   6.254   4.471  11.202  0.1515 -2.9015  0.9252
  137SAPE   C1114832   6.361   4.415  11.011  0.4207 -0.7372 -0.6609
  137SAPE  H11A14833   6.462   4.443  10.975 -0.3797  0.8293 -1.7704
  137SAPE  H11B14834   6.283   4.454  10.942 -1.7275 -2.4949  0.7006
  137SAPE     P14835   6.286   4.181  10.915  0.2410  0.0743  0.2926
  137SAPE   O1314836   6.331   4.039  10.932 -0.6051 -0.3391  0.2965
  137SAPE   O1414837   6.137   4.194  10.898 -0.0625 -0.0651  0.0249
  137SAPE   O1214838   6.334   4.272  11.033  0.4545 -0.3728  0.4890
  137SAPE   O1114839   6.348   4.237  10.782  0.1190  0.6255 -0.2223
  137SAPE    C114840   6.286   4.233  10.658  0.1319  0.4896 -0.1605
  137SAPE    HA14841   6.308   4.138  10.605  0.1894  1.7430 -2.4281
  137SAPE    HB14842   6.175   4.236  10.667  0.2073  1.9157  0.4190
  137SAPE    C214843   6.347   4.348  10.569  0.5879 -0.3848  0.2900
  137SAPE    HS14844   6.318   4.446  10.615 -0.1581  0.4846 -1.9760
  137SAPE   O2114845   6.292   4.347  10.439  0.0917 -0.1268  0.0805
  137SAPE   C2114846   6.168   4.413  10.429 -0.6482  0.1516  0.5535
  137SAPE   O2214847   6.110   4.456  10.524  0.1321  0.2691 -0.1557
  137SAPE   C2214848   6.120   4.404  10.286  0.1958 -0.3204  0.4953
  137SAPE   H2R14849   6.202   4.437  10.218 -0.9761 -0.1217 -0.8365
  137SAPE   H2S14850   6.087   4.299  10.270 -0.6472 -0.0852  0.6808
  137SAPE    C314851   6.506   4.345  10.572 -0.4183 -0.4719 -0.1350
  137SAPE    HX14852   6.538   4.249  10.525 -1.5997  1.3504 -4.9220
  137SAPE    HY14853   6.539   4.335  10.678 -1.8741  2.3330  0.6195
  137SAPE   O3114854   6.562   4.458  10.503 -0.1291 -0.4682 -0.2685
  137SAPE   C3114855   6.681   4.497  10.543  0.3576  1.0111  0.4204
  137SAPE   O3214856   6.753   4.448  10.632  0.2523 -0.7343 -0.1910
  137SAPE   C3214857   6.720   4.595  10.431  0.2287 -0.5818 -0.2225
  137SAPE   H2X14858   6.681   4.697  10.450 -0.0343 -0.6372 -0.4417
  137SAPE   H2Y14859   6.671   4.551  10.341  0.2090  1.1455 -1.0636
  137SAPE   C2314860   6.003   4.504  10.259  0.4698  0.2646  0.2521
  137SAPE   H3R14861   6.034   4.610  10.271 -2.6987  1.7349 -3.4850
  137SAPE   H3S14862   5.915   4.496  10.326 -0.2418  1.7032 -0.5019
  137SAPE   C2414863   5.937   4.477  10.119  0.0311 -0.2726  0.6985
  137SAPE   H4R14864   5.926   4.366  10.116 -2.1886 -0.0701  0.2460
  137SAPE   H4S14865   6.016   4.489  10.042  2.6751  2.7282  3.7527
  137SAPE   C2514866   5.813   4.540  10.079  0.7218 -0.5367  0.0573
  137SAPE   H5R14867   5.733   4.530  10.154  0.9014 -1.3963  0.1454
  137SAPE   C2614868   5.784   4.599   9.959  0.4873 -0.4549 -0.7595
  137SAPE   H6R14869   5.680   4.619   9.931  0.8802  0.4981 -1.5762
  137SAPE   C2714870   5.890   4.618   9.851  0.6500 -0.5583 -0.6468
  137SAPE   H7R14871   5.983   4.658   9.898  0.8869 -0.4305 -1.2197
  137SAPE   H7S14872   5.854   4.700   9.785  1.2104 -0.1211 -0.4149
  137SAPE   C2814873   5.906   4.496   9.765  0.9765 -0.3189 -0.0619
  137SAPE   H8R14874   5.942   4.409   9.821 -0.6476  0.5419  2.4462
  137SAPE   C2914875   5.867   4.481   9.635 -0.1043  0.1194 -0.3518
  137SAPE   H9R14876   5.888   4.387   9.582 -4.4349 -1.9454  1.3345
  137SAPE  C21014877   5.816   4.588   9.544  0.6164  0.5559  0.9679
  137SAPE  H10R14878   5.887   4.613   9.462 -1.9745 -0.7076 -1.7486
  137SAPE  H10S14879   5.785   4.680   9.598 -0.8261  1.3871 -1.1944
  137SAPE  C21114880   5.690   4.536   9.475  0.7695 -0.9576  0.0703
  137SAPE  H11R14881   5.598   4.546   9.534  0.6018 -3.1275  0.1955
  137SAPE  C21214882   5.675   4.511   9.342  0.3173 -0.7286 -1.1257
  137SAPE  H12R14883   5.577   4.465   9.324 -0.8620  0.7431  1.2568
  137SAPE  C21314884   5.772   4.518   9.226  0.3984  0.0010 -1.5761
  137SAPE  H13R14885   5.749   4.442   9.147 -1.6513  2.3287 -3.2898
  137SAPE  H13S14886   5.868   4.483   9.269 -0.8955 -0.2873  1.1950
  137SAPE  C21414887   5.801   4.649   9.156  0.3100  0.5314 -0.3871
  137SAPE  H14R14888   5.806   4.742   9.213  4.8893  0.4188 -0.3836
  137SAPE  C21514889   5.831   4.667   9.025  0.1470  0.4310  0.5430
  137SAPE  H15R14890   5.860   4.771   9.004 -0.0396  0.3894  0.0887
  137SAPE  C21614891   5.846   4.574   8.907 -0.0998  0.4231 -0.9341
  137SAPE  H16R14892   5.932   4.610   8.846  1.0836 -2.1588 -0.8639
  137SAPE  H16S14893   5.754   4.590   8.847  0.9290  3.5514 -1.7934
  137SAPE  C21714894   5.862   4.416   8.926 -0.0916 -0.5718 -0.7745
  137SAPE  H17R14895   5.760   4.375   8.941 -0.4626 -0.7095 -3.5919
  137SAPE  H17S14896   5.924   4.397   9.017 -0.3624 -0.9953 -0.6764
  137SAPE  C21814897   5.930   4.355   8.803  0.6385 -0.2588  0.2447
  137SAPE  H18R14898   5.865   4.369   8.714 -1.4982 -0.8079  1.6682
  137SAPE  H18S14899   5.937   4.244   8.802  0.6563 -0.2872  2.1334
  137SAPE  C21914900   6.079   4.402   8.772 -0.2249  0.0054 -0.8351
  137SAPE  H19R14901   6.121   4.429   8.872 -2.4267  0.1217  0.0866
  137SAPE  H19S14902   6.083   4.494   8.710  0.4710  0.1127 -0.6300
  137SAPE  C22014903   6.161   4.299   8.696  0.6673 -0.9204 -0.2888
  137SAPE  H20R14904   6.112   4.265   8.602 -3.9316  1.5940  1.0257
  137SAPE  H20S14905   6.191   4.216   8.763  0.0921 -0.4600  0.5459
  137SAPE  H20T14906   6.250   4.349   8.653  0.6356 -1.5122 -1.0548
  137SAPE   C3314907   6.875   4.609  10.420  0.3424 -0.2910 -1.6366
  137SAPE   H3X14908   6.932   4.516  10.396  2.5540  0.7757 -0.6482
  137SAPE   H3Y14909   6.917   4.634  10.520 -1.1204  1.0146 -1.3375
  137SAPE   C3414910   6.901   4.723  10.323 -0.1710 -0.1860 -0.3771
  137SAPE   H4X14911   7.011   4.743  10.329 -0.5174  1.3237  1.2073
  137SAPE   H4Y14912   6.845   4.815  10.349  0.1856 -0.5903  1.8697
  137SAPE   C3514913   6.870   4.681  10.177  0.1105  0.9517  0.3678
  137SAPE   H5X14914   6.762   4.654  10.167  0.2011  0.3586  0.9358
  137SAPE   H5Y14915   6.928   4.586  10.169 -1.0023 -0.0207  3.1981
  137SAPE   C3614916   6.910   4.790  10.073  0.0256 -0.1618 -0.0435
  137SAPE   H6X14917   7.004   4.846  10.096 -0.7472  1.0027  0.3371
  137SAPE   H6Y14918   6.828   4.864  10.076 -1.7905 -2.1313 -0.2090
  137SAPE   C3714919   6.913   4.740   9.933  0.3175 -0.5361  0.4180
  137SAPE   H7X14920   6.813   4.725   9.887  0.6113  0.8397 -0.6966
  137SAPE   H7Y14921   6.974   4.647   9.922 -3.0884 -2.6382 -1.3226
  137SAPE   C3814922   7.000   4.837   9.840  0.3657 -0.4342 -0.1384
  137SAPE   H8X14923   7.105   4.843   9.877  0.9023 -0.0742 -1.6755
  137SAPE   H8Y14924   6.959   4.940   9.845  0.9960 -0.0602 -2.0668
  137SAPE   C3914925   7.004   4.795   9.692  0.2119 -0.0390 -0.6793
  137SAPE   H9X14926   6.901   4.816   9.655 -1.1300 -2.4148  1.6048
  137SAPE   H9Y14927   7.025   4.686   9.683 -0.5643 -0.0968 -1.9227
  137SAPE  C31014928   7.106   4.865   9.590  0.7870 -0.0867 -1.2297
  137SAPE  H10X14929   7.208   4.851   9.632  0.1684  3.0212  1.4870
  137SAPE  H10Y14930   7.102   4.975   9.604 -0.1715 -0.2158 -0.4644
  137SAPE  C31114931   7.076   4.829   9.446  0.6347  0.3195  0.2116
  137SAPE  H11X14932   6.969   4.815   9.418  0.9444 -2.4784  0.3068
  137SAPE  H11Y14933   7.119   4.728   9.433  0.1710  0.2650 -0.9592
  137SAPE  C31214934   7.137   4.926   9.341 -0.3776 -0.8284 -0.5282
  137SAPE  H12X14935   7.243   4.937   9.373 -0.4938  0.3820 -0.5466
  137SAPE  H12Y14936   7.083   5.022   9.350  0.9006 -0.2297  0.9526
  137SAPE  C31314937   7.122   4.873   9.210 -0.1611  0.7228  0.5523
  137SAPE  H13X14938   7.017   4.858   9.177  0.8714  0.6501 -2.9893
  137SAPE  H13Y14939   7.163   4.770   9.206 -3.0486 -0.4678  0.6376
  137SAPE  C31414940   7.188   4.967   9.103  0.1931  0.3641  0.1354
  137SAPE  H14X14941   7.293   4.989   9.133 -0.0167  1.1704  0.2995
  137SAPE  H14Y14942   7.133   5.063   9.099 -3.6104 -1.7329 -0.4590
  137SAPE  C31514943   7.189   4.900   8.966 -0.3336  0.3136 -0.0217
  137SAPE  H15X14944   7.089   4.852   8.965  0.3484 -1.1525  0.3907
  137SAPE  H15Y14945   7.265   4.820   8.957 -0.6543  0.0548 -0.4327
  137SAPE  C31614946   7.199   4.982   8.840  0.2735  0.4335  0.4425
  137SAPE  H16X14947   7.292   5.044   8.840  0.7785 -0.2751 -1.8463
  137SAPE  H16Y14948   7.117   5.057   8.847  0.0016  0.2687 -0.8924
  137SAPE  C31714949   7.188   4.888   8.720  0.0098 -0.5505 -0.0240
  137SAPE  H17X14950   7.131   4.797   8.748 -2.0420  0.8798  0.5522
  137SAPE  H17Y14951   7.290   4.865   8.682  1.5202 -0.0647  3.5140
  137SAPE  C31814952   7.094   4.955   8.623  0.3879 -0.3050  0.3395
  137SAPE  H18X14953   7.134   5.058   8.607  0.1094 -0.4179 -1.1458
  137SAPE  H18Y14954   6.994   4.958   8.670 -0.8374 -0.8700 -2.1151
  137SAPE  H18Z14955   7.083   4.894   8.531  1.7712  0.5192 -0.4059
  138SAPE     N14956   3.597   5.384  10.889  0.8577 -0.4725  0.4846
  138SAPE   HN114957   3.531   5.308  10.913 -2.0173  1.7279 -0.1917
  138SAPE   HN214958   3.678   5.332  10.851  0.7179  0.2968 -0.8937
  138SAPE   HN314959   3.631   5.438  10.972 -0.8972 -0.0577  0.9613
  138SAPE   C1214960   3.534   5.462  10.780  0.1440  0.0837 -0.1349
  138SAPE  H12A14961   3.613   5.538  10.761  1.2793 -1.1944 -0.6739
  138SAPE  H12B14962   3.444   5.510  10.823 -1.6406 -1.0871 -2.4274
  138SAPE   C1114963   3.502   5.385  10.649 -0.5893 -0.0075  0.5009
  138SAPE  H11A14964   3.590   5.347  10.594  0.3218  1.8951  0.6422
  138SAPE  H11B14965   3.449   5.461  10.589 -0.9789  0.1663  1.0498
  138SAPE     P14966   3.265   5.297  10.689  0.4393  0.3828 -0.4611
  138SAPE   O1314967   3.188   5.178  10.732  0.3169 -0.4039 -0.2858
  138SAPE   O1414968   3.233   5.424  10.754 -0.7560  0.0918 -0.2427
  138SAPE   O1214969   3.418   5.276  10.685 -0.1476  0.3877 -0.1916
  138SAPE   O1114970   3.239   5.323  10.540  0.4134 -0.2267  0.1802
  138SAPE    C114971   3.307   5.273  10.429 -0.2459  0.1389 -0.6028
  138SAPE    HA14972   3.396   5.336  10.409  0.7244 -1.5964 -1.8666
  138SAPE    HB14973   3.356   5.175  10.446  0.2305  0.0776 -2.2017
  138SAPE    C214974   3.223   5.261  10.303 -0.0678 -0.2273 -0.6925
  138SAPE    HS14975   3.256   5.179  10.235 -0.0833  0.5066 -1.6023
  138SAPE   O2114976   3.229   5.388  10.235  0.6422 -0.2083 -0.5721
  138SAPE   C2114977   3.337   5.424  10.164 -0.7110  0.3169 -0.2181
  138SAPE   O2214978   3.439   5.360  10.149  0.1179 -0.4594 -0.0282
  138SAPE   C2214979   3.308   5.566  10.108  0.1523 -0.0920 -0.1456
  138SAPE   H2R14980   3.280   5.561  10.001  1.3264  0.2634 -0.4707
  138SAPE   H2S14981   3.228   5.613  10.169 -0.1329  0.7890 -1.1931
  138SAPE    C314982   3.081   5.211  10.341 -0.3544 -0.1270  0.1111
  138SAPE    HX14983   3.026   5.267  10.420  0.6130  2.3864 -0.9737
  138SAPE    HY14984   3.092   5.106  10.376 -0.2999 -0.2514 -0.2755
  138SAPE   O3114985   3.007   5.202  10.216  0.4098  0.5194 -0.4466
  138SAPE   C3114986   2.930   5.308  10.198  0.6349  0.1276 -0.2296
  138SAPE   O3214987   2.901   5.395  10.278 -0.2824 -0.0758 -0.3105
  138SAPE   C3214988   2.875   5.296  10.059  0.1075 -0.5121 -0.2769
  138SAPE   H2X14989   2.779   5.353  10.057 -0.5470 -1.5511  0.6751
  138SAPE   H2Y14990   2.842   5.192  10.036  0.9031 -0.9314  0.4232
  138SAPE   C2314991   3.446   5.634  10.121  0.0598 -0.2931 -0.0885
  138SAPE   H3R14992   3.525   5.568  10.081 -0.3157 -1.5522  1.2100
  138SAPE   H3S14993   3.471   5.644  10.229  1.2626  0.2671 -0.4112
  138SAPE   C2414994   3.444   5.772  10.043  0.2175  0.5878  0.1561
  138SAPE   H4R14995   3.530   5.839  10.068  1.4184 -1.5455  2.0063
  138SAPE   H4S14996   3.360   5.837  10.076  0.5458  0.1958  1.8200
  138SAPE   C2514997   3.433   5.740   9.893  0.4002  0.1513  0.3443
  138SAPE   H5R14998   3.332   5.705   9.866 -0.0741 -0.4957  2.8148
  138SAPE   C2614999   3.525   5.744   9.798  0.2929 -0.0622 -0.5335
  138SAPE   H6R15000   3.506   5.710   9.695  0.2241  1.5312 -1.0467
  138SAPE   C2715001   3.673   5.788   9.817  0.4331 -0.0172  0.3206
  138SAPE   H7R15002   3.699   5.773   9.924  2.4904 -2.2066 -0.4319
  138SAPE   H7S15003   3.671   5.894   9.787  1.1608  0.0694  0.5639
  138SAPE   C2815004   3.773   5.706   9.734  0.2711  0.0796 -0.2318
  138SAPE   H8R15005   3.828   5.622   9.779 -2.3668 -1.8481 -0.5389
  138SAPE   C2915006   3.796   5.727   9.605  0.2639 -0.2885 -0.5321
  138SAPE   H9R15007   3.860   5.649   9.561 -0.8797 -2.0341  0.8101
  138SAPE  C21015008   3.738   5.828   9.504  0.0933 -0.4121 -0.6466
  138SAPE  H10R15009   3.730   5.924   9.559  0.0031 -0.6571 -0.2291
  138SAPE  H10S15010   3.635   5.798   9.475 -0.2525 -0.2571  0.3701
  138SAPE  C21115011   3.813   5.861   9.381 -0.2475  0.0582  0.1088
  138SAPE  H11R15012   3.905   5.920   9.396 -0.3004  0.6499 -1.7625
  138SAPE  C21215013   3.781   5.815   9.256 -0.3790 -0.4134 -0.3267
  138SAPE  H12R15014   3.843   5.850   9.172  0.2475 -1.6018 -0.3756
  138SAPE  C21315015   3.653   5.739   9.221 -0.0757  0.5322 -0.1755
  138SAPE  H13R15016   3.568   5.793   9.269  0.2244  0.3257  0.5919
  138SAPE  H13S15017   3.681   5.650   9.282 -3.1575 -0.8048 -0.6036
  138SAPE  C21415018   3.607   5.698   9.087  0.5630  0.2144 -0.5233
  138SAPE  H14R15019   3.628   5.597   9.049 -1.0551 -0.4109  0.1955
  138SAPE  C21515020   3.571   5.788   8.991 -0.1423  0.1681 -0.4873
  138SAPE  H15R15021   3.533   5.751   8.894 -4.4310  0.2999  1.0660
  138SAPE  C21615022   3.552   5.936   9.017  0.6200  0.2828 -0.1903
  138SAPE  H16R15023   3.571   5.960   9.124  0.1042  0.6878 -0.1892
  138SAPE  H16S15024   3.455   5.976   8.981  1.7320  1.7417 -1.6635
  138SAPE  C21715025   3.647   6.024   8.937 -0.4962  0.5372  0.1798
  138SAPE  H17R15026   3.753   5.996   8.955 -1.1230 -2.7187 -0.8203
  138SAPE  H17S15027   3.643   6.128   8.976  1.6919  1.6788 -2.4625
  138SAPE  C21815028   3.610   6.032   8.779 -0.1717 -0.5764  0.2975
  138SAPE  H18R15029   3.630   6.135   8.742 -0.4958 -1.7802 -3.4077
  138SAPE  H18S15030   3.503   6.003   8.776  0.0837 -1.5167  0.1653
  138SAPE  C21915031   3.693   5.937   8.698  0.0865  0.7661 -0.1343
  138SAPE  H19R15032   3.696   5.836   8.744  0.9490  0.4753 -0.8030
  138SAPE  H19S15033   3.798   5.974   8.699 -0.2392  1.8499 -2.3371
  138SAPE  C22015034   3.654   5.931   8.550 -0.1426 -0.1859  0.6093
  138SAPE  H20R15035   3.703   5.845   8.500  0.4478 -0.3608  1.4669
  138SAPE  H20S15036   3.676   6.028   8.501  1.3168 -0.4230  0.7725
  138SAPE  H20T15037   3.545   5.914   8.535 -0.3816 -0.4524  2.4684
  138SAPE   C3315038   2.968   5.361   9.948 -0.4729 -0.4378 -0.3684
  138SAPE   H3X15039   3.019   5.451   9.989 -0.0850 -1.2067  0.8659
  138SAPE   H3Y15040   2.921   5.387   9.851  1.9785 -1.8741 -1.9966
  138SAPE   C3415041   3.089   5.268   9.912 -0.4574  0.6949  0.1955
  138SAPE   H4X15042   3.045   5.174   9.873  0.7342  0.1149  0.2280
  138SAPE   H4Y15043   3.151   5.232   9.997  2.2610  2.0270 -1.1684
  138SAPE   C3515044   3.193   5.326   9.816  0.1127  0.3523 -0.4579
  138SAPE   H5X15045   3.296   5.287   9.834  0.4128  1.1373 -0.4227
  138SAPE   H5Y15046   3.198   5.436   9.831 -2.3394  0.3505  0.5008
  138SAPE   C3615047   3.158   5.291   9.674  0.0951 -0.3135  0.4852
  138SAPE   H6X15048   3.078   5.357   9.633 -1.8337 -3.8401 -1.6337
  138SAPE   H6Y15049   3.113   5.191   9.658 -0.2627  0.1037 -1.2025
  138SAPE   C3715050   3.281   5.315   9.573  0.4081 -0.7577  0.9621
  138SAPE   H7X15051   3.373   5.256   9.591  0.4844 -0.2774  2.1455
  138SAPE   H7Y15052   3.309   5.420   9.590 -1.0644 -0.3915  1.1788
  138SAPE   C3815053   3.240   5.310   9.423 -0.9357 -0.3568 -0.0563
  138SAPE   H8X15054   3.149   5.370   9.402 -0.4696  0.3029 -0.2067
  138SAPE   H8Y15055   3.218   5.202   9.407  1.1088 -0.8035 -0.0014
  138SAPE   C3915056   3.350   5.338   9.318  0.0409 -0.2986  0.3072
  138SAPE   H9X15057   3.446   5.289   9.343 -0.6034 -1.3057  0.8748
  138SAPE   H9Y15058   3.367   5.447   9.325  2.3857 -0.6147  0.0208
  138SAPE  C31015059   3.308   5.303   9.169 -0.6627 -0.2399 -0.1433
  138SAPE  H10X15060   3.206   5.346   9.162 -0.8256 -0.8418 -1.4861
  138SAPE  H10Y15061   3.295   5.194   9.154 -0.4781 -0.2605 -0.1577
  138SAPE  C31115062   3.404   5.366   9.064  0.2315  0.0835  0.0664
  138SAPE  H11X15063   3.511   5.337   9.078  0.3257  1.2967  2.0962
  138SAPE  H11Y15064   3.393   5.477   9.064 -2.5667 -0.1807 -0.6501
  138SAPE  C31215065   3.363   5.321   8.929  0.6887 -0.0295 -0.2740
  138SAPE  H12X15066   3.256   5.347   8.914  1.1073  2.2524  0.4954
  138SAPE  H12Y15067   3.369   5.212   8.913 -3.1071 -0.1330 -1.4750
  138SAPE  C31315068   3.446   5.383   8.818 -0.3438  0.2690 -0.8360
  138SAPE  H13X15069   3.429   5.492   8.832  0.6858  0.2414  0.7820
  138SAPE  H13Y15070   3.400   5.354   8.722 -0.8802  1.4606 -0.9469
  138SAPE  C31415071   3.591   5.358   8.823  0.1094 -0.0832  0.2147
  138SAPE  H14X15072   3.625   5.261   8.866  1.5958  0.7797  1.0486
  138SAPE  H14Y15073   3.628   5.427   8.902 -2.7651  1.8991 -0.0786
  138SAPE  C31515074   3.654   5.373   8.684 -0.5439  0.0021  0.8483
  138SAPE  H15X15075   3.617   5.288   8.622  1.5284  0.1049 -0.5715
  138SAPE  H15Y15076   3.762   5.348   8.693 -0.3589  1.3538  2.6059
  138SAPE  C31615077   3.639   5.513   8.614  0.2237 -0.2890 -0.1261
  138SAPE  H16X15078   3.663   5.588   8.693 -3.4361  0.3984  0.4256
  138SAPE  H16Y15079   3.532   5.524   8.589  0.8613  3.1724 -1.7432
  138SAPE  C31715080   3.722   5.533   8.491 -0.4369 -0.6067 -0.0407
  138SAPE  H17X15081   3.694   5.629   8.444 -0.1910 -1.1600 -1.3287
  138SAPE  H17Y15082   3.699   5.446   8.426 -0.2288  0.7078 -1.8870
  138SAPE  C31815083   3.877   5.539   8.488  0.0089  0.7194 -0.6456
  138SAPE  H18X15084   3.917   5.562   8.387  2.0772 -1.4064 -0.3627
  138SAPE  H18Y15085   3.922   5.437   8.498  2.4250  1.7272 -0.8859
  138SAPE  H18Z15086   3.910   5.606   8.570  2.0328 -1.0769  0.0886
  139SAPE     N15087   1.925   4.637  10.520  0.4230  0.9322 -0.0800
  139SAPE   HN115088   1.882   4.651  10.426  0.8340  0.9502 -0.2649
  139SAPE   HN215089   1.860   4.665  10.596 -0.5267 -1.2159 -0.0643
  139SAPE   HN315090   2.005   4.703  10.527 -0.0203  1.6900 -1.8077
  139SAPE   C1215091   1.984   4.503  10.550 -0.1133  0.2043 -0.3586
  139SAPE  H12A15092   1.907   4.424  10.565  1.3112 -1.1122  0.2899
  139SAPE  H12B15093   2.051   4.496  10.639  2.3829 -1.1982 -2.2776
  139SAPE   C1115094   2.065   4.440  10.434 -0.2930  0.0983  0.3292
  139SAPE  H11A15095   1.991   4.453  10.352 -2.1406 -1.9131  1.6245
  139SAPE  H11B15096   2.086   4.332  10.455 -3.6292 -0.8538 -0.9495
  139SAPE     P15097   2.321   4.487  10.481 -0.0234 -0.0530  0.0600
  139SAPE   O1315098   2.422   4.586  10.446 -0.5431  0.0475  0.8657
  139SAPE   O1415099   2.298   4.482  10.628 -0.1739  0.3464 -0.0238
  139SAPE   O1215100   2.184   4.514  10.407  0.3263 -0.3150 -0.2225
  139SAPE   O1115101   2.357   4.341  10.428  0.1473  0.4767  0.1873
  139SAPE    C115102   2.442   4.319  10.313  0.1731  0.2110  0.1594
  139SAPE    HA15103   2.511   4.405  10.299  0.2065  0.2735  0.7235
  139SAPE    HB15104   2.512   4.235  10.334 -1.2088 -1.1421 -0.5561
  139SAPE    C215105   2.372   4.289  10.173 -0.3854  0.3128  0.0865
  139SAPE    HS15106   2.444   4.299  10.089 -0.2256 -1.8777 -0.0807
  139SAPE   O2115107   2.247   4.359  10.150  0.5624  0.3581 -0.3634
  139SAPE   C2115108   2.265   4.478  10.113  0.8058 -0.1809 -0.5024
  139SAPE   O2215109   2.373   4.536  10.114  0.2049  0.2329 -0.1228
  139SAPE   C2215110   2.136   4.551  10.077 -0.1611 -0.2877 -0.0984
  139SAPE   H2R15111   2.061   4.483  10.031  0.9661 -1.0850 -0.7985
  139SAPE   H2S15112   2.093   4.587  10.173  0.3985 -1.8531  0.7620
  139SAPE    C315113   2.334   4.137  10.166 -0.0652 -0.1633 -0.2270
  139SAPE    HX15114   2.278   4.113  10.074 -0.5875  4.1207 -1.0988
  139SAPE    HY15115   2.268   4.122  10.254  1.3460 -0.5556  0.7830
  139SAPE   O3115116   2.446   4.048  10.170  0.0808  0.1796  0.1355
  139SAPE   C3115117   2.446   3.945  10.247 -0.9147  1.0406 -0.2247
  139SAPE   O3215118   2.353   3.914  10.320  0.3913 -0.0325 -0.0832
  139SAPE   C3215119   2.582   3.873  10.239  0.2054 -0.9378  0.2641
  139SAPE   H2X15120   2.586   3.785  10.307 -0.3130 -1.8638 -0.8897
  139SAPE   H2Y15121   2.661   3.945  10.270 -0.0859 -0.6282  0.2846
  139SAPE   C2315122   2.163   4.676   9.985 -0.4034 -0.5596  0.0492
  139SAPE   H3R15123   2.243   4.736  10.035  0.7301 -1.3509 -0.7902
  139SAPE   H3S15124   2.066   4.726  10.004 -0.1206  0.0303 -0.0291
  139SAPE   C2415125   2.178   4.634   9.835 -0.4562  0.0367  0.2903
  139SAPE   H4R15126   2.260   4.559   9.837 -0.9742 -0.6152 -1.5707
  139SAPE   H4S15127   2.207   4.729   9.784 -2.0037 -0.6328 -1.8757
  139SAPE   C2515128   2.061   4.570   9.762  0.4766 -0.0132  0.0223
  139SAPE   H5R15129   2.004   4.497   9.821 -0.5146  0.8780  0.1789
  139SAPE   C2615130   2.004   4.609   9.647 -0.5159  0.2754 -0.2100
  139SAPE   H6R15131   1.932   4.536   9.607  1.8207 -1.8353 -0.7215
  139SAPE   C2715132   2.057   4.717   9.556  0.4535 -0.4538  0.4191
  139SAPE   H7R15133   2.149   4.678   9.507 -2.2192 -4.9111 -1.3713
  139SAPE   H7S15134   2.088   4.806   9.615  0.4863 -0.0757 -0.1654
  139SAPE   C2815135   1.956   4.762   9.454 -0.3064  0.3236 -0.3651
  139SAPE   H8R15136   1.867   4.802   9.504 -1.3034  0.5260 -2.2617
  139SAPE   C2915137   1.961   4.768   9.320 -0.4939 -0.1001 -0.3404
  139SAPE   H9R15138   1.879   4.816   9.265 -1.6215 -1.5801  0.0164
  139SAPE  C21015139   2.065   4.716   9.225  0.3709 -0.0389  0.6200
  139SAPE  H10R15140   2.024   4.619   9.189  0.9393 -1.3058  3.2121
  139SAPE  H10S15141   2.151   4.682   9.288 -0.8987 -0.7563  2.0114
  139SAPE  C21115142   2.089   4.807   9.109 -0.6423  0.2355  0.1553
  139SAPE  H11R15143   2.139   4.902   9.135  1.4479 -1.2973  1.9094
  139SAPE  C21215144   2.058   4.775   8.979  0.0074  0.7315 -0.0307
  139SAPE  H12R15145   2.083   4.845   8.898  1.8660 -0.8514 -0.8571
  139SAPE  C21315146   1.989   4.651   8.922 -0.2291  0.4510  0.6787
  139SAPE  H13R15147   1.894   4.680   8.872  0.8834  0.4205 -1.5113
  139SAPE  H13S15148   1.956   4.587   9.007 -0.6274 -1.8108 -1.1616
  139SAPE  C21415149   2.075   4.568   8.832  0.3806  0.1125  0.5850
  139SAPE  H14R15150   2.179   4.601   8.825  0.4087  0.5589  2.5891
  139SAPE  C21515151   2.033   4.456   8.770  0.4091 -0.8278  0.2896
  139SAPE  H15R15152   2.108   4.392   8.720  0.1764 -0.9403  0.0865
  139SAPE  C21615153   1.901   4.387   8.766  0.3438 -1.3879  0.4007
  139SAPE  H16R15154   1.863   4.374   8.663  0.1053  1.3429  0.1103
  139SAPE  H16S15155   1.817   4.437   8.818 -0.3086 -1.1883 -0.8394
  139SAPE  C21715156   1.903   4.244   8.831  0.6198 -0.8288 -0.2423
  139SAPE  H17R15157   1.799   4.213   8.855  0.3507  0.2593  0.0157
  139SAPE  H17S15158   1.961   4.257   8.925  1.7452 -1.4352 -0.8360
  139SAPE  C21815159   1.967   4.138   8.745  0.3474  0.2567 -1.1484
  139SAPE  H18R15160   2.067   4.176   8.715  0.5475  0.2868 -0.4507
  139SAPE  H18S15161   1.900   4.128   8.657  0.1077  1.4045 -1.0975
  139SAPE  C21915162   1.992   4.004   8.815  0.1064 -0.9654 -0.1593
  139SAPE  H19R15163   2.041   3.939   8.740  3.9549  0.8521  0.6605
  139SAPE  H19S15164   1.890   3.969   8.841 -0.0039 -1.1030 -0.7614
  139SAPE  C22015165   2.081   4.009   8.938  0.5023  0.3990 -0.0361
  139SAPE  H20R15166   2.158   4.088   8.922  0.1077  1.4239  2.7711
  139SAPE  H20S15167   2.119   3.907   8.959 -0.4620  0.0232 -0.1265
  139SAPE  H20T15168   2.020   4.059   9.016  0.5720 -0.7827  0.7908
  139SAPE   C3315169   2.613   3.817  10.095 -0.2568  0.7977  0.3053
  139SAPE   H3X15170   2.560   3.878  10.019  0.7061  0.8983 -0.3070
  139SAPE   H3Y15171   2.561   3.720  10.080 -0.6690  1.0625  0.0093
  139SAPE   C3415172   2.762   3.785  10.079  0.0570 -0.0879  0.0508
  139SAPE   H4X15173   2.791   3.691  10.131  0.2943  0.8892  1.7058
  139SAPE   H4Y15174   2.821   3.870  10.119  0.0541  0.9056 -2.0091
  139SAPE   C3515175   2.792   3.771   9.934  0.9279 -0.1248  0.0131
  139SAPE   H5X15176   2.734   3.679   9.909 -1.0571  0.9800  0.3919
  139SAPE   H5Y15177   2.897   3.735   9.931  0.7672 -0.5665 -0.4626
  139SAPE   C3615178   2.779   3.901   9.868  0.9369 -0.1862 -0.5956
  139SAPE   H6X15179   2.814   3.993   9.920 -4.3103  2.2463 -1.1333
  139SAPE   H6Y15180   2.674   3.937   9.859  1.4199  1.4513  0.0428
  139SAPE   C3715181   2.835   3.899   9.729 -0.3672  0.1741 -0.7849
  139SAPE   H7X15182   2.777   3.829   9.664 -1.8241  0.1551  0.5028
  139SAPE   H7Y15183   2.941   3.868   9.727 -0.2581  0.1939  2.4710
  139SAPE   C3815184   2.828   4.036   9.656  0.1300  0.3020  0.0069
  139SAPE   H8X15185   2.869   4.112   9.726 -0.9030  1.7842 -0.9827
  139SAPE   H8Y15186   2.722   4.063   9.636 -0.1849 -1.2611 -0.4576
  139SAPE   C3915187   2.904   4.033   9.519 -0.1120  0.8385 -0.4424
  139SAPE   H9X15188   2.856   3.949   9.464 -1.9220  1.6066 -0.0570
  139SAPE   H9Y15189   3.015   4.039   9.521 -0.2262  3.4236  0.2529
  139SAPE  C31015190   2.852   4.162   9.449 -0.1350 -0.1410  0.6031
  139SAPE  H10X15191   2.881   4.250   9.510 -0.2201  0.1032  0.2900
  139SAPE  H10Y15192   2.741   4.158   9.451 -0.2671  1.4222 -1.9246
  139SAPE  C31115193   2.897   4.182   9.309  0.8514 -0.0849  0.3865
  139SAPE  H11X15194   2.878   4.089   9.250 -0.9057  0.3434  0.2800
  139SAPE  H11Y15195   3.008   4.185   9.312  1.0671 -1.7200 -2.7497
  139SAPE  C31215196   2.833   4.299   9.235 -0.2396 -0.4548 -0.0989
  139SAPE  H12X15197   2.873   4.395   9.276  0.0461 -0.6532  0.0841
  139SAPE  H12Y15198   2.723   4.299   9.249 -0.3159  0.7696 -0.6695
  139SAPE  C31315199   2.857   4.288   9.087  0.0612 -1.1520 -0.1188
  139SAPE  H13X15200   2.820   4.386   9.050  2.5662 -0.1259  0.0329
  139SAPE  H13Y15201   2.787   4.211   9.047 -0.2427 -1.0142  0.1460
  139SAPE  C31415202   3.005   4.261   9.056 -0.4225 -0.7576  0.3573
  139SAPE  H14X15203   3.022   4.156   9.086 -0.4814 -1.4463 -1.9423
  139SAPE  H14Y15204   3.069   4.326   9.119  0.4914 -0.3857 -0.9404
  139SAPE  C31515205   3.048   4.279   8.907 -0.3891 -0.2587  0.2842
  139SAPE  H15X15206   3.150   4.242   8.882  0.0862  0.7540  0.7177
  139SAPE  H15Y15207   3.052   4.389   8.895 -3.2192 -0.3192 -1.6731
  139SAPE  C31615208   2.954   4.229   8.810  0.3180 -0.8806  0.1223
  139SAPE  H16X15209   2.934   4.126   8.845 -1.0981 -0.5071  0.4425
  139SAPE  H16Y15210   2.856   4.281   8.805  1.6686  1.7925  0.6633
  139SAPE  C31715211   3.009   4.224   8.669 -0.7063  0.0317  0.3903
  139SAPE  H17X15212   3.101   4.163   8.679 -0.2701  0.1802 -2.2959
  139SAPE  H17Y15213   3.040   4.328   8.646 -3.5290  1.0235  0.8989
  139SAPE  C31815214   2.911   4.165   8.568 -0.3740  0.3481  0.2716
  139SAPE  H18X15215   2.830   4.241   8.568  1.2769  2.2223  3.3275
  139SAPE  H18Y15216   2.880   4.063   8.601 -1.6086  0.8021  0.5372
  139SAPE  H18Z15217   2.968   4.159   8.473 -0.0446 -0.1390  0.4959
  140SAPE     N15218   5.623   0.983  10.835 -0.2336 -0.2289 -0.0904
  140SAPE   HN115219   5.565   0.969  10.920  2.9889  0.4244  2.3212
  140SAPE   HN215220   5.717   0.954  10.870 -1.2417 -1.8036  1.3936
  140SAPE   HN315221   5.633   1.081  10.801  0.0945  0.7736  2.7951
  140SAPE   C1215222   5.581   0.879  10.724 -0.5416 -0.2648 -0.2685
  140SAPE  H12A15223   5.674   0.858  10.667  0.3406 -0.8606  1.3723
  140SAPE  H12B15224   5.506   0.933  10.662  1.9486  0.2958 -2.8977
  140SAPE   C1115225   5.534   0.748  10.792 -0.2508 -0.4800 -0.0289
  140SAPE  H11A15226   5.514   0.669  10.717 -1.9797 -1.1235  1.0740
  140SAPE  H11B15227   5.434   0.782  10.827 -1.2568 -2.3697 -0.9568
  140SAPE     P15228   5.565   0.586  10.989  0.0336 -0.0514 -0.0458
  140SAPE   O1315229   5.682   0.526  11.059 -0.2526 -0.1774  0.0676
  140SAPE   O1415230   5.461   0.651  11.071 -0.2845  0.4693  0.1540
  140SAPE   O1215231   5.620   0.700  10.892 -0.3678 -0.8750  0.8040
  140SAPE   O1115232   5.504   0.490  10.887 -0.2598  0.0781 -0.3399
  140SAPE    C115233   5.561   0.361  10.855 -0.2642 -0.0559  0.7215
  140SAPE    HA15234   5.652   0.338  10.914  0.7869  3.0540  0.3973
  140SAPE    HB15235   5.489   0.278  10.872 -0.7594  0.0837 -0.6992
  140SAPE    C215236   5.588   0.345  10.700  0.2472  0.2612  0.3402
  140SAPE    HS15237   5.650   0.255  10.680  1.5506  1.5227 -1.4269
  140SAPE   O2115238   5.671   0.449  10.658 -0.6035 -0.1814  0.2780
  140SAPE   C2115239   5.800   0.452  10.684 -0.0214  0.3288  0.3996
  140SAPE   O2215240   5.861   0.371  10.752  0.5929  0.4014 -0.0270
  140SAPE   C2215241   5.876   0.573  10.626 -0.3086  0.1747 -0.3026
  140SAPE   H2R15242   5.877   0.648  10.709  0.2916 -0.4272  0.2460
  140SAPE   H2S15243   5.980   0.536  10.614 -0.5958 -1.3923  1.7207
  140SAPE    C315244   5.454   0.339  10.622  0.9219 -0.4042 -0.2564
  140SAPE    HX15245   5.417   0.443  10.634  0.1370 -0.3427 -2.9148
  140SAPE    HY15246   5.386   0.264  10.667 -0.9509  0.6913 -1.1848
  140SAPE   O3115247   5.482   0.316  10.480 -0.1246 -0.1262 -0.0554
  140SAPE   C3115248   5.481   0.183  10.436  0.1645 -0.0833  0.4065
  140SAPE   O3215249   5.451   0.093  10.513 -0.6265  0.5171 -0.2461
  140SAPE   C3215250   5.534   0.182  10.287  0.4560 -0.0973 -0.0399
  140SAPE   H2X15251   5.594   0.088  10.275  2.4411  0.9851  1.0662
  140SAPE   H2Y15252   5.598   0.273  10.287  0.6385 -0.2213 -0.6784
  140SAPE   C2315253   5.814   0.633  10.500  0.2890 -0.2714  0.5840
  140SAPE   H3R15254   5.873   0.724  10.476  0.8426 -0.2327  2.0148
  140SAPE   H3S15255   5.709   0.668  10.513 -0.4897 -2.1773 -0.2501
  140SAPE   C2415256   5.825   0.548  10.384  0.0578  0.0962  0.0270
  140SAPE   H4R15257   5.771   0.584  10.294  0.8304  0.3574 -0.3379
  140SAPE   H4S15258   5.762   0.461  10.413 -1.1686  0.4913 -1.3899
  140SAPE   C2515259   5.961   0.495  10.339  0.6267 -0.0134 -0.1324
  140SAPE   H5R15260   6.043   0.566  10.319  0.5130 -0.4381 -2.2200
  140SAPE   C2615261   5.990   0.364  10.315  0.0695 -0.5779  0.3877
  140SAPE   H6R15262   6.088   0.344  10.270  1.1967 -1.3508  3.0887
  140SAPE   C2715263   5.897   0.244  10.341 -0.5100 -0.0212 -0.8289
  140SAPE   H7R15264   5.799   0.253  10.290 -0.6574 -0.1470 -0.5704
  140SAPE   H7S15265   5.876   0.246  10.450 -1.6512  0.0301 -1.0402
  140SAPE   C2815266   5.948   0.107  10.302 -0.1346  0.0707 -0.3754
  140SAPE   H8R15267   5.978   0.043  10.386  1.6343 -1.2521 -1.9810
  140SAPE   C2915268   5.975   0.058  10.180 -0.1565 -0.3897 -0.8050
  140SAPE   H9R15269   6.009  -0.045  10.165  2.2301  0.5772 -2.3425
  140SAPE  C21015270   5.972   0.137  10.051  0.9957  0.1217 -0.6855
  140SAPE  H10R15271   6.071   0.133  10.003  1.3293  0.5680 -0.0425
  140SAPE  H10S15272   5.954   0.246  10.067  0.4871 -0.4381  3.1484
  140SAPE  C21115273   5.865   0.076   9.952 -0.2641 -0.2555  0.4658
  140SAPE  H11R15274   5.804   0.003  10.008  1.0580  0.0451  2.3736
  140SAPE  C21215275   5.844   0.099   9.819  0.1448  0.4992 -0.5041
  140SAPE  H12R15276   5.756   0.059   9.767  0.8311 -1.3487 -0.2809
  140SAPE  C21315277   5.930   0.193   9.744  0.1725 -0.1872  0.2768
  140SAPE  H13R15278   6.024   0.140   9.718 -0.2843 -0.4858 -0.7893
  140SAPE  H13S15279   5.959   0.272   9.817 -0.6219  1.1676 -0.8405
  140SAPE  C21415280   5.871   0.276   9.637  0.1492  0.3993 -0.2213
  140SAPE  H14R15281   5.874   0.384   9.659 -1.6608  0.7923 -1.7468
  140SAPE  C21515282   5.813   0.235   9.525 -0.0128 -0.1287  0.0464
  140SAPE  H15R15283   5.793   0.314   9.451  1.4131 -1.6593 -2.0221
  140SAPE  C21615284   5.789   0.098   9.482 -0.0717 -0.6188  0.0188
  140SAPE  H16R15285   5.688   0.068   9.517 -0.9812  2.6750  0.3594
  140SAPE  H16S15286   5.859   0.027   9.532 -1.1992 -0.9574  1.1455
  140SAPE  C21715287   5.798   0.064   9.329  0.7166 -0.7777  0.2379
  140SAPE  H17R15288   5.708   0.087   9.268 -1.0406  0.6172  3.2211
  140SAPE  H17S15289   5.791  -0.046   9.329  0.5377 -0.7651  0.0120
  140SAPE  C21815290   5.930   0.110   9.267  0.5672 -0.1749 -0.9358
  140SAPE  H18R15291   6.018   0.063   9.316 -1.9068 -2.8956  1.0539
  140SAPE  H18S15292   5.937   0.220   9.282 -1.1296 -0.1219 -0.4551
  140SAPE  C21915293   5.934   0.096   9.116 -0.1176 -0.8962 -0.6502
  140SAPE  H19R15294   6.028   0.136   9.073  0.2802 -0.2976  0.7644
  140SAPE  H19S15295   5.857   0.161   9.069 -0.6045 -0.2482  0.9940
  140SAPE  C22015296   5.898  -0.051   9.085  0.2670 -0.0347 -0.1566
  140SAPE  H20R15297   5.789  -0.059   9.104  0.5304 -0.4438  1.2532
  140SAPE  H20S15298   5.946  -0.131   9.145 -1.5477 -0.5927  0.5819
  140SAPE  H20T15299   5.903  -0.071   8.976  0.0924  0.4218 -0.2493
  140SAPE   C3315300   5.428   0.198  10.176 -0.2684  0.5106 -0.3054
  140SAPE   H3X15301   5.368   0.288  10.200 -0.2459 -0.0048  1.7935
  140SAPE   H3Y15302   5.363   0.107  10.182 -0.8625  0.8104 -1.9295
  140SAPE   C3415303   5.490   0.212  10.040  0.3409  0.3516 -0.1235
  140SAPE   H4X15304   5.559   0.128  10.020  1.5044  0.7002  2.2192
  140SAPE   H4Y15305   5.569   0.290  10.032  0.5358  0.5360  3.1999
  140SAPE   C3515306   5.378   0.209   9.932 -0.2244  0.3492 -0.0219
  140SAPE   H5X15307   5.311   0.298   9.937 -0.7613  0.0599 -1.6483
  140SAPE   H5Y15308   5.313   0.121   9.956 -1.1108  1.4044  1.5463
  140SAPE   C3615309   5.418   0.212   9.787 -0.4604 -0.3606  0.1154
  140SAPE   H6X15310   5.459   0.111   9.767 -0.0138 -0.3075  0.7557
  140SAPE   H6Y15311   5.494   0.293   9.775  1.8275 -2.2300  1.5775
  140SAPE   C3715312   5.302   0.226   9.678 -0.0715 -0.1421  0.0456
  140SAPE   H7X15313   5.255   0.326   9.664  1.2010  0.2170 -1.9338
  140SAPE   H7Y15314   5.219   0.155   9.694 -0.0424  0.0387  1.0070
  140SAPE   C3815315   5.369   0.189   9.535  0.3901 -0.0101 -0.5702
  140SAPE   H8X15316   5.358   0.080   9.513  3.3454  0.2705 -3.8942
  140SAPE   H8Y15317   5.479   0.207   9.544  0.5153 -0.3533 -1.4015
  140SAPE   C3915318   5.309   0.265   9.421 -0.3810 -0.2695  0.2526
  140SAPE   H9X15319   5.299   0.369   9.456  2.2645  0.2492 -0.4591
  140SAPE   H9Y15320   5.210   0.220   9.397 -0.0369 -1.5271  1.1638
  140SAPE  C31015321   5.415   0.267   9.317 -0.6631  0.1335  0.3841
  140SAPE  H10X15322   5.438   0.167   9.275 -0.7053  0.3282 -0.1008
  140SAPE  H10Y15323   5.514   0.306   9.347  0.2817  0.4776 -2.9722
  140SAPE  C31115324   5.374   0.347   9.190  0.3119 -0.1270  0.1102
  140SAPE  H11X15325   5.356   0.452   9.222 -0.9069 -0.9048  2.1194
  140SAPE  H11Y15326   5.277   0.313   9.148  0.9342  2.1868 -3.4062
  140SAPE  C31215327   5.487   0.340   9.079  0.4234  0.2671  0.0938
  140SAPE  H12X15328   5.588   0.360   9.121 -0.1391 -2.2814  2.7905
  140SAPE  H12Y15329   5.464   0.427   9.014 -1.4084  0.8106  1.4394
  140SAPE  C31315330   5.467   0.209   8.989  0.2252 -0.5320  0.3954
  140SAPE  H13X15331   5.361   0.199   8.960  0.2455 -4.0506  1.2503
  140SAPE  H13Y15332   5.494   0.117   9.046  0.2480 -1.1391 -0.5892
  140SAPE  C31415333   5.556   0.211   8.856 -0.3521  0.3910 -0.9774
  140SAPE  H14X15334   5.662   0.230   8.881 -0.0460 -1.2230 -0.9851
  140SAPE  H14Y15335   5.521   0.285   8.781  0.0057  0.2805 -1.2512
  140SAPE  C31515336   5.547   0.065   8.796  0.4924 -0.3112 -0.4594
  140SAPE  H15X15337   5.442   0.034   8.777 -0.0232  0.6157  0.7551
  140SAPE  H15Y15338   5.575  -0.002   8.880 -3.8244 -1.9334 -0.1803
  140SAPE  C31615339   5.629   0.051   8.669 -0.0650  0.1136  0.4180
  140SAPE  H16X15340   5.697   0.138   8.663 -0.8297  0.8538  2.1289
  140SAPE  H16Y15341   5.553   0.062   8.588  1.0314  1.8705 -0.4117
  140SAPE  C31715342   5.708  -0.081   8.667 -0.6964  0.0762  0.5670
  140SAPE  H17X15343   5.732  -0.097   8.775 -0.4788 -0.4086  0.4511
  140SAPE  H17Y15344   5.806  -0.075   8.615 -0.0311 -0.4178  1.7216
  140SAPE  C31815345   5.629  -0.188   8.603 -0.3191 -0.0337  0.0378
  140SAPE  H18X15346   5.603  -0.175   8.495  0.6503  2.4504  0.0794
  140SAPE  H18Y15347   5.531  -0.198   8.652  0.4023  0.8663  1.6925
  140SAPE  H18Z15348   5.675  -0.290   8.606  1.5727  0.7402 -1.1229
  141SAPE     N15349   6.296   0.897  11.064  0.3307 -0.4875  0.2118
  141SAPE   HN115350   6.335   0.967  11.131  2.2628 -0.3859 -0.9547
  141SAPE   HN215351   6.380   0.841  11.037 -0.4181 -0.7312 -1.7212
  141SAPE   HN315352   6.249   0.953  10.990  2.5492  0.8445 -0.2379
  141SAPE   C1215353   6.192   0.819  11.139 -0.1005 -0.4669  0.3460
  141SAPE  H12A15354   6.116   0.895  11.170 -0.7197 -0.6602 -0.6652
  141SAPE  H12B15355   6.230   0.754  11.220 -1.4430 -3.0437 -1.0219
  141SAPE   C1115356   6.113   0.731  11.042 -0.5229 -0.5069 -0.0461
  141SAPE  H11A15357   6.014   0.711  11.088 -0.8650  0.1535 -0.4844
  141SAPE  H11B15358   6.160   0.630  11.041  0.0192 -0.2853  1.6673
  141SAPE     P15359   6.023   0.899  10.849  0.2115 -0.2649 -0.0110
  141SAPE   O1315360   5.884   0.905  10.910  0.2695 -0.3374  0.2880
  141SAPE   O1415361   6.103   1.021  10.876 -0.5131  0.2341  0.2703
  141SAPE   O1215362   6.101   0.781  10.907 -0.3527  0.3025  0.3227
  141SAPE   O1115363   6.001   0.874  10.693  0.4340 -0.7771  0.5678
  141SAPE    C115364   6.114   0.833  10.618  0.0460 -0.4617 -0.0227
  141SAPE    HA15365   6.149   0.735  10.658 -0.4006  0.1255  1.8762
  141SAPE    HB15366   6.075   0.803  10.518 -0.7892 -0.4068  0.2828
  141SAPE    C215367   6.222   0.940  10.587 -0.5931  0.1660  0.7113
  141SAPE    HS15368   6.260   0.977  10.685 -1.5591 -0.2551  1.2595
  141SAPE   O2115369   6.164   1.048  10.512  0.3436 -0.1255 -0.0943
  141SAPE   C2115370   6.231   1.158  10.517  0.1537 -0.5540  0.4273
  141SAPE   O2215371   6.325   1.181  10.596 -0.1544  0.1388  0.0224
  141SAPE   C2215372   6.174   1.254  10.414  0.2945 -0.3841  0.5395
  141SAPE   H2R15373   6.086   1.303  10.461  1.8968  1.2907  1.8664
  141SAPE   H2S15374   6.249   1.332  10.388 -0.7546  0.1998 -0.8016
  141SAPE    C315375   6.338   0.884  10.492 -0.1846 -0.3974 -0.3906
  141SAPE    HX15376   6.375   0.801  10.555 -0.2087 -1.2224 -1.4550
  141SAPE    HY15377   6.433   0.942  10.493 -0.9789  0.9305  2.2016
  141SAPE   O3115378   6.297   0.841  10.356 -0.0796 -0.6207  0.4153
  141SAPE   C3115379   6.365   0.880  10.254  0.2383 -0.2168  0.3656
  141SAPE   O3215380   6.470   0.944  10.252 -0.4583  0.4267 -0.2066
  141SAPE   C3215381   6.300   0.826  10.130  0.1375 -0.4771  0.9849
  141SAPE   H2X15382   6.218   0.893  10.098 -0.6963 -0.6362  2.7146
  141SAPE   H2Y15383   6.261   0.723  10.145 -1.1042 -0.3025 -0.9664
  141SAPE   C2315384   6.141   1.179  10.281  0.3339  0.6552  0.9162
  141SAPE   H3R15385   6.075   1.092  10.300  1.7412 -0.3242  1.4065
  141SAPE   H3S15386   6.234   1.140  10.235  0.1965  3.0440 -1.5634
  141SAPE   C2415387   6.068   1.270  10.177 -0.2330 -0.1338 -0.2458
  141SAPE   H4R15388   5.970   1.302  10.218 -0.0119  1.4494 -0.9072
  141SAPE   H4S15389   6.039   1.209  10.089 -0.3022  0.6060 -0.7463
  141SAPE   C2515390   6.145   1.388  10.126  0.0702 -0.3103  0.1534
  141SAPE   H5R15391   6.170   1.457  10.208 -2.1669 -0.3338  0.8934
  141SAPE   C2615392   6.190   1.411  10.001  0.2617  0.1388  0.4618
  141SAPE   H6R15393   6.228   1.511   9.978 -0.0761  0.2752  0.4970
  141SAPE   C2715394   6.170   1.312   9.887 -0.2590  0.5361  0.2764
  141SAPE   H7R15395   6.182   1.206   9.920 -0.3885  0.9266  1.6053
  141SAPE   H7S15396   6.254   1.332   9.817 -0.7107  0.7083 -0.2157
  141SAPE   C2815397   6.038   1.320   9.812 -0.8761  0.4793  0.2164
  141SAPE   H8R15398   5.946   1.311   9.870 -2.1495  1.4181 -1.6050
  141SAPE   C2915399   6.020   1.351   9.681  0.0327  0.7766 -0.2621
  141SAPE   H9R15400   5.916   1.350   9.646 -1.1888  1.9346  3.0658
  141SAPE  C21015401   6.127   1.349   9.579 -0.6745 -0.4494 -0.1214
  141SAPE  H10R15402   6.201   1.424   9.616  1.7408 -3.4622  1.4283
  141SAPE  H10S15403   6.088   1.394   9.486  1.3301  0.1550 -0.6871
  141SAPE  C21115404   6.184   1.215   9.557  0.3820 -0.4216 -0.3400
  141SAPE  H11R15405   6.200   1.156   9.648 -2.6380 -0.2427  0.3580
  141SAPE  C21215406   6.243   1.179   9.442  0.2433 -0.1400 -0.0755
  141SAPE  H12R15407   6.280   1.075   9.436  1.3052  0.3142 -1.6814
  141SAPE  C21315408   6.235   1.240   9.302 -0.2435  0.3317  0.2090
  141SAPE  H13R15409   6.159   1.321   9.310  0.6085  1.2354 -0.6786
  141SAPE  H13S15410   6.201   1.162   9.231  0.9685  0.0633 -0.0942
  141SAPE  C21415411   6.367   1.308   9.254 -0.3804  0.4181  0.3450
  141SAPE  H14R15412   6.439   1.334   9.332  0.5286  0.1245 -0.3903
  141SAPE  C21515413   6.420   1.340   9.129  0.0244 -0.0817  0.6447
  141SAPE  H15R15414   6.511   1.402   9.127  0.4612 -0.6905  1.3074
  141SAPE  C21615415   6.346   1.311   9.004 -0.3088 -0.2936 -0.1390
  141SAPE  H16R15416   6.333   1.400   8.938 -1.7682  0.7778  1.5569
  141SAPE  H16S15417   6.241   1.276   9.012 -0.4105  0.0864  0.2087
  141SAPE  C21715418   6.417   1.207   8.919 -0.4734  0.1661 -0.3733
  141SAPE  H17R15419   6.445   1.124   8.989 -1.6036 -0.6836 -0.9126
  141SAPE  H17S15420   6.517   1.242   8.885 -0.3291 -0.7592 -0.9499
  141SAPE  C21815421   6.341   1.178   8.794  0.4105  0.2195  0.3342
  141SAPE  H18R15422   6.310   1.269   8.737  1.0478 -0.1541 -0.6356
  141SAPE  H18S15423   6.248   1.124   8.820  0.7687 -2.6038 -3.7224
  141SAPE  C21915424   6.418   1.098   8.680 -0.2788  0.5128 -0.3761
  141SAPE  H19R15425   6.521   1.136   8.666 -0.0099  0.5090  1.4691
  141SAPE  H19S15426   6.368   1.133   8.586 -1.6791  2.9037  1.1972
  141SAPE  C22015427   6.409   0.954   8.698 -0.6696  0.0729  0.0231
  141SAPE  H20R15428   6.415   0.922   8.804 -0.8663  0.2029  0.0722
  141SAPE  H20S15429   6.482   0.899   8.635 -1.6708 -1.4762  0.2092
  141SAPE  H20T15430   6.314   0.909   8.663 -2.8245  1.7965  3.4169
  141SAPE   C3315431   6.405   0.831  10.025 -0.7078 -0.4374  0.6621
  141SAPE   H3X15432   6.508   0.798  10.049 -0.3060 -0.2598 -0.7284
  141SAPE   H3Y15433   6.423   0.936   9.995  0.7871 -0.3621  1.7590
  141SAPE   C3415434   6.350   0.757   9.904  0.3218  0.9271 -0.5241
  141SAPE   H4X15435   6.275   0.813   9.846 -0.9021  1.4524  1.5155
  141SAPE   H4Y15436   6.298   0.667   9.944  1.3126  0.5526 -0.0511
  141SAPE   C3515437   6.449   0.733   9.799  0.1466 -0.1889 -0.3084
  141SAPE   H5X15438   6.409   0.668   9.718 -2.4537 -0.1183  0.8561
  141SAPE   H5Y15439   6.527   0.666   9.842 -0.1663 -0.5786 -0.3423
  141SAPE   C3615440   6.514   0.855   9.735  0.6984 -0.2742  0.1926
  141SAPE   H6X15441   6.573   0.904   9.816  2.1455 -1.6392 -0.0121
  141SAPE   H6Y15442   6.449   0.942   9.712  2.7275  2.1262  3.0870
  141SAPE   C3715443   6.610   0.828   9.614  0.3123 -0.2142  0.3772
  141SAPE   H7X15444   6.646   0.924   9.569 -1.7339 -0.3637 -1.6727
  141SAPE   H7Y15445   6.550   0.784   9.531  0.6415 -0.8232  0.4625
  141SAPE   C3815446   6.731   0.743   9.645 -0.3701 -0.1814 -0.6499
  141SAPE   H8X15447   6.697   0.640   9.670  1.5118 -0.3592  1.2656
  141SAPE   H8Y15448   6.781   0.773   9.739 -2.4800  0.1645  0.3920
  141SAPE   C3915449   6.836   0.741   9.528 -0.0522 -0.4921  0.6212
  141SAPE   H9X15450   6.931   0.786   9.561  0.0570  0.1857 -0.5893
  141SAPE   H9Y15451   6.801   0.794   9.437  0.7729  0.7975  1.0531
  141SAPE  C31015452   6.861   0.594   9.495  0.3861 -0.3282  0.0012
  141SAPE  H10X15453   6.765   0.545   9.465  1.7490 -2.5035 -0.9336
  141SAPE  H10Y15454   6.890   0.536   9.585 -0.4552 -1.5531 -0.5026
  141SAPE  C31115455   6.972   0.588   9.386  0.3108  0.5407  0.1230
  141SAPE  H11X15456   7.068   0.575   9.440  0.4518  2.1285  0.2654
  141SAPE  H11Y15457   6.989   0.685   9.335  2.6474  0.4018  0.5872
  141SAPE  C31215458   6.952   0.477   9.286  0.9381  0.2969 -0.1327
  141SAPE  H12X15459   6.848   0.473   9.246  1.1198 -0.5730 -0.5197
  141SAPE  H12Y15460   6.950   0.383   9.345 -0.3846  1.0673  1.0747
  141SAPE  C31315461   7.054   0.473   9.175  0.4573 -0.1550  0.8154
  141SAPE  H13X15462   7.158   0.494   9.210  0.7492  1.5048 -0.9891
  141SAPE  H13Y15463   7.030   0.563   9.116 -1.6054 -0.9187  0.4667
  141SAPE  C31415464   7.058   0.344   9.095  0.1073  0.1543  0.4314
  141SAPE  H14X15465   6.968   0.350   9.030 -0.3996  0.8585  1.1844
  141SAPE  H14Y15466   7.042   0.255   9.161  0.3776  0.2118  0.5729
  141SAPE  C31515467   7.185   0.329   9.014 -0.8875  0.3387  0.6906
  141SAPE  H15X15468   7.271   0.332   9.085  0.5982 -1.7194 -0.9143
  141SAPE  H15Y15469   7.187   0.417   8.947 -2.0547 -0.2058 -0.0718
  141SAPE  C31615470   7.184   0.201   8.941  0.4404  0.1900 -0.3353
  141SAPE  H16X15471   7.108   0.201   8.860  0.0094  0.4532  0.0714
  141SAPE  H16Y15472   7.160   0.117   9.010  1.8799  1.2684  1.4902
  141SAPE  C31715473   7.315   0.171   8.861  0.0358 -0.1329  1.1096
  141SAPE  H17X15474   7.300   0.073   8.811 -3.4823  1.0013 -0.2427
  141SAPE  H17Y15475   7.407   0.174   8.924  2.6364 -1.0196 -2.5231
  141SAPE  C31815476   7.337   0.274   8.751  0.0508 -0.8812 -0.4150
  141SAPE  H18X15477   7.371   0.370   8.795  0.0395 -1.3993  0.7454
  141SAPE  H18Y15478   7.249   0.285   8.684  1.3869 -0.2778 -2.0885
  141SAPE  H18Z15479   7.426   0.242   8.693  1.4173  1.9416  0.0310
  142SAPE     N15480   6.614   0.233  11.440  0.3407  0.0502  0.1912
  142SAPE   HN115481   6.540   0.172  11.400  1.8186  0.5413 -3.4688
  142SAPE   HN215482   6.590   0.272  11.533  0.7364  0.6396  0.0481
  142SAPE   HN315483   6.630   0.319  11.385 -0.1987  1.6083  2.4329
  142SAPE   C1215484   6.753   0.168  11.447  0.3877 -0.1207  0.9105
  142SAPE  H12A15485   6.752   0.084  11.520 -0.5493 -1.4175 -0.5640
  142SAPE  H12B15486   6.823   0.246  11.486  1.5048 -0.6982  0.0751
  142SAPE   C1115487   6.800   0.131  11.308  0.6851 -0.0842  0.2230
  142SAPE  H11A15488   6.733   0.067  11.247  0.3768 -0.1488  0.6222
  142SAPE  H11B15489   6.895   0.076  11.324  1.0890 -0.0395 -1.8852
  142SAPE     P15490   6.933   0.285  11.126  0.0417 -0.3161  0.5038
  142SAPE   O1315491   6.963   0.427  11.107  0.1102 -0.0573  0.5183
  142SAPE   O1415492   7.053   0.205  11.161 -0.1092 -0.2371  0.3161
  142SAPE   O1215493   6.820   0.251  11.229 -0.1564 -0.2879 -0.4881
  142SAPE   O1115494   6.879   0.234  10.992 -0.2455  0.3136  0.0715
  142SAPE    C115495   6.742   0.235  10.961 -0.1999  0.0316 -0.0815
  142SAPE    HA15496   6.703   0.137  10.998 -1.5605  0.7798  0.5203
  142SAPE    HB15497   6.685   0.308  11.022  1.2993  0.8516  0.3610
  142SAPE    C215498   6.726   0.265  10.816  0.2231 -0.1572  0.5490
  142SAPE    HS15499   6.768   0.364  10.789  2.3157 -1.3813 -0.8556
  142SAPE   O2115500   6.586   0.257  10.776  0.4632  0.4277 -0.1851
  142SAPE   C2115501   6.525   0.367  10.808 -0.0657  0.3781 -0.0042
  142SAPE   O2215502   6.574   0.476  10.835  0.3162  0.2658 -0.0642
  142SAPE   C2215503   6.372   0.340  10.793  0.4889 -0.1880 -0.7717
  142SAPE   H2R15504   6.362   0.237  10.753  0.1311  0.3066 -1.9738
  142SAPE   H2S15505   6.330   0.348  10.896 -0.0387 -0.4839 -0.9650
  142SAPE    C315506   6.801   0.154  10.739  0.4854  0.0872  0.3419
  142SAPE    HX15507   6.767   0.053  10.770 -0.0894  1.0494  2.9618
  142SAPE    HY15508   6.908   0.161  10.766  0.3180  1.0474  0.7955
  142SAPE   O3115509   6.786   0.165  10.599 -0.1931 -0.1331  0.3512
  142SAPE   C3115510   6.876   0.108  10.528  0.7906  0.1525  0.3622
  142SAPE   O3215511   6.970   0.040  10.575 -0.1418  0.2513  0.4269
  142SAPE   C3215512   6.844   0.126  10.369 -0.3870  0.3289 -0.0548
  142SAPE   H2X15513   6.824   0.235  10.353 -1.2398  0.1719 -0.0698
  142SAPE   H2Y15514   6.746   0.076  10.356  0.4223 -1.2907 -0.0286
  142SAPE   C2315515   6.306   0.451  10.705 -0.4539  1.1172 -0.4404
  142SAPE   H3R15516   6.340   0.554  10.729  0.9829  0.4919  0.2537
  142SAPE   H3S15517   6.197   0.458  10.726 -0.2889 -1.3233  1.3591
  142SAPE   C2415518   6.326   0.417  10.553  0.4384 -0.0333 -0.9258
  142SAPE   H4R15519   6.255   0.470  10.487 -0.2700 -0.4710 -0.5135
  142SAPE   H4S15520   6.303   0.311  10.533 -1.1583  0.1989 -0.3530
  142SAPE   C2515521   6.460   0.450  10.511 -0.8142 -0.0783 -0.6921
  142SAPE   H5R15522   6.526   0.488  10.590 -1.2138 -1.3767  0.2909
  142SAPE   C2615523   6.505   0.463  10.388  0.2408  0.1522  0.1156
  142SAPE   H6R15524   6.613   0.474  10.369  0.4358 -2.7911 -0.8637
  142SAPE   C2715525   6.422   0.436  10.265 -0.2485  0.0294  0.3809
  142SAPE   H7R15526   6.490   0.467  10.182  1.3405 -1.5477  1.0694
  142SAPE   H7S15527   6.333   0.501  10.258 -0.8843 -0.8414  0.3362
  142SAPE   C2815528   6.371   0.298  10.260  0.0657  0.5544  1.0228
  142SAPE   H8R15529   6.339   0.252  10.354 -0.9812  2.1229  1.4651
  142SAPE   C2915530   6.346   0.246  10.139  0.1359 -0.8372 -0.5107
  142SAPE   H9R15531   6.310   0.142  10.134 -3.3442  0.3448 -1.2797
  142SAPE  C21015532   6.374   0.311  10.013 -0.2382  0.1767  0.4074
  142SAPE  H10R15533   6.484   0.323  10.003 -0.3602  0.5019 -0.5344
  142SAPE  H10S15534   6.346   0.418  10.003  1.6194  0.6105 -0.4315
  142SAPE  C21115535   6.327   0.237   9.888  0.2461 -0.6285  0.5619
  142SAPE  H11R15536   6.273   0.143   9.905 -0.2817 -0.1894  1.3645
  142SAPE  C21215537   6.371   0.266   9.766  0.1459 -0.1633 -0.5502
  142SAPE  H12R15538   6.329   0.211   9.681 -2.1696 -1.0676  1.1085
  142SAPE  C21315539   6.466   0.368   9.718  0.2878  0.0876 -0.5531
  142SAPE  H13R15540   6.519   0.433   9.791 -1.4165  3.4269 -2.1358
  142SAPE  H13S15541   6.422   0.454   9.662  0.2885 -0.8194 -1.9537
  142SAPE  C21415542   6.579   0.318   9.639  0.0611 -0.1402 -0.7101
  142SAPE  H14R15543   6.653   0.252   9.688 -0.9860 -1.4876 -0.8988
  142SAPE  C21515544   6.596   0.326   9.505  0.3028 -0.1495 -0.0244
  142SAPE  H15R15545   6.688   0.290   9.456  0.6239  0.5275  0.0714
  142SAPE  C21615546   6.496   0.384   9.409 -0.4148  0.3347 -0.2309
  142SAPE  H16R15547   6.539   0.481   9.378  2.8994 -0.9962  0.0245
  142SAPE  H16S15548   6.395   0.416   9.441 -0.3491  2.3035 -1.8435
  142SAPE  C21715549   6.466   0.288   9.294  0.1753  0.8164  0.4559
  142SAPE  H17R15550   6.560   0.258   9.243  1.0197  2.3686  1.0677
  142SAPE  H17S15551   6.399   0.324   9.213 -0.7130  0.7213  1.1423
  142SAPE  C21815552   6.423   0.151   9.354  0.1673  0.2153 -0.2899
  142SAPE  H18R15553   6.357   0.176   9.440 -0.3596 -1.0526 -0.3162
  142SAPE  H18S15554   6.514   0.099   9.391 -0.1752  1.4325  2.4247
  142SAPE  C21915555   6.343   0.069   9.249 -0.5258 -0.6474 -0.4685
  142SAPE  H19R15556   6.411   0.053   9.162  1.6588 -0.9109  1.2441
  142SAPE  H19S15557   6.253   0.122   9.213 -1.4933 -1.8929  0.0675
  142SAPE  C22015558   6.295  -0.058   9.311 -0.5018 -0.1893 -0.7641
  142SAPE  H20R15559   6.378  -0.111   9.363  0.4505  1.9394 -0.0512
  142SAPE  H20S15560   6.245  -0.118   9.233 -1.9241 -0.8541  0.6199
  142SAPE  H20T15561   6.218  -0.053   9.391  0.1025 -0.7014 -0.1389
  142SAPE   C3315562   6.950   0.073  10.277  0.3984  0.2465  0.1917
  142SAPE   H3X15563   6.995  -0.021  10.316 -0.5558 -1.3127 -2.3564
  142SAPE   H3Y15564   7.029   0.151  10.283 -0.8853  1.7149 -1.5519
  142SAPE   C3415565   6.886   0.031  10.140  0.2590 -0.5181 -0.4828
  142SAPE   H4X15566   6.797  -0.027  10.174 -0.6728  1.5572  0.7404
  142SAPE   H4Y15567   6.956  -0.033  10.082 -0.0184  0.3231 -1.7463
  142SAPE   C3515568   6.838   0.155  10.055  0.3771  0.3392  0.2989
  142SAPE   H5X15569   6.932   0.195  10.010  1.2672 -2.4112 -0.4238
  142SAPE   H5Y15570   6.803   0.227  10.131  0.3818 -0.1046  0.7204
  142SAPE   C3615571   6.734   0.114   9.949  0.6726 -0.3243  0.0252
  142SAPE   H6X15572   6.708   0.210   9.900  1.4294 -0.0770  0.0948
  142SAPE   H6Y15573   6.653   0.054   9.995  0.7727 -1.3410 -1.1230
  142SAPE   C3715574   6.788   0.019   9.843  0.3714  0.8937 -0.3436
  142SAPE   H7X15575   6.700  -0.002   9.779 -0.7647  3.4561  0.2822
  142SAPE   H7Y15576   6.821  -0.079   9.884  0.2817  0.9999 -0.0170
  142SAPE   C3815577   6.902   0.081   9.758 -0.0786  0.0377 -0.0236
  142SAPE   H8X15578   7.002   0.060   9.801 -0.3371  2.9148  2.0894
  142SAPE   H8Y15579   6.882   0.190   9.760 -0.1910  0.0049  0.4983
  142SAPE   C3915580   6.881   0.033   9.617  0.5024  0.3586 -1.0798
  142SAPE   H9X15581   6.784   0.059   9.570 -1.8666 -1.9132  2.3122
  142SAPE   H9Y15582   6.890  -0.078   9.616  1.5941  0.4437 -2.2004
  142SAPE  C31015583   6.990   0.092   9.527 -0.5204 -0.3847  0.2715
  142SAPE  H10X15584   7.090   0.068   9.570 -0.3715 -1.1992 -0.5227
  142SAPE  H10Y15585   6.975   0.202   9.526 -0.5358 -0.3784  0.9414
  142SAPE  C31115586   6.986   0.029   9.385 -0.6956 -0.0323  0.4497
  142SAPE  H11X15587   7.001  -0.081   9.385 -3.7321 -0.4887 -1.3728
  142SAPE  H11Y15588   7.068   0.083   9.333 -2.4377 -0.9012 -3.3386
  142SAPE  C31215589   6.854   0.059   9.307 -0.8391  0.0434 -0.3204
  142SAPE  H12X15590   6.831   0.167   9.297 -1.2528  0.0394  0.5148
  142SAPE  H12Y15591   6.767   0.011   9.357  0.7268 -1.8120  0.6853
  142SAPE  C31315592   6.876   0.001   9.166  0.0411 -0.4283  0.1147
  142SAPE  H13X15593   6.894  -0.109   9.174 -0.2108 -0.3788  1.4037
  142SAPE  H13Y15594   6.967   0.045   9.120  0.1794 -0.9328 -0.1005
  142SAPE  C31415595   6.758   0.030   9.076  0.3795 -0.8552  0.3153
  142SAPE  H14X15596   6.674   0.003   9.143 -0.1538  0.2004  0.0767
  142SAPE  H14Y15597   6.754  -0.024   8.979  1.5339  1.2005 -0.9147
  142SAPE  C31515598   6.730   0.179   9.036 -1.0381 -0.1828 -0.2734
  142SAPE  H15X15599   6.810   0.200   8.962  0.7641 -0.3441  1.5903
  142SAPE  H15Y15600   6.746   0.248   9.121  2.5634 -1.4402  0.1229
  142SAPE  C31615601   6.609   0.181   8.944 -0.6098  0.3482 -0.1256
  142SAPE  H16X15602   6.532   0.111   8.983 -2.0257  0.5292 -2.4541
  142SAPE  H16Y15603   6.650   0.150   8.845 -0.2099 -0.9237  0.4224
  142SAPE  C31715604   6.543   0.312   8.935  0.4540  0.0390 -0.2692
  142SAPE  H17X15605   6.609   0.385   8.886 -0.2419 -0.3750 -1.8622
  142SAPE  H17Y15606   6.540   0.338   9.043  1.0732 -1.8256  0.2162
  142SAPE  C31815607   6.400   0.319   8.866 -0.0877 -0.1262 -0.1361
  142SAPE  H18X15608   6.325   0.273   8.933 -0.0212  1.5288  1.1203
  142SAPE  H18Y15609   6.408   0.272   8.766  0.2432  0.6102 -0.4571
  142SAPE  H18Z15610   6.375   0.426   8.847  1.2526 -0.0417 -1.4404
  143SAPE     N15611   1.120   0.501  11.220  0.0183  0.2423 -0.1870
  143SAPE   HN115612   1.071   0.467  11.135  0.9184 -0.7863 -0.3039
  143SAPE   HN215613   1.180   0.418  11.236  0.5726  0.8091  0.7456
  143SAPE   HN315614   1.051   0.517  11.296  0.3520 -0.6629  0.3129
  143SAPE   C1215615   1.215   0.615  11.189  0.3047 -0.0373 -0.0885
  143SAPE  H12A15616   1.280   0.630  11.278  0.3261 -3.3834  0.5301
  143SAPE  H12B15617   1.154   0.707  11.179  2.1942  1.2362 -0.3262
  143SAPE   C1115618   1.308   0.588  11.066  0.2604  0.1230 -0.0053
  143SAPE  H11A15619   1.365   0.682  11.048  2.1969 -1.0981 -0.3872
  143SAPE  H11B15620   1.230   0.588  10.986  1.0330  3.0310 -0.8262
  143SAPE     P15621   1.522   0.472  11.159 -0.4333 -0.2032 -0.3113
  143SAPE   O1315622   1.519   0.587  11.252  0.1647  0.0270 -0.0577
  143SAPE   O1415623   1.549   0.342  11.228 -0.0984  0.5789  0.2539
  143SAPE   O1215624   1.382   0.468  11.081 -0.2939  0.9261  0.0812
  143SAPE   O1115625   1.638   0.507  11.057  0.0626 -0.9341 -0.0063
  143SAPE    C115626   1.617   0.545  10.923 -0.2415  0.4690 -0.1071
  143SAPE    HA15627   1.518   0.593  10.908 -0.9452  0.0860  3.0017
  143SAPE    HB15628   1.687   0.626  10.892  1.6400 -0.8756  0.5511
  143SAPE    C215629   1.629   0.415  10.835  0.1397  0.1095  0.6541
  143SAPE    HS15630   1.650   0.442  10.730  0.3951  0.0413  0.6867
  143SAPE   O2115631   1.506   0.332  10.858  0.2072 -0.2801 -0.1385
  143SAPE   C2115632   1.415   0.361  10.763 -0.4216 -0.1143 -1.2404
  143SAPE   O2215633   1.432   0.429  10.665 -0.1435  0.2323  0.3377
  143SAPE   C2215634   1.292   0.282  10.804 -0.5262 -0.6013 -0.6850
  143SAPE   H2R15635   1.324   0.196  10.867 -0.0694 -1.1501 -1.6673
  143SAPE   H2S15636   1.222   0.334  10.873  1.2764 -1.4252  1.8747
  143SAPE    C315637   1.749   0.322  10.868 -0.3572  0.1994 -0.4967
  143SAPE    HX15638   1.741   0.273  10.967 -1.6862  1.9072  0.2605
  143SAPE    HY15639   1.838   0.388  10.881  0.6541 -1.4468  1.2633
  143SAPE   O3115640   1.777   0.236  10.756 -0.2658  0.1108 -0.2167
  143SAPE   C3115641   1.725   0.110  10.756 -0.5967  0.1039  0.0029
  143SAPE   O3215642   1.658   0.069  10.843 -0.5825 -0.2663 -0.0504
  143SAPE   C3215643   1.767   0.031  10.632 -0.1530 -1.3622 -0.7692
  143SAPE   H2X15644   1.723  -0.069  10.653 -1.4571 -0.4200  1.1634
  143SAPE   H2Y15645   1.878   0.033  10.624 -0.1620  2.2221 -0.7112
  143SAPE   C2315646   1.219   0.234  10.685  0.5046 -0.6248  0.7176
  143SAPE   H3R15647   1.212   0.320  10.615  1.1453  0.1823  1.6286
  143SAPE   H3S15648   1.112   0.213  10.706  0.4537 -0.9970  0.0844
  143SAPE   C2415649   1.273   0.116  10.602 -0.3316 -0.8033  0.3723
  143SAPE   H4R15650   1.382   0.135  10.588 -1.1233  4.4942  0.3806
  143SAPE   H4S15651   1.213   0.116  10.509  2.4937  0.5549 -1.5375
  143SAPE   C2515652   1.258  -0.013  10.675  0.0784  0.7601  0.4577
  143SAPE   H5R15653   1.342  -0.036  10.742 -0.9375 -0.2640  1.4169
  143SAPE   C2615654   1.151  -0.097  10.669 -0.0661 -0.4106  0.4513
  143SAPE   H6R15655   1.162  -0.187  10.731 -1.3034 -1.3639 -0.6753
  143SAPE   C2715656   1.024  -0.085  10.587  0.3495  0.4514  0.0583
  143SAPE   H7R15657   0.987  -0.187  10.562  2.6310 -1.2352  3.1492
  143SAPE   H7S15658   1.051  -0.037  10.491  1.3588  2.4152  1.2920
  143SAPE   C2815659   0.911  -0.017  10.656 -0.0695  0.6890 -0.5118
  143SAPE   H8R15660   0.935   0.065  10.725 -1.3749  0.6000  0.0793
  143SAPE   C2915661   0.779  -0.045  10.644  0.1166  0.1965  0.0792
  143SAPE   H9R15662   0.708   0.008  10.708 -1.4880  0.7667 -2.1064
  143SAPE  C21015663   0.715  -0.153  10.549  0.4088 -0.2308 -0.2096
  143SAPE  H10R15664   0.712  -0.250  10.602 -0.1577  1.2212  2.4799
  143SAPE  H10S15665   0.774  -0.188  10.461 -0.6959 -2.0683 -0.2396
  143SAPE  C21115666   0.575  -0.108  10.517  0.4469 -0.2991 -0.5146
  143SAPE  H11R15667   0.578  -0.012  10.465  0.3008 -0.4258 -0.7588
  143SAPE  C21215668   0.465  -0.174  10.539  0.3974  0.2341 -0.2244
  143SAPE  H12R15669   0.372  -0.130  10.499 -0.6945  0.7058  2.7424
  143SAPE  C21315670   0.437  -0.309  10.611 -0.0240  0.7458 -0.6857
  143SAPE  H13R15671   0.381  -0.296  10.706 -1.1351  0.0807 -1.2377
  143SAPE  H13S15672   0.536  -0.352  10.637 -0.9634 -0.9124  0.2082
  143SAPE  C21415673   0.344  -0.411  10.549 -0.0384 -0.2131  0.5832
  143SAPE  H14R15674   0.259  -0.388  10.482  0.4295  0.3897  0.1969
  143SAPE  C21515675   0.349  -0.540  10.571  0.1049 -0.1604  0.1318
  143SAPE  H15R15676   0.283  -0.611  10.520 -1.5525  0.7748  0.9200
  143SAPE  C21615677   0.452  -0.616  10.649 -0.9610 -0.3163  0.4551
  143SAPE  H16R15678   0.479  -0.568  10.746 -1.8560 -0.5648  0.8293
  143SAPE  H16S15679   0.546  -0.614  10.589 -0.6920 -2.8399  0.7543
  143SAPE  C21715680   0.439  -0.766  10.680  0.2648 -0.2961  0.1321
  143SAPE  H17R15681   0.406  -0.829  10.595  1.6240 -1.2617  0.3119
  143SAPE  H17S15682   0.365  -0.776  10.762  0.0004  2.0689  0.2139
  143SAPE  C21815683   0.571  -0.833  10.709 -0.1990 -0.6379  0.0887
  143SAPE  H18R15684   0.607  -0.807  10.811  0.7232 -0.2492 -0.3212
  143SAPE  H18S15685   0.654  -0.811  10.638  0.1593  0.7988  0.9290
  143SAPE  C21915686   0.561  -0.991  10.709 -0.0900  0.5055 -0.0140
  143SAPE  H19R15687   0.554  -1.016  10.601  1.1063  3.2407 -0.7596
  143SAPE  H19S15688   0.464  -1.022  10.754 -0.8277  1.4651 -0.9031
  143SAPE  C22015689   0.693  -1.058  10.766  0.0232  0.0385 -0.1210
  143SAPE  H20R15690   0.709  -1.157  10.719  0.0340  0.9076 -1.9904
  143SAPE  H20S15691   0.685  -1.073  10.876  0.7003 -1.1270 -0.2197
  143SAPE  H20T15692   0.780  -0.995  10.739  0.1561 -0.4369 -0.8103
  143SAPE   C3315693   1.705   0.101  10.510 -0.8638  0.6116 -0.4016
  143SAPE   H3X15694   1.617   0.161  10.541 -1.9336 -1.5356  0.7962
  143SAPE   H3Y15695   1.674   0.028  10.433 -0.0330 -0.1456 -0.0131
  143SAPE   C3415696   1.799   0.196  10.441  0.2836 -0.0325 -0.1691
  143SAPE   H4X15697   1.903   0.158  10.433  0.3888 -0.0143  1.1193
  143SAPE   H4Y15698   1.799   0.293  10.495 -0.0839  0.0848 -0.3805
  143SAPE   C3515699   1.759   0.226  10.296 -0.3859 -0.1645 -0.4356
  143SAPE   H5X15700   1.842   0.281  10.245  0.0360 -0.9920 -0.6478
  143SAPE   H5Y15701   1.674   0.296  10.311  0.9871  1.9460 -2.1192
  143SAPE   C3615702   1.722   0.109  10.199 -0.2856  0.8074  0.5003
  143SAPE   H6X15703   1.678   0.159  10.110 -0.1062  2.5261  1.3437
  143SAPE   H6Y15704   1.628   0.067  10.240 -0.1876 -1.0670 -1.1220
  143SAPE   C3715705   1.832   0.012  10.158  0.9836 -0.0082  0.5066
  143SAPE   H7X15706   1.853  -0.037  10.256  0.3413  0.1744  0.7383
  143SAPE   H7Y15707   1.929   0.063  10.141 -0.6217  3.8963  2.3023
  143SAPE   C3815708   1.796  -0.076  10.038  0.3048 -0.5380 -0.1325
  143SAPE   H8X15709   1.814  -0.018   9.945 -0.0858 -2.9603 -1.7647
  143SAPE   H8Y15710   1.688  -0.102  10.049 -0.1000  0.6911 -1.1727
  143SAPE   C3915711   1.888  -0.205  10.025 -0.1331  0.8626 -0.0224
  143SAPE   H9X15712   1.842  -0.277  10.096  1.0200 -0.5703 -0.7005
  143SAPE   H9Y15713   1.988  -0.178  10.066  0.1347 -1.2832  0.8286
  143SAPE  C31015714   1.902  -0.261   9.886 -0.6257 -0.3604 -0.2543
  143SAPE  H10X15715   1.968  -0.350   9.897 -1.0644 -0.4251  2.0971
  143SAPE  H10Y15716   1.955  -0.182   9.828  0.4420 -0.3039  0.7726
  143SAPE  C31115717   1.770  -0.298   9.817 -0.2130 -0.0048  0.3983
  143SAPE  H11X15718   1.726  -0.207   9.770 -1.4472 -0.2636  1.0392
  143SAPE  H11Y15719   1.695  -0.345   9.884 -1.5321  1.9463  0.3446
  143SAPE  C31215720   1.801  -0.386   9.692 -0.4751 -0.4762  0.4351
  143SAPE  H12X15721   1.708  -0.430   9.649  0.8582 -0.5145 -2.5621
  143SAPE  H12Y15722   1.865  -0.469   9.728  0.9431  1.1150  1.6693
  143SAPE  C31315723   1.864  -0.313   9.571  0.0350  0.7268  0.0988
  143SAPE  H13X15724   1.916  -0.377   9.498 -1.3837  2.1069 -2.1940
  143SAPE  H13Y15725   1.953  -0.261   9.612  0.9655 -0.7022 -0.1247
  143SAPE  C31415726   1.776  -0.210   9.492 -0.2585 -0.4313  0.1923
  143SAPE  H14X15727   1.836  -0.176   9.405 -0.3697  1.8504  0.9587
  143SAPE  H14Y15728   1.764  -0.121   9.558 -3.7199 -1.0890  0.5324
  143SAPE  C31515729   1.635  -0.257   9.454  0.2563  0.1268  0.5103
  143SAPE  H15X15730   1.578  -0.256   9.550  1.8648  0.1285  1.4927
  143SAPE  H15Y15731   1.639  -0.356   9.404  0.5123  1.5830 -2.4682
  143SAPE  C31615732   1.560  -0.169   9.352 -0.5827 -0.1349 -0.0280
  143SAPE  H16X15733   1.635  -0.142   9.274  0.1092 -0.3473  0.5476
  143SAPE  H16Y15734   1.532  -0.072   9.399 -1.3885  0.1902 -1.1770
  143SAPE  C31715735   1.430  -0.237   9.304  0.6563  0.0262  0.0011
  143SAPE  H17X15736   1.465  -0.316   9.235  0.3073 -0.5097  0.4359
  143SAPE  H17Y15737   1.370  -0.158   9.255  0.3868 -0.8553 -1.0933
  143SAPE  C31815738   1.347  -0.292   9.416  0.5838 -0.4888  0.5503
  143SAPE  H18X15739   1.248  -0.324   9.377  1.4212 -0.9164 -1.2941
  143SAPE  H18Y15740   1.333  -0.221   9.500  1.3789 -1.2358  1.3301
  143SAPE  H18Z15741   1.389  -0.386   9.459  0.9467 -0.3880  0.4190
  144SAPE     N15742   4.399   5.029  11.195 -0.8312 -0.1500 -0.3760
  144SAPE   HN115743   4.309   5.075  11.217 -0.0935  1.5811 -0.9387
  144SAPE   HN215744   4.477   5.044  11.262 -1.4355  2.0386 -0.1430
  144SAPE   HN315745   4.428   5.065  11.101  1.6730 -0.3422  0.2760
  144SAPE   C1215746   4.347   4.886  11.178 -0.5066  0.5970 -0.3678
  144SAPE  H12A15747   4.284   4.883  11.087 -2.2069 -1.1095  0.8133
  144SAPE  H12B15748   4.284   4.868  11.268 -1.0639  1.8216 -0.4987
  144SAPE   C1115749   4.453   4.771  11.166 -0.2108 -0.6467 -0.6132
  144SAPE  H11A15750   4.409   4.670  11.155  1.4450 -1.3460 -0.9526
  144SAPE  H11B15751   4.507   4.760  11.262 -0.9948 -2.1608 -0.3206
  144SAPE     P15752   4.593   4.698  10.963 -0.0937  0.1664  0.1405
  144SAPE   O1315753   4.736   4.733  10.948 -0.3494  0.0518  0.0109
  144SAPE   O1415754   4.565   4.558  11.008 -0.6695  0.1989 -0.4349
  144SAPE   O1215755   4.545   4.799  11.065  0.5299 -0.7999 -0.6590
  144SAPE   O1115756   4.514   4.735  10.836  0.0031  0.1927  0.0764
  144SAPE    C115757   4.504   4.875  10.809  0.2611  0.1555 -0.4679
  144SAPE    HA15758   4.403   4.914  10.831  0.8798  1.3690  0.3064
  144SAPE    HB15759   4.575   4.944  10.859 -0.8405  0.9677 -0.0096
  144SAPE    C215760   4.534   4.904  10.658  0.1258 -0.4957  0.4471
  144SAPE    HS15761   4.463   4.836  10.608  1.3310  0.7629 -3.1296
  144SAPE   O2115762   4.665   4.855  10.614  0.3530 -0.0387  0.3496
  144SAPE   C2115763   4.771   4.924  10.647  0.3624 -0.7986 -0.2230
  144SAPE   O2215764   4.778   5.017  10.729  0.6720  0.2205  0.1069
  144SAPE   C2215765   4.889   4.880  10.562 -0.8982  0.4273  0.6169
  144SAPE   H2R15766   4.980   4.921  10.610 -0.4789 -0.6446  0.7325
  144SAPE   H2S15767   4.883   4.770  10.549 -0.5518  0.2809  1.6737
  144SAPE    C315768   4.491   5.053  10.630  0.3867  0.6372 -0.8590
  144SAPE    HX15769   4.568   5.127  10.662  1.5429 -1.0260  0.2835
  144SAPE    HY15770   4.398   5.079  10.685  1.5639  2.6453  0.2711
  144SAPE   O3115771   4.476   5.074  10.487  0.0472 -0.0736 -0.5409
  144SAPE   C3115772   4.361   5.035  10.432  0.0450  0.1059  0.4365
  144SAPE   O3215773   4.278   4.958  10.477  0.0686  0.0137 -0.3853
  144SAPE   C3215774   4.338   5.115  10.302 -0.2566  0.7160  0.0786
  144SAPE   H2X15775   4.428   5.097  10.239 -1.0932  2.2594 -1.6134
  144SAPE   H2Y15776   4.332   5.225  10.322 -0.0975  0.6706  0.3714
  144SAPE   C2315777   4.887   4.966  10.435 -0.3176 -0.5169  0.0285
  144SAPE   H3R15778   4.985   4.950  10.385 -0.6547  1.7978 -1.4550
  144SAPE   H3S15779   4.896   5.074  10.459  4.0085 -0.8781  0.4906
  144SAPE   C2415780   4.786   4.934  10.321  0.3247 -0.0884  0.1337
  144SAPE   H4R15781   4.695   4.888  10.366  0.3399  0.3955  0.6654
  144SAPE   H4S15782   4.829   4.858  10.252 -0.6017  0.0896 -0.6394
  144SAPE   C2515783   4.744   5.065  10.254 -0.2999 -0.3463 -0.2628
  144SAPE   H5R15784   4.687   5.134  10.318 -0.1239 -0.8135  0.4075
  144SAPE   C2615785   4.770   5.100  10.121  0.6757  0.0192 -0.3046
  144SAPE   H6R15786   4.744   5.203  10.092 -1.1719  0.4763  2.7339
  144SAPE   C2715787   4.845   5.015  10.022  0.7541  0.1515  0.2095
  144SAPE   H7R15788   4.883   4.924  10.072  0.8046  0.0189 -0.0741
  144SAPE   H7S15789   4.935   5.071   9.989  0.4538 -0.1670 -1.1776
  144SAPE   C2815790   4.765   4.966   9.902 -0.2437  0.7473 -0.0737
  144SAPE   H8R15791   4.672   5.022   9.881  0.6908  1.3473 -2.8171
  144SAPE   C2915792   4.786   4.851   9.831 -0.1959 -0.4488 -0.0212
  144SAPE   H9R15793   4.728   4.832   9.740  1.3542 -0.9335 -0.9193
  144SAPE  C21015794   4.914   4.776   9.857  0.3429  0.1491  0.3583
  144SAPE  H10R15795   4.888   4.724   9.952  1.3947 -0.2747  0.4201
  144SAPE  H10S15796   5.004   4.836   9.885  0.8522 -0.5485  0.2339
  144SAPE  C21115797   4.943   4.671   9.754 -0.4628 -0.3200 -0.1204
  144SAPE  H11R15798   4.931   4.566   9.786 -0.4145 -0.3514 -0.2039
  144SAPE  C21215799   4.984   4.693   9.625 -0.2808  0.0388  0.3195
  144SAPE  H12R15800   5.005   4.603   9.566 -0.1021 -0.6568  1.4169
  144SAPE  C21315801   5.005   4.823   9.563  0.1407  0.3602  0.2967
  144SAPE  H13R15802   4.974   4.907   9.629 -1.1256 -0.7697  1.1530
  144SAPE  H13S15803   4.929   4.831   9.483 -1.8106 -1.0251  1.9725
  144SAPE  C21415804   5.143   4.837   9.504  0.1261 -0.5074 -0.1245
  144SAPE  H14R15805   5.222   4.810   9.575  0.0093 -3.5617 -1.0986
  144SAPE  C21515806   5.180   4.878   9.379  0.2671  0.4934 -0.4997
  144SAPE  H15R15807   5.286   4.867   9.351 -0.3324  0.1763 -2.6991
  144SAPE  C21615808   5.082   4.915   9.258 -0.4230 -0.8597 -0.1252
  144SAPE  H16R15809   5.077   5.021   9.229  1.2598 -1.6019 -3.3227
  144SAPE  H16S15810   4.976   4.893   9.284 -0.9466  0.0056 -1.5205
  144SAPE  C21715811   5.115   4.835   9.124 -0.2745 -0.0561 -0.1910
  144SAPE  H17R15812   5.037   4.869   9.052  0.1311  0.1842 -0.5275
  144SAPE  H17S15813   5.079   4.732   9.142  2.2138 -0.6531  1.6350
  144SAPE  C21815814   5.255   4.839   9.064 -0.1537  0.4584 -0.5798
  144SAPE  H18R15815   5.339   4.818   9.135 -0.0316  0.8334 -0.6082
  144SAPE  H18S15816   5.268   4.948   9.043 -0.8338  0.9304  1.3194
  144SAPE  C21915817   5.278   4.742   8.946  0.0775 -0.2679 -0.1204
  144SAPE  H19R15818   5.283   4.802   8.852  0.3530  0.4619  0.3518
  144SAPE  H19S15819   5.197   4.667   8.949 -1.1377  0.9326 -1.5980
  144SAPE  C22015820   5.411   4.664   8.950 -0.3282 -0.5221 -0.1300
  144SAPE  H20R15821   5.422   4.582   9.025 -1.0324 -0.4677  0.0340
  144SAPE  H20S15822   5.491   4.740   8.962 -0.1671 -0.4516 -1.6042
  144SAPE  H20T15823   5.434   4.616   8.852 -0.6616  0.0251 -0.4757
  144SAPE   C3315824   4.212   5.084  10.214  0.5313  0.0686  0.6191
  144SAPE   H3X15825   4.125   5.126  10.269 -0.7853  1.3712 -2.3622
  144SAPE   H3Y15826   4.199   4.975  10.197 -1.2133  0.0443  1.9176
  144SAPE   C3415827   4.232   5.152  10.081  0.2227 -0.2089  0.5621
  144SAPE   H4X15828   4.335   5.132  10.044  0.5136 -1.9223  2.1890
  144SAPE   H4Y15829   4.220   5.261  10.100  0.7875  0.2979 -1.7718
  144SAPE   C3515830   4.125   5.119   9.974  0.1227 -0.2064 -0.4099
  144SAPE   H5X15831   4.022   5.145  10.008  0.0622  1.1628 -1.5699
  144SAPE   H5Y15832   4.117   5.008   9.977 -1.5303 -0.1160 -0.8431
  144SAPE   C3615833   4.163   5.158   9.835 -0.4148  0.1353  0.1848
  144SAPE   H6X15834   4.085   5.114   9.768 -0.6356 -0.3292  0.7473
  144SAPE   H6Y15835   4.256   5.101   9.813 -1.3404 -1.5628  0.5698
  144SAPE   C3715836   4.179   5.306   9.803  0.5661 -0.8255 -0.4840
  144SAPE   H7X15837   4.280   5.336   9.841 -1.6729  4.5321  1.8386
  144SAPE   H7Y15838   4.109   5.363   9.869  1.0273  0.0098 -0.7019
  144SAPE   C3815839   4.146   5.340   9.659 -0.2974  0.5045 -0.2256
  144SAPE   H8X15840   4.129   5.450   9.657  0.1436  0.5737 -0.0327
  144SAPE   H8Y15841   4.050   5.286   9.639  0.1709 -1.0649  1.6227
  144SAPE   C3915842   4.264   5.284   9.574  0.3873 -0.0154  0.1964
  144SAPE   H9X15843   4.283   5.177   9.594 -1.8032 -0.3889  0.4400
  144SAPE   H9Y15844   4.353   5.342   9.606  1.1383  1.1021 -3.6217
  144SAPE  C31015845   4.253   5.310   9.429  0.3855  0.0388  0.7080
  144SAPE  H10X15846   4.243   5.417   9.403  1.3345 -0.0267  0.0064
  144SAPE  H10Y15847   4.159   5.259   9.400 -0.3031  2.4856 -1.6086
  144SAPE  C31115848   4.370   5.252   9.344 -0.2848  0.6162  0.0699
  144SAPE  H11X15849   4.380   5.141   9.342 -1.1005  0.5214  0.8911
  144SAPE  H11Y15850   4.456   5.301   9.396  1.0707 -1.0404 -0.5552
  144SAPE  C31215851   4.369   5.307   9.190 -0.6658 -0.5076 -0.3401
  144SAPE  H12X15852   4.389   5.416   9.201 -2.6777 -0.0368 -1.2451
  144SAPE  H12Y15853   4.270   5.289   9.144 -0.1436  2.0451 -2.5558
  144SAPE  C31315854   4.467   5.233   9.100 -0.4189 -0.0070  0.0275
  144SAPE  H13X15855   4.446   5.124   9.101  0.5487 -0.1939  1.1420
  144SAPE  H13Y15856   4.570   5.246   9.140 -0.9577 -0.0097  1.4647
  144SAPE  C31415857   4.467   5.294   8.959 -0.0200  0.3586 -0.0663
  144SAPE  H14X15858   4.374   5.276   8.903 -2.1397 -1.0054  3.6817
  144SAPE  H14Y15859   4.560   5.251   8.916  1.0340  2.2218  0.2983
  144SAPE  C31515860   4.472   5.451   8.954  0.0871 -0.9525 -0.1274
  144SAPE  H15X15861   4.547   5.482   9.029 -1.1154 -2.5556  1.7872
  144SAPE  H15Y15862   4.367   5.483   8.975  0.2237  0.8207 -1.9321
  144SAPE  C31615863   4.521   5.511   8.823  0.0245  0.0662 -0.1991
  144SAPE  H16X15864   4.629   5.483   8.824 -0.4844 -2.0197  2.2454
  144SAPE  H16Y15865   4.506   5.621   8.826 -2.7160 -0.1997 -1.9747
  144SAPE  C31715866   4.449   5.455   8.695  0.3046  0.0114 -0.6494
  144SAPE  H17X15867   4.342   5.481   8.707 -0.3136 -2.5038 -0.3154
  144SAPE  H17Y15868   4.449   5.344   8.682  0.0152 -0.0825  0.1475
  144SAPE  C31815869   4.499   5.523   8.569  0.7134 -0.4122  0.0434
  144SAPE  H18X15870   4.608   5.500   8.567  0.0917 -3.5108 -0.6971
  144SAPE  H18Y15871   4.472   5.630   8.565  5.0777  0.7365 -2.0417
  144SAPE  H18Z15872   4.452   5.463   8.489 -2.7099  0.5127  1.2797
  145SAPE     N15873   1.437   0.251  11.444 -0.4722  0.1747 -0.7183
  145SAPE   HN115874   1.457   0.318  11.521 -2.9738 -1.5568  1.4909
  145SAPE   HN215875   1.511   0.276  11.374 -0.0116  2.3765  0.4921
  145SAPE   HN315876   1.339   0.262  11.410 -1.3690 -0.3157  1.6589
  145SAPE   C1215877   1.457   0.108  11.486  0.3022 -0.4920  0.6510
  145SAPE  H12A15878   1.434   0.096  11.594  0.3870  0.2257  0.7488
  145SAPE  H12B15879   1.557   0.073  11.451 -0.2243 -1.4157  0.0372
  145SAPE   C1115880   1.372   0.018  11.391 -0.0840  0.3821 -0.1419
  145SAPE  H11A15881   1.399  -0.089  11.402  1.1887  0.7994  1.0311
  145SAPE  H11B15882   1.393   0.056  11.289 -1.0774  3.6092  0.7900
  145SAPE     P15883   1.137   0.118  11.322  0.5118  0.0212 -0.2085
  145SAPE   O1315884   0.999   0.124  11.374 -0.7177  0.0790 -0.0278
  145SAPE   O1415885   1.207   0.245  11.303 -0.1842  0.3311  0.3634
  145SAPE   O1215886   1.228   0.022  11.418  0.3080  0.7056  0.7488
  145SAPE   O1115887   1.150   0.042  11.180 -0.5391  0.0950  0.0126
  145SAPE    C115888   1.116  -0.094  11.175  0.2066 -0.2825  0.1392
  145SAPE    HA15889   1.165  -0.151  11.257 -0.7537  1.7138  2.1790
  145SAPE    HB15890   1.006  -0.105  11.175  0.2537 -0.9557 -1.7989
  145SAPE    C215891   1.180  -0.164  11.054  0.2303 -0.1889  0.7430
  145SAPE    HS15892   1.128  -0.133  10.961  0.8593  0.7873  0.7087
  145SAPE   O2115893   1.179  -0.304  11.065 -0.3116  0.2531  0.2107
  145SAPE   C2115894   1.057  -0.355  11.069  0.7393 -0.0950 -0.5896
  145SAPE   O2215895   0.955  -0.295  11.046 -0.4033  0.4501  0.0542
  145SAPE   C2215896   1.068  -0.495  11.101  0.7876  0.1762 -0.7797
  145SAPE   H2R15897   1.171  -0.536  11.088  1.2575  0.5738  1.4154
  145SAPE   H2S15898   1.032  -0.492  11.206  0.1351 -0.6623 -0.9798
  145SAPE    C315899   1.321  -0.129  11.014 -0.7071 -0.2811 -0.2475
  145SAPE    HX15900   1.380  -0.135  11.108 -0.5319  0.0058 -0.3374
  145SAPE    HY15901   1.319  -0.022  10.982 -0.1847 -0.7826 -2.0139
  145SAPE   O3115902   1.378  -0.212  10.903  0.0483  0.2693 -0.1717
  145SAPE   C3115903   1.462  -0.311  10.941 -1.0359 -0.1145 -0.3807
  145SAPE   O3215904   1.503  -0.326  11.055  0.2050 -0.1659 -0.0272
  145SAPE   C3215905   1.501  -0.386  10.818 -0.0995 -0.1664 -0.0705
  145SAPE   H2X15906   1.409  -0.436  10.781  0.7646 -2.0638  0.2604
  145SAPE   H2Y15907   1.563  -0.475  10.846 -1.2530 -0.2182  2.4064
  145SAPE   C2315908   0.972  -0.577  11.012 -0.5210 -1.0007 -0.1376
  145SAPE   H3R15909   0.872  -0.528  11.019  0.3319  0.8647 -0.5970
  145SAPE   H3S15910   0.939  -0.676  11.051 -1.7241 -0.7545 -0.5111
  145SAPE   C2415911   1.013  -0.582  10.861  0.2086 -0.1419  0.5800
  145SAPE   H4R15912   1.090  -0.661  10.851 -0.4915 -0.6830 -0.6674
  145SAPE   H4S15913   1.067  -0.489  10.835  0.7102 -0.1812  1.4779
  145SAPE   C2515914   0.895  -0.609  10.764 -0.5165 -0.0212 -0.0828
  145SAPE   H5R15915   0.823  -0.676  10.813 -0.3350 -1.2310 -1.4241
  145SAPE   C2615916   0.887  -0.555  10.638 -0.5839  0.9160  0.3755
  145SAPE   H6R15917   0.802  -0.585  10.574 -1.4251 -1.5906  2.6045
  145SAPE   C2715918   0.994  -0.468  10.574  0.1965  0.6645  0.5222
  145SAPE   H7R15919   1.051  -0.404  10.644 -0.2239  1.2375  0.3490
  145SAPE   H7S15920   0.936  -0.389  10.523 -0.1649 -1.3364 -2.2997
  145SAPE   C2815921   1.078  -0.553  10.482  0.5024 -0.3286  0.2494
  145SAPE   H8R15922   1.146  -0.625  10.530  2.6106  1.4927  0.0535
  145SAPE   C2915923   1.101  -0.531  10.349 -0.1937 -0.0063  0.1270
  145SAPE   H9R15924   1.142  -0.616  10.293 -1.5349  0.0321 -0.9334
  145SAPE  C21015925   1.037  -0.429  10.263 -0.4985  0.2487 -0.1661
  145SAPE  H10R15926   1.114  -0.351  10.243  0.5452 -1.0870 -1.4623
  145SAPE  H10S15927   0.955  -0.377  10.317 -0.7089 -2.1934  1.9519
  145SAPE  C21115928   0.980  -0.483  10.128  0.4763 -0.4629 -0.6071
  145SAPE  H11R15929   0.923  -0.577  10.133 -0.5119 -0.0053 -2.7324
  145SAPE  C21215930   1.015  -0.426  10.015 -0.3836 -0.4845  0.0942
  145SAPE  H12R15931   0.976  -0.460   9.919 -0.3301 -0.6139  0.1186
  145SAPE  C21315932   1.101  -0.300   9.995 -0.0971 -0.3473  0.1636
  145SAPE  H13R15933   1.202  -0.344  10.008 -0.9491 -1.9396  1.5786
  145SAPE  H13S15934   1.090  -0.221  10.072  0.9312 -0.4330  0.4023
  145SAPE  C21415935   1.089  -0.248   9.853 -0.3528 -0.4038  0.2690
  145SAPE  H14R15936   0.983  -0.260   9.825 -0.7466  1.4330  0.9390
  145SAPE  C21515937   1.183  -0.196   9.769 -0.2197  0.2803 -0.6581
  145SAPE  H15R15938   1.162  -0.173   9.664 -3.1577  1.0497  0.0487
  145SAPE  C21615939   1.332  -0.189   9.795  0.4885  0.0135 -0.2312
  145SAPE  H16R15940   1.377  -0.263   9.726  1.8212  1.7149 -1.2123
  145SAPE  H16S15941   1.356  -0.229   9.896  1.6825 -2.6106 -1.5304
  145SAPE  C21715942   1.393  -0.049   9.764  0.1087 -0.3029 -0.3108
  145SAPE  H17R15943   1.375  -0.029   9.656  1.5415 -1.5454 -0.7959
  145SAPE  H17S15944   1.504  -0.055   9.770  0.0961  0.1009  0.4860
  145SAPE  C21815945   1.356   0.066   9.851 -0.0871 -0.3334 -0.1728
  145SAPE  H18R15946   1.246   0.068   9.861 -0.0828  0.2295 -0.2234
  145SAPE  H18S15947   1.390   0.159   9.800 -0.4139  0.0290  0.2716
  145SAPE  C21915948   1.424   0.055   9.987  0.0460 -0.0219  0.2492
  145SAPE  H19R15949   1.534   0.060   9.974 -0.1320  0.7330 -1.1383
  145SAPE  H19S15950   1.395  -0.045  10.026 -1.2588 -0.1079 -0.8800
  145SAPE  C22015951   1.374   0.175  10.074 -0.3870  0.6727 -0.0965
  145SAPE  H20R15952   1.265   0.169  10.094 -0.6539  0.4546 -1.5380
  145SAPE  H20S15953   1.394   0.274  10.029  2.3227  0.7004  1.1026
  145SAPE  H20T15954   1.427   0.161  10.171 -1.0510  0.9823  0.3141
  145SAPE   C3315955   1.572  -0.299  10.711  0.3779  0.3090  1.2069
  145SAPE   H3X15956   1.660  -0.252  10.760  1.2239 -0.2399  0.2178
  145SAPE   H3Y15957   1.494  -0.228  10.675 -0.4375  0.0633  2.4501
  145SAPE   C3415958   1.620  -0.391  10.591  0.7121 -0.1156  0.3347
  145SAPE   H4X15959   1.541  -0.466  10.568  0.7134 -0.7443  2.2930
  145SAPE   H4Y15960   1.709  -0.442  10.633  0.3965  0.0618  1.2186
  145SAPE   C3515961   1.667  -0.322  10.464 -0.0304 -0.0873  0.7247
  145SAPE   H5X15962   1.722  -0.396  10.401  0.9532  0.7391  0.6128
  145SAPE   H5Y15963   1.727  -0.230  10.480  1.8620 -1.1483 -0.0520
  145SAPE   C3615964   1.534  -0.277  10.388  0.2168 -0.4792 -0.1038
  145SAPE   H6X15965   1.555  -0.197  10.314  0.3253  0.5894  1.0632
  145SAPE   H6Y15966   1.463  -0.233  10.462 -2.3718 -0.9743 -2.2305
  145SAPE   C3715967   1.448  -0.390  10.323 -0.9052  0.0036 -0.0510
  145SAPE   H7X15968   1.355  -0.332  10.309 -2.6852 -2.5257  0.8545
  145SAPE   H7Y15969   1.429  -0.476  10.391  1.2557 -0.9305 -0.5721
  145SAPE   C3815970   1.520  -0.439  10.192 -0.1162  0.5961  0.5394
  145SAPE   H8X15971   1.615  -0.489  10.217 -1.3070 -0.9088  2.1599
  145SAPE   H8Y15972   1.549  -0.355  10.125 -1.3534 -1.5230 -2.7703
  145SAPE   C3915973   1.426  -0.531  10.112 -0.7995  0.5990 -0.1092
  145SAPE   H9X15974   1.347  -0.465  10.071  0.0274  0.7579 -1.4791
  145SAPE   H9Y15975   1.371  -0.592  10.186 -0.6431 -1.1239 -1.3870
  145SAPE  C31015976   1.488  -0.618  10.000  0.2691  0.0398 -0.6983
  145SAPE  H10X15977   1.523  -0.705  10.059  0.8721  0.2085 -0.8007
  145SAPE  H10Y15978   1.571  -0.567   9.947  1.0632  0.8690  1.2955
  145SAPE  C31115979   1.386  -0.652   9.892  0.0676 -0.1078 -0.1732
  145SAPE  H11X15980   1.338  -0.555   9.867 -1.3845 -1.0502 -1.1930
  145SAPE  H11Y15981   1.311  -0.725   9.929 -0.0158  0.0491 -0.0326
  145SAPE  C31215982   1.461  -0.702   9.761  0.3282 -0.3536 -0.2260
  145SAPE  H12X15983   1.516  -0.796   9.779  0.9833 -0.2117 -1.4417
  145SAPE  H12Y15984   1.536  -0.624   9.736 -0.4582  0.2903 -0.6148
  145SAPE  C31315985   1.352  -0.716   9.645  1.0115  0.0005 -0.0560
  145SAPE  H13X15986   1.278  -0.634   9.659  0.7929 -0.3363  0.7910
  145SAPE  H13Y15987   1.290  -0.807   9.654  0.7495  0.1358 -0.4680
  145SAPE  C31415988   1.406  -0.689   9.506 -0.5304 -0.3207 -0.3958
  145SAPE  H14X15989   1.446  -0.586   9.509  2.0264 -1.2960  1.0266
  145SAPE  H14Y15990   1.333  -0.693   9.423 -0.8958 -2.2716  0.0013
  145SAPE  C31515991   1.516  -0.792   9.472 -0.2988 -0.6613  0.3682
  145SAPE  H15X15992   1.460  -0.883   9.504 -0.3877  0.0643  2.3261
  145SAPE  H15Y15993   1.610  -0.779   9.529 -0.2100 -0.6958  0.2309
  145SAPE  C31615994   1.555  -0.773   9.327  0.3054  0.3042 -0.3352
  145SAPE  H16X15995   1.466  -0.788   9.261 -0.9556 -2.7605  1.9268
  145SAPE  H16Y15996   1.628  -0.856   9.314  0.8108  0.8878 -1.2726
  145SAPE  C31715997   1.630  -0.638   9.290 -0.2178  0.1218  0.1933
  145SAPE  H17X15998   1.712  -0.619   9.363  0.6455  3.1733 -1.4926
  145SAPE  H17Y15999   1.554  -0.557   9.301 -1.5682 -1.0510 -0.4195
  145SAPE  C31816000   1.693  -0.627   9.149 -0.0297  0.2640 -0.1806
  145SAPE  H18X16001   1.616  -0.676   9.086 -0.7059  1.4388 -0.2828
  145SAPE  H18Y16002   1.779  -0.695   9.130  0.6571  0.9007  0.5952
  145SAPE  H18Z16003   1.721  -0.525   9.116  0.9148  0.7185  1.9219
  146SAPE     N16004   5.256   5.088  10.772  0.4831 -0.0992 -0.1994
  146SAPE   HN116005   5.343   5.083  10.829 -0.0995  0.6364  0.7643
  146SAPE   HN216006   5.211   4.995  10.784 -1.8089  1.3971  3.5602
  146SAPE   HN316007   5.285   5.102  10.673  3.8249 -0.2956  0.6678
  146SAPE   C1216008   5.154   5.188  10.821  0.2807  0.4206 -0.4185
  146SAPE  H12A16009   5.137   5.172  10.929 -0.2414  2.4842 -0.1723
  146SAPE  H12B16010   5.063   5.154  10.766  1.7263 -2.2017 -1.2917
  146SAPE   C1116011   5.202   5.335  10.809 -0.8858  0.0888  0.5003
  146SAPE  H11A16012   5.111   5.398  10.816 -0.2120  1.1600 -0.3333
  146SAPE  H11B16013   5.250   5.355  10.711 -0.9197  1.9888  0.8489
  146SAPE     P16014   5.344   5.500  10.942 -0.2910  0.0023 -0.2651
  146SAPE   O1316015   5.223   5.568  10.990  0.5126  0.3891  0.2384
  146SAPE   O1416016   5.469   5.499  11.020  0.3060  0.3755 -0.0415
  146SAPE   O1216017   5.301   5.355  10.919  0.6091  1.0287 -0.4686
  146SAPE   O1116018   5.377   5.562  10.798 -0.3975  0.7696 -0.5110
  146SAPE    C116019   5.417   5.697  10.779 -0.1005  0.3515  0.4895
  146SAPE    HA16020   5.351   5.731  10.695 -1.6892 -2.0498  0.7278
  146SAPE    HB16021   5.408   5.764  10.867 -1.1201 -0.5940  1.1150
  146SAPE    C216022   5.568   5.710  10.744 -0.3548  1.2627 -0.8925
  146SAPE    HS16023   5.629   5.725  10.835  1.0147 -0.1271 -1.5390
  146SAPE   O2116024   5.583   5.823  10.648 -0.1530  0.0915 -0.2331
  146SAPE   C2116025   5.711   5.857  10.639 -0.1389  0.5787  0.4159
  146SAPE   O2216026   5.805   5.817  10.707  0.0785  0.0360 -0.3801
  146SAPE   C2216027   5.722   5.975  10.538  0.2107  0.8579 -0.4349
  146SAPE   H2R16028   5.640   5.981  10.464 -0.7921 -2.3909  0.3394
  146SAPE   H2S16029   5.720   6.067  10.600 -0.7041  0.6980 -0.2232
  146SAPE    C316030   5.614   5.574  10.678  0.3997 -0.1453 -0.6225
  146SAPE    HX16031   5.536   5.551  10.603 -0.6995  1.1389  0.1138
  146SAPE    HY16032   5.608   5.497  10.757  2.2463  2.3319  2.0524
  146SAPE   O3116033   5.748   5.568  10.618 -0.5679  0.6949  0.1601
  146SAPE   C3116034   5.761   5.441  10.564 -0.5759 -0.2513 -0.7755
  146SAPE   O3216035   5.674   5.357  10.558 -0.1762  0.4772 -0.3949
  146SAPE   C3216036   5.897   5.421  10.513  0.1701  0.1239  0.4301
  146SAPE   H2X16037   5.957   5.378  10.596 -2.4068 -0.0275  2.2916
  146SAPE   H2Y16038   5.945   5.515  10.479 -0.7185  0.2167 -0.6017
  146SAPE   C2316039   5.854   5.979  10.465 -0.3259 -0.1357 -0.2269
  146SAPE   H3R16040   5.927   5.960  10.547 -1.4678  0.7859  1.0369
  146SAPE   H3S16041   5.873   6.080  10.425 -1.1789  0.0186 -0.2528
  146SAPE   C2416042   5.879   5.858  10.365 -0.0454 -0.1161  0.2018
  146SAPE   H4R16043   5.846   5.758  10.399 -0.7575  0.3922  1.0007
  146SAPE   H4S16044   5.989   5.845  10.365  0.1290  1.2548 -0.3716
  146SAPE   C2516045   5.822   5.890  10.230 -0.4633 -0.0409  0.2532
  146SAPE   H5R16046   5.716   5.861  10.230 -0.3824 -0.3448  0.5808
  146SAPE   C2616047   5.886   5.930  10.114 -1.1427  0.2092  0.3893
  146SAPE   H6R16048   5.824   5.945  10.025  0.7988  0.2737 -0.9713
  146SAPE   C2716049   6.033   5.952  10.071  0.2738  0.0031 -0.6974
  146SAPE   H7R16050   6.074   6.039  10.127 -0.8849  0.9002 -1.2158
  146SAPE   H7S16051   6.034   5.968   9.961 -0.1811  1.7576 -0.4606
  146SAPE   C2816052   6.125   5.837  10.099 -0.5608  0.6024  0.6142
  146SAPE   H8R16053   6.185   5.839  10.191 -1.3342 -0.6526  1.1667
  146SAPE   C2916054   6.157   5.748  10.006  0.1770  0.6955 -0.1218
  146SAPE   H9R16055   6.217   5.658  10.030  0.3095  1.0026  0.7072
  146SAPE  C21016056   6.095   5.745   9.875  0.9510  0.6246  0.1887
  146SAPE  H10R16057   5.992   5.783   9.861  0.4539 -1.2441 -1.5924
  146SAPE  H10S16058   6.072   5.640   9.847  1.3826 -0.1438  2.6203
  146SAPE  C21116059   6.188   5.801   9.765  0.2274 -0.7377  0.0651
  146SAPE  H11R16060   6.177   5.906   9.733 -2.1262 -1.1238 -0.5095
  146SAPE  C21216061   6.281   5.718   9.700  0.9044 -0.0850  0.0054
  146SAPE  H12R16062   6.345   5.763   9.622  1.0234 -0.4899 -0.1328
  146SAPE  C21316063   6.303   5.569   9.727 -0.1556 -0.8809  0.1664
  146SAPE  H13R16064   6.296   5.564   9.838  0.6699  0.3828  0.2828
  146SAPE  H13S16065   6.408   5.541   9.706 -0.0902 -1.5955  1.3898
  146SAPE  C21416066   6.207   5.474   9.652  0.9874  0.1092 -0.1815
  146SAPE  H14R16067   6.107   5.516   9.632  0.4219 -2.3413 -2.8494
  146SAPE  C21516068   6.234   5.355   9.601 -0.3361 -0.7112 -0.6152
  146SAPE  H15R16069   6.149   5.294   9.569  0.0093 -0.6615 -1.6490
  146SAPE  C21616070   6.364   5.297   9.624 -0.2685  0.2370  0.1388
  146SAPE  H16R16071   6.354   5.192   9.658  0.5876  0.1234  0.0497
  146SAPE  H16S16072   6.427   5.350   9.698 -0.1520  2.6134 -1.5909
  146SAPE  C21716073   6.462   5.282   9.502  0.8804  0.1670  0.7591
  146SAPE  H17R16074   6.565   5.312   9.532  0.4634  0.4887  1.8885
  146SAPE  H17S16075   6.444   5.356   9.421  3.0595 -2.0434 -1.8642
  146SAPE  C21816076   6.466   5.143   9.434 -0.5876  0.3779  0.3676
  146SAPE  H18R16077   6.481   5.162   9.325 -0.2711  1.7729  0.6457
  146SAPE  H18S16078   6.365   5.103   9.457 -1.5163  1.6753 -1.2946
  146SAPE  C21916079   6.581   5.057   9.486 -0.0799  0.2572  0.2518
  146SAPE  H19R16080   6.554   5.031   9.590 -1.3234  0.9358  0.1100
  146SAPE  H19S16081   6.679   5.109   9.478 -0.3262  0.5842 -0.7719
  146SAPE  C22016082   6.610   4.927   9.410  0.0523 -0.2921  0.3594
  146SAPE  H20R16083   6.515   4.875   9.385 -0.2039 -1.2347  3.1195
  146SAPE  H20S16084   6.659   4.848   9.471 -0.0324 -1.4427 -1.0270
  146SAPE  H20T16085   6.668   4.951   9.318 -1.2659 -1.1633 -0.7076
  146SAPE   C3316086   5.903   5.324  10.391 -0.0215  0.0026  0.0016
  146SAPE   H3X16087   5.830   5.241  10.405  1.3229 -0.8878  2.0679
  146SAPE   H3Y16088   5.995   5.263  10.381 -0.0760 -0.0459 -0.2217
  146SAPE   C3416089   5.867   5.399  10.263  0.3534 -0.0748  0.4511
  146SAPE   H4X16090   5.940   5.480  10.238 -1.5712  1.1025 -1.4518
  146SAPE   H4Y16091   5.766   5.442  10.273 -0.6981 -2.3252 -0.1733
  146SAPE   C3516092   5.869   5.320  10.132  0.0272  0.0467 -0.1754
  146SAPE   H5X16093   5.802   5.232  10.141  0.4587 -0.1367  1.5003
  146SAPE   H5Y16094   5.968   5.273  10.112  0.6263  1.2341 -0.0285
  146SAPE   C3616095   5.837   5.412  10.022 -0.0582 -0.2975  0.3576
  146SAPE   H6X16096   5.917   5.488  10.012 -0.1928 -0.1004  0.7699
  146SAPE   H6Y16097   5.738   5.463  10.031  0.3881  0.8012 -0.8965
  146SAPE   C3716098   5.837   5.345   9.880 -0.1945 -0.5829  0.8233
  146SAPE   H7X16099   5.750   5.276   9.877 -2.5253  2.2281  0.7582
  146SAPE   H7Y16100   5.933   5.290   9.877 -1.3859 -2.6084 -1.8261
  146SAPE   C3816101   5.820   5.438   9.761 -0.1475  0.3454  0.2916
  146SAPE   H8X16102   5.896   5.520   9.767  1.1702 -0.6802 -1.7464
  146SAPE   H8Y16103   5.723   5.491   9.756 -1.5776 -2.4163 -2.1285
  146SAPE   C3916104   5.835   5.360   9.631 -0.0940  1.3127 -0.1554
  146SAPE   H9X16105   5.759   5.279   9.626  0.8978  0.4391 -1.6900
  146SAPE   H9Y16106   5.935   5.314   9.643  0.2131  1.7608 -0.9153
  146SAPE  C31016107   5.840   5.449   9.515 -0.0760 -0.1690 -0.4151
  146SAPE  H10X16108   5.912   5.533   9.528 -0.4253  0.0493  0.1056
  146SAPE  H10Y16109   5.742   5.498   9.502 -0.0676  0.0753  0.4180
  146SAPE  C31116110   5.866   5.378   9.384  0.1740 -0.3388  0.8806
  146SAPE  H11X16111   5.772   5.326   9.355 -0.7326  1.8822 -0.2874
  146SAPE  H11Y16112   5.936   5.292   9.393  0.4475  0.0575  2.5958
  146SAPE  C31216113   5.922   5.469   9.275  0.3213  0.5272  0.1508
  146SAPE  H12X16114   6.028   5.490   9.302  0.0669  1.1547  0.6975
  146SAPE  H12Y16115   5.873   5.569   9.272 -4.2867 -1.6226  0.3308
  146SAPE  C31316116   5.910   5.406   9.137  0.0528 -0.0426 -0.1666
  146SAPE  H13X16117   5.891   5.489   9.066  0.8398  2.1313  2.1134
  146SAPE  H13Y16118   5.815   5.349   9.127 -0.1919  0.3026  0.2238
  146SAPE  C31416119   6.036   5.341   9.083 -0.0035 -0.2406  0.7694
  146SAPE  H14X16120   6.057   5.255   9.150 -2.5411 -1.4546  0.0780
  146SAPE  H14Y16121   6.118   5.415   9.076 -0.5993  0.2017 -3.0695
  146SAPE  C31516122   6.017   5.295   8.936 -0.2174  0.2059 -0.2004
  146SAPE  H15X16123   5.998   5.385   8.873 -3.4736 -0.0077  0.3446
  146SAPE  H15Y16124   5.923   5.236   8.930  0.5547 -1.0405 -0.1659
  146SAPE  C31616125   6.129   5.214   8.878  0.4029  0.6781 -0.5182
  146SAPE  H16X16126   6.119   5.223   8.768  1.1994 -0.4712 -0.6950
  146SAPE  H16Y16127   6.122   5.107   8.908  3.0316  0.7436  0.4506
  146SAPE  C31716128   6.274   5.259   8.915  0.1244  0.6708 -0.1556
  146SAPE  H17X16129   6.287   5.271   9.025  1.3349 -0.7220 -0.1344
  146SAPE  H17Y16130   6.284   5.361   8.871 -1.6064  0.2323 -1.6369
  146SAPE  C31816131   6.381   5.166   8.858  0.0731 -0.2434  0.5001
  146SAPE  H18X16132   6.474   5.196   8.911  1.1937  0.8570 -2.0039
  146SAPE  H18Y16133   6.391   5.179   8.749  1.8640 -2.1873  0.4006
  146SAPE  H18Z16134   6.366   5.057   8.875  0.3273 -0.1902  1.1096
  147SAPE     N16135   3.248   4.708   6.120  0.3222 -0.4562 -0.5396
  147SAPE   HN116136   3.220   4.667   6.028 -0.9603 -1.1608  0.1456
  147SAPE   HN216137   3.194   4.795   6.139  1.6293  0.3434 -0.4651
  147SAPE   HN316138   3.343   4.747   6.104  0.1358  0.0459 -0.4070
  147SAPE   C1216139   3.224   4.586   6.211 -0.6270 -0.1669  0.4080
  147SAPE  H12A16140   3.114   4.576   6.219 -0.8713  1.0222 -1.1682
  147SAPE  H12B16141   3.272   4.606   6.309  2.9540 -2.1697 -0.8298
  147SAPE   C1116142   3.283   4.459   6.154 -0.6132  0.5111 -0.0695
  147SAPE  H11A16143   3.258   4.454   6.046 -3.2812  0.0963  0.5299
  147SAPE  H11B16144   3.239   4.372   6.207 -3.0409  1.4866 -0.4210
  147SAPE     P16145   3.511   4.379   6.261 -0.5805 -0.0520  0.5193
  147SAPE   O1316146   3.552   4.251   6.187  0.0314 -0.3326  0.1776
  147SAPE   O1416147   3.621   4.458   6.316  0.0255 -0.1983 -0.0363
  147SAPE   O1216148   3.420   4.470   6.170 -0.2049 -0.2792  0.4402
  147SAPE   O1116149   3.407   4.344   6.377 -0.0983  0.0408 -0.2417
  147SAPE    C116150   3.363   4.435   6.473 -0.1958 -0.1187  0.0060
  147SAPE    HA16151   3.405   4.535   6.452 -0.9937  0.0135 -0.9970
  147SAPE    HB16152   3.252   4.438   6.464 -0.1834 -1.0663 -0.5423
  147SAPE    C216153   3.402   4.393   6.617  0.1481  1.0161 -0.1481
  147SAPE    HS16154   3.512   4.378   6.616  0.3975  2.5935  1.6639
  147SAPE   O2116155   3.323   4.279   6.654 -0.5023 -0.7562  0.3629
  147SAPE   C2116156   3.387   4.179   6.704 -0.0933 -0.4425  0.8310
  147SAPE   O2216157   3.502   4.188   6.746  0.2275  0.9815 -0.1863
  147SAPE   C2216158   3.296   4.058   6.715  0.6633 -0.5021  0.3469
  147SAPE   H2R16159   3.198   4.094   6.751  0.9465 -0.0888  0.7020
  147SAPE   H2S16160   3.283   4.018   6.612 -1.2175  2.8946 -0.8049
  147SAPE    C316161   3.376   4.496   6.718  0.7540  0.1139 -0.4027
  147SAPE    HX16162   3.267   4.506   6.731  0.6859 -0.0950 -0.7837
  147SAPE    HY16163   3.400   4.597   6.680  0.1636 -0.5286 -2.5720
  147SAPE   O3116164   3.444   4.470   6.847 -0.4151  0.4153 -0.0295
  147SAPE   C3116165   3.375   4.396   6.936 -0.6619 -0.4100 -0.5444
  147SAPE   O3216166   3.262   4.360   6.921  0.1711 -0.1263 -0.0901
  147SAPE   C3216167   3.462   4.390   7.069 -0.2730 -0.2476 -0.6742
  147SAPE   H2X16168   3.568   4.413   7.049  0.3729 -1.3028  1.3337
  147SAPE   H2Y16169   3.460   4.288   7.113 -2.4451  0.1816  0.3096
  147SAPE   C2316170   3.351   3.950   6.803 -0.0063 -0.8035 -0.3889
  147SAPE   H3R16171   3.457   3.930   6.776 -0.3293 -1.7864 -0.9680
  147SAPE   H3S16172   3.289   3.860   6.784  0.2157 -0.9722 -0.3036
  147SAPE   C2416173   3.350   3.987   6.955 -0.2306 -0.6447 -0.3052
  147SAPE   H4R16174   3.259   4.044   6.982  0.9908  1.6078 -0.9043
  147SAPE   H4S16175   3.423   4.069   6.972 -1.5859  0.9094 -1.8295
  147SAPE   C2516176   3.367   3.864   7.046  0.3582 -0.0431  0.0927
  147SAPE   H5R16177   3.435   3.791   6.999  1.0511 -0.1153  1.1797
  147SAPE   C2616178   3.333   3.848   7.173  0.5132  0.5765  1.1235
  147SAPE   H6R16179   3.357   3.746   7.207 -1.0560 -0.0536  0.4203
  147SAPE   C2716180   3.265   3.948   7.266 -0.5153  0.3016  0.2163
  147SAPE   H7R16181   3.195   3.899   7.337  0.4887  1.1664  1.8359
  147SAPE   H7S16182   3.192   4.003   7.202  0.7851 -0.0212 -1.6026
  147SAPE   C2816183   3.363   4.040   7.336  0.4123  0.9544  0.3476
  147SAPE   H8R16184   3.468   4.021   7.312  0.5830  1.0673  1.0071
  147SAPE   C2916185   3.328   4.140   7.416 -0.7636 -0.0972 -0.8053
  147SAPE   H9R16186   3.404   4.207   7.459  0.0466 -1.5955  0.1316
  147SAPE  C21016187   3.193   4.179   7.461 -0.0254 -0.3690 -0.5751
  147SAPE  H10R16188   3.206   4.200   7.569 -2.2817 -0.6722 -0.2237
  147SAPE  H10S16189   3.135   4.086   7.471 -1.2667  0.0765 -3.2223
  147SAPE  C21116190   3.122   4.291   7.383  0.1696 -1.1935  0.0779
  147SAPE  H11R16191   3.130   4.275   7.274 -2.5870 -1.2546 -0.1580
  147SAPE  C21216192   3.064   4.403   7.433 -0.4431 -0.4761  0.5317
  147SAPE  H12R16193   3.019   4.470   7.358  0.1746 -0.8807 -0.2051
  147SAPE  C21316194   3.059   4.460   7.575  0.4263 -0.2249  0.3354
  147SAPE  H13R16195   3.037   4.569   7.576 -0.2160 -0.3496  2.3797
  147SAPE  H13S16196   3.154   4.446   7.630 -1.5938 -2.9742  3.3294
  147SAPE  C21416197   2.954   4.408   7.666  0.2707  0.1414 -0.1944
  147SAPE  H14R16198   2.905   4.314   7.634 -3.7895  1.0410  2.9383
  147SAPE  C21516199   2.925   4.464   7.783 -0.4806 -0.1752  0.3410
  147SAPE  H15R16200   2.852   4.409   7.845  0.7904 -2.0870  0.1982
  147SAPE  C21616201   2.987   4.590   7.842  0.6448  0.4502  0.1226
  147SAPE  H16R16202   2.914   4.670   7.819 -0.3032 -0.4591 -0.0113
  147SAPE  H16S16203   3.086   4.616   7.798  0.6425  1.7252  0.8406
  147SAPE  C21716204   3.006   4.587   7.994  0.5009  0.3981 -0.1070
  147SAPE  H17R16205   3.067   4.498   8.022  1.3408  2.0209  3.4233
  147SAPE  H17S16206   2.914   4.579   8.057 -0.5119 -0.8788 -1.7066
  147SAPE  C21816207   3.106   4.700   8.046 -0.0839 -1.0457  0.0701
  147SAPE  H18R16208   3.065   4.801   8.027  0.8407 -0.4094  1.3426
  147SAPE  H18S16209   3.199   4.693   7.986  0.1921 -0.0111  0.3699
  147SAPE  C21916210   3.143   4.686   8.193 -0.0155 -0.5205 -0.0593
  147SAPE  H19R16211   3.207   4.599   8.219  2.1236  0.9245 -0.3702
  147SAPE  H19S16212   3.048   4.675   8.250 -0.5919  0.8600 -0.7195
  147SAPE  C22016213   3.238   4.799   8.247  0.0931  0.4563 -0.0921
  147SAPE  H20R16214   3.255   4.781   8.355  0.5281 -0.1689 -0.2680
  147SAPE  H20S16215   3.205   4.904   8.227 -3.2784 -0.2685  1.2736
  147SAPE  H20T16216   3.335   4.791   8.195  0.1342 -2.2930  0.3586
  147SAPE   C3316217   3.400   4.477   7.175 -0.0111 -0.5562  0.1316
  147SAPE   H3X16218   3.301   4.438   7.209  0.8603 -2.1357  0.8924
  147SAPE   H3Y16219   3.379   4.580   7.139 -0.1609 -0.3254  0.8715
  147SAPE   C3416220   3.488   4.493   7.298 -0.2424 -0.1115 -0.1474
  147SAPE   H4X16221   3.592   4.491   7.259 -0.7188 -0.7782 -1.3957
  147SAPE   H4Y16222   3.480   4.398   7.355  2.0215 -1.4481 -1.9837
  147SAPE   C3516223   3.472   4.621   7.373  0.5384 -0.0660  0.0269
  147SAPE   H5X16224   3.364   4.636   7.392  0.1194 -2.6481 -0.1557
  147SAPE   H5Y16225   3.511   4.692   7.297 -1.6889 -0.1738 -1.2728
  147SAPE   C3616226   3.533   4.627   7.519 -0.6640  0.6746 -0.3173
  147SAPE   H6X16227   3.497   4.723   7.561  0.6558  0.1041  2.2275
  147SAPE   H6Y16228   3.643   4.636   7.525 -0.5938  0.8976 -1.9218
  147SAPE   C3716229   3.500   4.511   7.612  0.3588 -0.0846  0.1338
  147SAPE   H7X16230   3.569   4.430   7.579  0.4655  0.0256  0.0837
  147SAPE   H7Y16231   3.390   4.493   7.609  0.2073  0.9397 -1.3231
  147SAPE   C3816232   3.532   4.540   7.764  0.5215 -0.0040 -0.0257
  147SAPE   H8X16233   3.481   4.637   7.784 -1.0786 -1.4052  3.1071
  147SAPE   H8Y16234   3.642   4.557   7.768  0.5101  0.3345 -0.9550
  147SAPE   C3916235   3.488   4.436   7.867  0.8663  0.1779  0.6145
  147SAPE   H9X16236   3.527   4.333   7.860 -0.4014 -0.3684  1.3591
  147SAPE   H9Y16237   3.378   4.422   7.856  0.9299  1.2039 -1.9205
  147SAPE  C31016238   3.492   4.484   8.009 -0.7557  0.1009 -0.0674
  147SAPE  H10X16239   3.445   4.412   8.079 -1.9475  2.4342  1.5853
  147SAPE  H10Y16240   3.428   4.575   8.014  0.3967  0.8384  1.4209
  147SAPE  C31116241   3.623   4.543   8.063 -0.0799  0.6379  1.2964
  147SAPE  H11X16242   3.648   4.626   7.994 -0.2542 -1.0333 -0.8581
  147SAPE  H11Y16243   3.701   4.463   8.062 -0.7831 -0.0570  0.8575
  147SAPE  C31216244   3.597   4.590   8.212 -0.1446 -0.1349  0.0964
  147SAPE  H12X16245   3.560   4.504   8.271  1.3641 -0.5543  0.4507
  147SAPE  H12Y16246   3.509   4.657   8.205 -1.0717 -1.1714  1.5074
  147SAPE  C31316247   3.710   4.652   8.290 -0.3192  0.6202 -0.5749
  147SAPE  H13X16248   3.739   4.745   8.237  1.5370  0.4389  0.0937
  147SAPE  H13Y16249   3.793   4.579   8.284 -2.4739 -2.1865  2.0319
  147SAPE  C31416250   3.688   4.685   8.443  0.5259  0.5122  0.7756
  147SAPE  H14X16251   3.787   4.716   8.485 -0.2198  1.6258  1.7523
  147SAPE  H14Y16252   3.666   4.587   8.491  2.1547 -1.0132 -1.4910
  147SAPE  C31516253   3.586   4.799   8.455 -0.0913  0.4804  0.2088
  147SAPE  H15X16254   3.489   4.765   8.413 -0.2568  1.6514 -0.3904
  147SAPE  H15Y16255   3.617   4.878   8.383 -1.3172  0.6263 -0.1549
  147SAPE  C31616256   3.569   4.858   8.597  0.0305  0.1387  0.0233
  147SAPE  H16X16257   3.659   4.914   8.630  0.9679 -0.1743 -1.9774
  147SAPE  H16Y16258   3.555   4.778   8.673  1.8562 -0.0050  0.2083
  147SAPE  C31716259   3.447   4.947   8.607  0.0337 -0.4468 -0.9578
  147SAPE  H17X16260   3.356   4.888   8.582  0.1258 -0.4310 -1.3459
  147SAPE  H17Y16261   3.471   5.034   8.542 -0.7459 -1.2564 -2.3743
  147SAPE  C31816262   3.430   5.007   8.753 -0.7176 -0.1338 -0.3355
  147SAPE  H18X16263   3.513   5.078   8.769  0.0083 -0.9522 -0.4113
  147SAPE  H18Y16264   3.440   4.915   8.815  4.0772 -0.5515 -1.5510
  147SAPE  H18Z16265   3.331   5.056   8.757 -1.9405 -2.3415 -2.0372
  148SAPE     N16266   2.202   0.932   6.700  0.1417 -0.1500  1.3575
  148SAPE   HN116267   2.294   0.887   6.683  1.4927  2.9730  0.1648
  148SAPE   HN216268   2.142   0.858   6.743  0.1743 -1.3377 -0.5789
  148SAPE   HN316269   2.162   0.964   6.609  0.4155 -0.7703  1.0090
  148SAPE   C1216270   2.213   1.041   6.802  0.2609  0.2878  0.3226
  148SAPE  H12A16271   2.239   1.003   6.903 -0.8922  1.2281  0.9846
  148SAPE  H12B16272   2.119   1.099   6.806  0.8915  1.2189  2.1177
  148SAPE   C1116273   2.316   1.147   6.758 -0.0427 -0.0696  0.0474
  148SAPE  H11A16274   2.410   1.090   6.746 -0.5633 -0.7235 -0.9713
  148SAPE  H11B16275   2.341   1.212   6.845  1.1275 -0.8494  0.2991
  148SAPE     P16276   2.229   1.361   6.647  0.2527  0.1528 -0.1785
  148SAPE   O1316277   2.341   1.440   6.592  0.2454  0.1522  0.4051
  148SAPE   O1416278   2.102   1.367   6.581 -0.2511 -0.1478  0.6415
  148SAPE   O1216279   2.287   1.211   6.642 -0.4756  0.6484 -0.5298
  148SAPE   O1116280   2.203   1.397   6.802 -0.2749 -0.2969 -0.0638
  148SAPE    C116281   2.205   1.533   6.840 -0.3558 -0.3685 -0.1641
  148SAPE    HA16282   2.187   1.600   6.754 -1.2749 -0.7578 -0.2832
  148SAPE    HB16283   2.121   1.551   6.911 -0.7943  2.6960 -1.3604
  148SAPE    C216284   2.339   1.576   6.896  0.3782  0.3772  0.5887
  148SAPE    HS16285   2.409   1.584   6.811 -0.8663 -0.6502 -0.5622
  148SAPE   O2116286   2.391   1.474   6.979  0.1829  1.1443 -0.5834
  148SAPE   C2116287   2.529   1.475   6.997 -0.1941 -0.1092 -0.2598
  148SAPE   O2216288   2.612   1.545   6.941  0.1517 -0.2487  0.0085
  148SAPE   C2216289   2.559   1.352   7.089 -0.4543  0.3240 -0.0710
  148SAPE   H2R16290   2.504   1.365   7.185 -0.1483  0.0421  0.1465
  148SAPE   H2S16291   2.514   1.269   7.031 -2.6070  2.9851 -2.3437
  148SAPE    C316292   2.328   1.713   6.966 -0.2587 -0.5629  0.0776
  148SAPE    HX16293   2.262   1.698   7.054  1.0681  0.4505  1.2775
  148SAPE    HY16294   2.269   1.786   6.907  0.5549  0.5054  0.5552
  148SAPE   O3116295   2.443   1.772   7.022  0.1700  0.2254 -0.0607
  148SAPE   C3116296   2.529   1.815   6.932 -0.4539 -0.0722  0.3282
  148SAPE   O3216297   2.506   1.839   6.815  0.6082  0.0935  0.4597
  148SAPE   C3216298   2.667   1.845   7.001 -0.8258  0.1358  0.5627
  148SAPE   H2X16299   2.747   1.819   6.928  0.1968 -1.3310  2.1615
  148SAPE   H2Y16300   2.684   1.780   7.089  0.5966 -1.0874 -0.5871
  148SAPE   C2316301   2.719   1.338   7.116  0.0203 -0.5624 -0.0412
  148SAPE   H3R16302   2.786   1.342   7.028 -0.0631 -1.4695 -0.1465
  148SAPE   H3S16303   2.737   1.233   7.149  0.4307  0.3533  2.8116
  148SAPE   C2416304   2.773   1.439   7.215 -0.4123  0.4567  0.4264
  148SAPE   H4R16305   2.761   1.542   7.175  1.0674  0.5011  0.0672
  148SAPE   H4S16306   2.883   1.427   7.205 -0.6726 -0.6617 -1.2956
  148SAPE   C2516307   2.728   1.420   7.357 -0.7272 -0.3026 -0.5740
  148SAPE   H5R16308   2.785   1.345   7.414  0.3506  0.9228 -0.0479
  148SAPE   C2616309   2.641   1.497   7.424 -0.6806 -0.9754  0.7720
  148SAPE   H6R16310   2.630   1.475   7.532  1.3150  1.4040  1.5069
  148SAPE   C2716311   2.548   1.604   7.369  0.3699 -0.0337  0.0214
  148SAPE   H7R16312   2.555   1.630   7.261  2.1145 -1.2936 -0.1877
  148SAPE   H7S16313   2.577   1.698   7.421 -0.4042  0.2130  0.0185
  148SAPE   C2816314   2.406   1.566   7.409  0.1317  0.5798  0.1133
  148SAPE   H8R16315   2.338   1.543   7.325  1.0337  0.8886 -0.7117
  148SAPE   C2916316   2.358   1.554   7.535  0.3501 -0.1454  0.1200
  148SAPE   H9R16317   2.251   1.529   7.538  0.4880 -1.0779 -1.9132
  148SAPE  C21016318   2.422   1.573   7.667 -0.3496 -0.0287 -0.3450
  148SAPE  H10R16319   2.530   1.600   7.669 -1.0204  2.9325 -1.8419
  148SAPE  H10S16320   2.402   1.489   7.737  0.5264 -0.9652 -1.1855
  148SAPE  C21116321   2.355   1.694   7.717  0.0146  0.0056 -0.1269
  148SAPE  H11R16322   2.335   1.771   7.640 -0.2970  0.4693  0.4114
  148SAPE  C21216323   2.306   1.719   7.842 -0.6177  0.1080  0.0643
  148SAPE  H12R16324   2.244   1.808   7.857  0.9197  1.0121  1.2357
  148SAPE  C21316325   2.306   1.624   7.955  0.6001 -0.1183  0.1389
  148SAPE  H13R16326   2.300   1.695   8.040  1.2465  0.7148 -0.5036
  148SAPE  H13S16327   2.407   1.579   7.968 -0.7827 -3.1880  0.8638
  148SAPE  C21416328   2.189   1.529   7.979 -0.8888 -0.8209 -0.7039
  148SAPE  H14R16329   2.128   1.500   7.892  0.3768  0.1507 -1.9235
  148SAPE  C21516330   2.179   1.451   8.091 -0.1837  0.7575 -0.5025
  148SAPE  H15R16331   2.090   1.390   8.108 -1.0164  2.0119 -0.2827
  148SAPE  C21616332   2.274   1.458   8.205  0.6116 -0.1326 -0.7214
  148SAPE  H16R16333   2.324   1.557   8.208  0.0086  0.1315  1.2986
  148SAPE  H16S16334   2.345   1.374   8.189  1.6801  0.7168 -0.5121
  148SAPE  C21716335   2.208   1.430   8.342  0.5800 -0.8052  0.4552
  148SAPE  H17R16336   2.287   1.424   8.421 -0.6129 -2.0737  1.5773
  148SAPE  H17S16337   2.166   1.328   8.339 -1.4101  0.0415 -1.8216
  148SAPE  C21816338   2.107   1.542   8.386  0.0397 -0.0846 -0.3501
  148SAPE  H18R16339   2.014   1.542   8.326  0.8805  1.4311 -1.6704
  148SAPE  H18S16340   2.152   1.641   8.364 -0.4473 -0.4218 -2.9457
  148SAPE  C21916341   2.068   1.538   8.530 -0.5093 -0.0268 -0.7855
  148SAPE  H19R16342   1.993   1.620   8.542 -0.8491 -0.4939  0.3148
  148SAPE  H19S16343   2.157   1.573   8.587 -1.2055 -3.2472  2.4615
  148SAPE  C22016344   2.023   1.400   8.557 -0.0523 -1.3524 -0.6355
  148SAPE  H20R16345   2.105   1.326   8.564 -1.2701 -2.6013  0.8892
  148SAPE  H20S16346   1.950   1.371   8.478  0.3798  1.4375 -2.1343
  148SAPE  H20T16347   1.990   1.403   8.663 -0.8503  0.0324 -0.8992
  148SAPE   C3316348   2.697   1.990   7.046  0.1923  0.2232  0.8784
  148SAPE   H3X16349   2.647   2.061   6.976  2.5354  0.6621 -0.3692
  148SAPE   H3Y16350   2.804   2.008   7.024 -0.4343 -0.0958 -2.7063
  148SAPE   C3416351   2.668   2.011   7.192  0.7324  0.3231  0.5121
  148SAPE   H4X16352   2.583   1.945   7.221  1.4671 -1.8553 -2.0478
  148SAPE   H4Y16353   2.637   2.116   7.212 -1.0794  0.4739 -2.6601
  148SAPE   C3516354   2.794   1.989   7.279  0.2524  0.0055 -0.3871
  148SAPE   H5X16355   2.831   2.093   7.290  1.5675 -0.5507  0.5808
  148SAPE   H5Y16356   2.866   1.924   7.225  2.0211  0.5941  1.2380
  148SAPE   C3616357   2.775   1.922   7.411  0.3934 -0.6957 -0.5133
  148SAPE   H6X16358   2.874   1.938   7.458  0.6248 -0.9474 -0.9065
  148SAPE   H6Y16359   2.758   1.812   7.404  2.4176 -0.9321 -2.0855
  148SAPE   C3716360   2.663   1.985   7.499 -0.7251 -0.3504  0.3948
  148SAPE   H7X16361   2.567   1.967   7.446 -0.6746  0.4527  0.0188
  148SAPE   H7Y16362   2.675   2.095   7.511 -1.2817 -0.2141 -0.2732
  148SAPE   C3816363   2.670   1.922   7.636  0.0241 -0.3315 -0.2727
  148SAPE   H8X16364   2.774   1.947   7.666  0.9193 -1.5994 -2.2309
  148SAPE   H8Y16365   2.663   1.812   7.640 -2.4506 -0.2076 -0.5091
  148SAPE   C3916366   2.574   1.978   7.738  0.5741 -0.1088  0.0225
  148SAPE   H9X16367   2.472   1.946   7.707 -0.0689  1.3654  0.6079
  148SAPE   H9Y16368   2.581   2.088   7.745 -1.8254  0.0715 -0.2084
  148SAPE  C31016369   2.603   1.923   7.880 -0.3697  0.1231  0.4474
  148SAPE  H10X16370   2.713   1.927   7.893  0.1665 -2.9593 -2.2671
  148SAPE  H10Y16371   2.571   1.816   7.874 -1.0321  0.3783 -0.9098
  148SAPE  C31116372   2.529   1.984   8.002  0.5442 -0.0637  0.0371
  148SAPE  H11X16373   2.555   1.942   8.101 -0.6606 -0.7033  0.0913
  148SAPE  H11Y16374   2.424   1.957   7.978 -0.3669  0.7658  2.9946
  148SAPE  C31216375   2.532   2.138   7.998  0.1184 -0.3295 -0.7078
  148SAPE  H12X16376   2.457   2.174   7.925  0.3197 -1.3944 -1.4484
  148SAPE  H12Y16377   2.634   2.177   7.976  0.9389 -2.1702 -0.3226
  148SAPE  C31316378   2.485   2.198   8.135  0.5587  0.3345  0.3874
  148SAPE  H13X16379   2.403   2.131   8.170 -1.9167  2.2099 -1.6391
  148SAPE  H13Y16380   2.438   2.296   8.113  0.4809  0.4319  0.9762
  148SAPE  C31416381   2.596   2.216   8.237 -0.4958 -0.4864 -0.5758
  148SAPE  H14X16382   2.663   2.299   8.204  0.3346 -0.8741  0.1351
  148SAPE  H14Y16383   2.662   2.127   8.239 -0.8266 -0.8093 -2.9222
  148SAPE  C31516384   2.531   2.250   8.371 -0.5321 -0.5231  0.8446
  148SAPE  H15X16385   2.471   2.166   8.414 -2.5851  0.5882  0.1989
  148SAPE  H15Y16386   2.444   2.316   8.358 -1.0176 -1.1798  0.7120
  148SAPE  C31616387   2.629   2.312   8.482 -0.4744 -0.1634 -0.5935
  148SAPE  H16X16388   2.605   2.420   8.488 -2.1468 -0.4685 -1.4224
  148SAPE  H16Y16389   2.726   2.297   8.430 -0.9557 -1.3764 -1.1623
  148SAPE  C31716390   2.618   2.231   8.610 -0.8311 -0.1061 -0.9641
  148SAPE  H17X16391   2.704   2.268   8.670 -1.4028  0.4187 -0.4708
  148SAPE  H17Y16392   2.639   2.124   8.590 -0.6274 -0.7265  2.4280
  148SAPE  C31816393   2.491   2.255   8.695  0.1153  0.1642 -0.2476
  148SAPE  H18X16394   2.497   2.182   8.778  0.6890 -1.1547 -1.4381
  148SAPE  H18Y16395   2.395   2.242   8.641 -0.6570  2.5497  0.4716
  148SAPE  H18Z16396   2.487   2.356   8.742  3.5775 -1.1793  3.1857
  149SAPE     N16397   2.779   2.746   6.238 -0.0320  0.3395  0.3868
  149SAPE   HN116398   2.838   2.692   6.305 -1.1461 -0.1337  0.9979
  149SAPE   HN216399   2.698   2.790   6.286  0.3985  2.2454 -0.5959
  149SAPE   HN316400   2.753   2.666   6.176  2.2374 -2.3543  2.7405
  149SAPE   C1216401   2.855   2.853   6.161  0.2676 -0.4921 -0.6645
  149SAPE  H12A16402   2.783   2.903   6.094  0.0438 -0.4371 -0.3800
  149SAPE  H12B16403   2.938   2.798   6.110  0.9764  0.9061 -1.0388
  149SAPE   C1116404   2.917   2.958   6.262  0.2476 -0.0511  0.0894
  149SAPE  H11A16405   2.960   3.037   6.198  1.1121 -1.9197 -1.6945
  149SAPE  H11B16406   3.002   2.902   6.306  1.1363  0.5576 -0.8400
  149SAPE     P16407   2.733   3.138   6.318  0.2186 -0.3023  0.1000
  149SAPE   O1316408   2.720   3.138   6.172  0.2052  0.5291  0.2008
  149SAPE   O1416409   2.609   3.128   6.401 -0.3004  0.5118  0.0788
  149SAPE   O1216410   2.822   3.009   6.353 -0.4781  0.3335 -0.1146
  149SAPE   O1116411   2.827   3.260   6.369 -0.0769 -0.2429  0.2549
  149SAPE    C116412   2.869   3.250   6.509  0.6066  0.0146 -0.2308
  149SAPE    HA16413   2.864   3.146   6.545 -0.2056  0.6331  1.4998
  149SAPE    HB16414   2.975   3.282   6.520  0.5356  1.0094 -2.2390
  149SAPE    C216415   2.779   3.346   6.593  0.1003 -0.6335 -0.3480
  149SAPE    HS16416   2.673   3.325   6.567 -0.2281 -0.1541  0.5752
  149SAPE   O2116417   2.809   3.484   6.577  0.2968 -0.0473  0.5352
  149SAPE   C2116418   2.710   3.572   6.607  0.0515 -0.3351  0.9489
  149SAPE   O2216419   2.601   3.543   6.653 -0.5604 -0.6759  0.1006
  149SAPE   C2216420   2.752   3.707   6.562 -0.3979  0.7850  0.5937
  149SAPE   H2R16421   2.817   3.686   6.474  0.4932 -0.8916  1.6313
  149SAPE   H2S16422   2.666   3.768   6.529 -0.2754 -0.3941 -2.0973
  149SAPE    C316423   2.811   3.315   6.746  0.3343  0.6192 -0.6839
  149SAPE    HX16424   2.918   3.340   6.756  0.6242 -0.2817 -1.4512
  149SAPE    HY16425   2.783   3.209   6.761  1.4367  0.0400 -2.5868
  149SAPE   O3116426   2.740   3.392   6.847 -0.4627 -0.7357  0.2288
  149SAPE   C3116427   2.617   3.349   6.874 -1.0642 -0.5538 -0.2706
  149SAPE   O3216428   2.569   3.241   6.843 -0.4635  0.2056 -0.3850
  149SAPE   C3216429   2.548   3.460   6.947  0.4751 -0.4304 -0.0287
  149SAPE   H2X16430   2.574   3.555   6.898 -1.5336  0.1720  0.0324
  149SAPE   H2Y16431   2.577   3.473   7.054 -2.2500 -0.6315  0.7764
  149SAPE   C2316432   2.834   3.782   6.671 -0.3635  0.0466 -0.0829
  149SAPE   H3R16433   2.760   3.789   6.754 -0.0436 -0.4963  0.2515
  149SAPE   H3S16434   2.854   3.888   6.645  2.2135 -0.4348 -0.2029
  149SAPE   C2416435   2.958   3.703   6.713 -0.6435 -0.2726 -0.2629
  149SAPE   H4R16436   3.032   3.706   6.631  0.9360  0.8181  1.1672
  149SAPE   H4S16437   2.926   3.602   6.747 -0.3959 -0.1391  0.3808
  149SAPE   C2516438   3.016   3.776   6.829 -0.7120 -0.5873 -0.2462
  149SAPE   H5R16439   3.088   3.855   6.804  0.2202 -1.5642 -0.6793
  149SAPE   C2616440   3.001   3.750   6.961  0.5181 -0.3112 -0.0670
  149SAPE   H6R16441   3.052   3.818   7.032 -0.9729  0.4339  0.3243
  149SAPE   C2716442   2.911   3.645   7.020 -0.5285 -0.4472  0.3064
  149SAPE   H7R16443   2.972   3.552   7.027 -1.1315 -0.9975 -1.5491
  149SAPE   H7S16444   2.818   3.633   6.960 -1.9038 -2.3340  2.7077
  149SAPE   C2816445   2.865   3.672   7.162 -0.3985 -0.0497 -0.2356
  149SAPE   H8R16446   2.871   3.776   7.196  2.4327 -0.0386 -0.6421
  149SAPE   C2916447   2.819   3.578   7.249  0.0555 -0.4585  0.0105
  149SAPE   H9R16448   2.789   3.611   7.349 -0.2056 -3.0611  0.8029
  149SAPE  C21016449   2.813   3.431   7.224  0.4297  0.6959  0.1179
  149SAPE  H10R16450   2.910   3.384   7.250  0.4387 -0.1128 -1.2861
  149SAPE  H10S16451   2.798   3.416   7.115  0.7852  1.7110 -0.0757
  149SAPE  C21116452   2.713   3.359   7.306 -1.1000 -0.8157 -0.0256
  149SAPE  H11R16453   2.647   3.414   7.373 -1.1483 -1.6632  0.6320
  149SAPE  C21216454   2.688   3.226   7.303  0.0363 -0.5749 -0.4437
  149SAPE  H12R16455   2.607   3.187   7.366  0.2152 -0.8448 -0.3801
  149SAPE  C21316456   2.764   3.129   7.216  0.0608 -0.1881 -0.2165
  149SAPE  H13R16457   2.826   3.089   7.299 -1.8131 -1.0210  0.8317
  149SAPE  H13S16458   2.827   3.169   7.134  1.1077  3.3063  2.2009
  149SAPE  C21416459   2.672   3.026   7.155  0.3426 -0.0244 -0.0582
  149SAPE  H14R16460   2.607   3.063   7.074  0.2687 -2.7897 -1.3468
  149SAPE  C21516461   2.666   2.896   7.191  0.5416 -0.4369 -0.0141
  149SAPE  H15R16462   2.601   2.820   7.146  0.4905 -0.6871  0.4894
  149SAPE  C21616463   2.755   2.837   7.304  0.7863  0.3000  0.8844
  149SAPE  H16R16464   2.830   2.910   7.343  0.9057 -0.2104  1.6114
  149SAPE  H16S16465   2.801   2.748   7.257 -1.1482 -1.2583  1.8797
  149SAPE  C21716466   2.680   2.801   7.428  0.1651  0.5480 -0.2591
  149SAPE  H17R16467   2.756   2.772   7.504  1.9640 -1.8687 -2.8404
  149SAPE  H17S16468   2.617   2.710   7.412  1.3524 -0.1935 -0.7584
  149SAPE  C21816469   2.599   2.923   7.487 -1.5045  0.6322  1.0600
  149SAPE  H18R16470   2.518   2.959   7.419 -0.5817 -1.3394 -1.1569
  149SAPE  H18S16471   2.671   3.006   7.503 -0.9270 -0.0747  2.1875
  149SAPE  C21916472   2.559   2.887   7.631  0.1933 -0.2085 -0.4229
  149SAPE  H19R16473   2.653   2.864   7.686  1.0430  0.5194 -1.5287
  149SAPE  H19S16474   2.488   2.801   7.637 -1.1311  0.9676  1.1982
  149SAPE  C22016475   2.510   3.005   7.717 -0.1307  0.0317 -0.2443
  149SAPE  H20R16476   2.466   2.971   7.813 -0.6215  0.6210 -0.2631
  149SAPE  H20S16477   2.423   3.054   7.669 -2.0572 -1.6465  1.4522
  149SAPE  H20T16478   2.592   3.076   7.739  0.3171 -1.1406  2.0692
  149SAPE   C3316479   2.394   3.448   6.951 -0.3063  1.0172 -0.5246
  149SAPE   H3X16480   2.359   3.342   6.950 -0.1220  0.9360  0.8525
  149SAPE   H3Y16481   2.345   3.491   6.861 -2.0858  1.0209  0.4264
  149SAPE   C3416482   2.334   3.505   7.077  0.2673  0.6139  0.3029
  149SAPE   H4X16483   2.228   3.493   7.046  1.0114 -1.0697 -1.7041
  149SAPE   H4Y16484   2.376   3.607   7.083 -0.1446  0.6838  2.3918
  149SAPE   C3516485   2.350   3.419   7.198  0.2854 -0.3191  0.5161
  149SAPE   H5X16486   2.457   3.395   7.219 -0.2983 -1.3442  2.4244
  149SAPE   H5Y16487   2.299   3.322   7.177 -1.3906  0.9119 -1.2646
  149SAPE   C3616488   2.292   3.473   7.325  0.4718  0.0536  0.2863
  149SAPE   H6X16489   2.184   3.496   7.310  0.5074  0.8256  1.1622
  149SAPE   H6Y16490   2.337   3.573   7.345  2.8913 -0.8589 -0.4785
  149SAPE   C3716491   2.306   3.373   7.441  0.5470  0.0234 -0.3119
  149SAPE   H7X16492   2.404   3.390   7.492 -0.4088 -2.7832  2.6146
  149SAPE   H7Y16493   2.317   3.269   7.405  2.0498  0.2847 -0.6314
  149SAPE   C3816494   2.208   3.398   7.559  0.0152 -0.1685 -0.0020
  149SAPE   H8X16495   2.107   3.363   7.527 -2.1111  4.0084  1.8003
  149SAPE   H8Y16496   2.194   3.507   7.573 -1.2970 -0.5442  1.7457
  149SAPE   C3916497   2.260   3.348   7.699  0.5834 -0.7735 -0.2045
  149SAPE   H9X16498   2.361   3.392   7.716  1.6784 -2.0770 -2.9793
  149SAPE   H9Y16499   2.271   3.238   7.689  0.3557 -0.7174 -1.0890
  149SAPE  C31016500   2.159   3.380   7.806 -0.6790  0.4733  0.7539
  149SAPE  H10X16501   2.067   3.323   7.778 -1.1967  2.0033 -0.7805
  149SAPE  H10Y16502   2.145   3.490   7.797  0.7722  0.4928 -1.8892
  149SAPE  C31116503   2.192   3.333   7.945  0.3320  0.2745  0.6222
  149SAPE  H11X16504   2.235   3.231   7.942 -1.7026 -0.5582 -2.0588
  149SAPE  H11Y16505   2.100   3.329   8.008 -1.4436 -0.7136 -1.9716
  149SAPE  C31216506   2.290   3.419   8.028  1.1048 -0.3597 -0.5121
  149SAPE  H12X16507   2.238   3.515   8.048  0.2348 -0.6316 -1.4566
  149SAPE  H12Y16508   2.389   3.446   7.984  2.6444 -0.5104  2.7109
  149SAPE  C31316509   2.311   3.365   8.175 -0.3305  0.1418  0.0147
  149SAPE  H13X16510   2.208   3.343   8.212 -1.0996  3.9619  0.3400
  149SAPE  H13Y16511   2.350   3.454   8.229  1.0348 -1.5256  1.8132
  149SAPE  C31416512   2.410   3.245   8.183  0.1205 -0.1519 -0.9357
  149SAPE  H14X16513   2.502   3.269   8.126  0.4709  1.6219  0.3406
  149SAPE  H14Y16514   2.365   3.156   8.134  1.0604 -0.7337 -0.7430
  149SAPE  C31516515   2.465   3.211   8.322  0.5526 -0.5985 -0.7570
  149SAPE  H15X16516   2.493   3.305   8.374 -1.3884  0.5884 -1.8036
  149SAPE  H15Y16517   2.559   3.152   8.318 -0.3591 -2.2576  1.4867
  149SAPE  C31616518   2.361   3.140   8.409 -0.1400 -0.3082 -0.2943
  149SAPE  H16X16519   2.298   3.070   8.349 -0.0023 -1.9011  1.3579
  149SAPE  H16Y16520   2.291   3.219   8.441  0.1682 -0.3240  0.4118
  149SAPE  C31716521   2.425   3.070   8.532 -0.0303  0.2756  0.1611
  149SAPE  H17X16522   2.493   3.004   8.474  0.1078 -0.4973  1.1852
  149SAPE  H17Y16523   2.355   3.008   8.593  0.2761 -0.3606 -0.1265
  149SAPE  C31816524   2.510   3.163   8.616  0.4775  0.1189 -0.9877
  149SAPE  H18X16525   2.453   3.245   8.665  0.2977 -1.0504  0.8023
  149SAPE  H18Y16526   2.587   3.217   8.557  1.9229 -0.4824  0.3283
  149SAPE  H18Z16527   2.554   3.109   8.703 -1.5699  2.2640  1.4848
  150SAPE     N16528   0.486   3.421   6.437  0.0800  0.1707  0.1653
  150SAPE   HN116529   0.556   3.350   6.405  2.2931  3.4280 -2.5291
  150SAPE   HN216530   0.398   3.369   6.456  1.4073 -2.3282 -0.2702
  150SAPE   HN316531   0.469   3.491   6.363  0.6036 -0.5655 -0.6647
  150SAPE   C1216532   0.536   3.483   6.567  0.6640 -0.2781 -0.0282
  150SAPE  H12A16533   0.543   3.406   6.647 -0.4446  0.2724  0.5968
  150SAPE  H12B16534   0.462   3.562   6.591  1.4803  1.2885 -2.4781
  150SAPE   C1116535   0.676   3.548   6.554 -0.3696  0.2156  0.5864
  150SAPE  H11A16536   0.760   3.476   6.563 -0.4106  0.2618  1.4196
  150SAPE  H11B16537   0.698   3.625   6.632  2.4431  0.3943 -0.3283
  150SAPE     P16538   0.654   3.763   6.399 -0.4521  0.0021 -0.2538
  150SAPE   O1316539   0.697   3.786   6.261  0.0272 -0.1614 -0.3590
  150SAPE   O1416540   0.510   3.787   6.427  0.1872 -0.0517 -0.3664
  150SAPE   O1216541   0.694   3.610   6.426 -0.4135  0.1685 -0.1403
  150SAPE   O1116542   0.744   3.843   6.491 -0.2433 -0.6472  0.5051
  150SAPE    C116543   0.892   3.848   6.490  1.0932  0.1886  0.0624
  150SAPE    HA16544   0.941   3.793   6.407 -1.4522 -0.9154 -0.7400
  150SAPE    HB16545   0.914   3.954   6.465 -3.6018  1.7066  1.9491
  150SAPE    C216546   0.945   3.797   6.625 -0.1503 -0.1367  0.0738
  150SAPE    HS16547   0.905   3.694   6.640 -0.2810 -0.0429  0.3775
  150SAPE   O2116548   0.902   3.886   6.727 -0.3757 -0.7752 -0.0052
  150SAPE   C2116549   0.872   3.834   6.847  0.3001  0.0478 -1.0944
  150SAPE   O2216550   0.866   3.714   6.876 -0.2465  0.0043 -0.0395
  150SAPE   C2216551   0.849   3.952   6.941  0.1801 -0.4987  0.0564
  150SAPE   H2R16552   0.923   4.031   6.915 -1.6425  0.6328 -1.9052
  150SAPE   H2S16553   0.747   3.990   6.918  0.4528 -0.0822 -0.4832
  150SAPE    C316554   1.100   3.794   6.620 -0.3173 -0.0723  0.3450
  150SAPE    HX16555   1.134   3.898   6.639  0.3326 -0.2038 -0.0658
  150SAPE    HY16556   1.124   3.764   6.516 -0.2391  2.5747 -0.4488
  150SAPE   O3116557   1.148   3.707   6.723 -0.1714 -0.3359 -0.0920
  150SAPE   C3116558   1.142   3.574   6.693  0.3508  0.0648 -0.0237
  150SAPE   O3216559   1.101   3.533   6.585  0.6481  0.0014  0.2461
  150SAPE   C3216560   1.188   3.480   6.804  0.2527 -0.1516 -0.4898
  150SAPE   H2X16561   1.290   3.515   6.829  0.0709  1.6775 -2.1990
  150SAPE   H2Y16562   1.193   3.381   6.754  1.1223  0.1971 -1.1067
  150SAPE   C2316563   0.853   3.902   7.087 -0.1831  0.5129 -0.0540
  150SAPE   H3R16564   0.943   3.842   7.114 -1.1157 -1.3755 -0.9965
  150SAPE   H3S16565   0.756   3.849   7.099 -0.0938 -0.5547 -3.3772
  150SAPE   C2416566   0.840   4.023   7.178  0.1650  0.8312  0.5137
  150SAPE   H4R16567   0.734   4.056   7.169  0.2688  0.7542 -1.0912
  150SAPE   H4S16568   0.904   4.102   7.134  2.9036 -1.6538 -0.0739
  150SAPE   C2516569   0.880   3.986   7.316 -0.3508  0.0018 -0.7930
  150SAPE   H5R16570   0.875   3.877   7.332 -0.0907 -0.5025 -3.8819
  150SAPE   C2616571   0.933   4.064   7.417  0.2609  0.1123  0.5907
  150SAPE   H6R16572   0.946   4.020   7.517  0.6947  1.2890  1.0635
  150SAPE   C2716573   0.963   4.214   7.416 -0.4638 -0.1491  0.1900
  150SAPE   H7R16574   0.956   4.250   7.311 -0.1731 -1.8295 -0.4163
  150SAPE   H7S16575   1.070   4.226   7.445 -1.0928 -0.0361  2.5818
  150SAPE   C2816576   0.882   4.294   7.509 -0.4688 -0.4550 -0.0354
  150SAPE   H8R16577   0.807   4.351   7.452  0.6393  0.9490 -0.1229
  150SAPE   C2916578   0.885   4.311   7.643 -0.0870  0.2980  0.0137
  150SAPE   H9R16579   0.818   4.381   7.696  1.2316 -0.3029  2.5819
  150SAPE  C21016580   0.992   4.263   7.741  0.1131  0.6667 -0.5460
  150SAPE  H10R16581   1.044   4.171   7.706 -0.3214  0.1882  0.0591
  150SAPE  H10S16582   0.929   4.230   7.826  0.0693  0.0991 -0.7954
  150SAPE  C21116583   1.087   4.375   7.783  0.0378 -0.0276  0.2469
  150SAPE  H11R16584   1.160   4.412   7.710 -2.3321  3.8635 -0.3340
  150SAPE  C21216585   1.070   4.440   7.900  0.6116  0.0356 -0.0973
  150SAPE  H12R16586   1.150   4.509   7.928 -0.5549  2.5562 -2.7620
  150SAPE  C21316587   0.964   4.425   8.010  0.2254  0.3087 -0.6405
  150SAPE  H13R16588   0.861   4.427   7.970  0.4078 -1.7644 -1.2807
  150SAPE  H13S16589   0.967   4.521   8.066 -1.2341  0.3377 -0.5972
  150SAPE  C21416590   0.962   4.308   8.108 -0.0235 -0.1932 -0.1092
  150SAPE  H14R16591   0.918   4.221   8.058  1.8939 -1.3245  0.1327
  150SAPE  C21516592   1.017   4.301   8.235  0.1907 -0.3535  0.4556
  150SAPE  H15R16593   1.011   4.207   8.291 -1.6122  1.0646  2.7208
  150SAPE  C21616594   1.096   4.411   8.294 -0.4111 -0.5340 -0.7664
  150SAPE  H16R16595   1.108   4.497   8.225 -1.9384  2.8854  3.0111
  150SAPE  H16S16596   1.197   4.369   8.314  0.3069  1.5816  0.2027
  150SAPE  C21716597   1.044   4.491   8.419  0.2770  0.3513 -0.3851
  150SAPE  H17R16598   1.121   4.570   8.431  0.4131  0.1360  0.1984
  150SAPE  H17S16599   1.048   4.426   8.509 -1.0630 -0.6464 -1.0296
  150SAPE  C21816600   0.907   4.547   8.402 -0.2845 -0.0560  0.4233
  150SAPE  H18R16601   0.828   4.469   8.402  0.0581 -0.4701  4.2033
  150SAPE  H18S16602   0.894   4.608   8.310  1.0214 -1.6809 -0.8842
  150SAPE  C21916603   0.869   4.638   8.527  0.1645  0.2277  0.8503
  150SAPE  H19R16604   0.768   4.680   8.506  0.0630  1.3448  3.4274
  150SAPE  H19S16605   0.943   4.721   8.525  2.1863 -1.5295 -2.0760
  150SAPE  C22016606   0.867   4.562   8.655 -0.2676 -0.1743  0.0086
  150SAPE  H20R16607   0.821   4.633   8.727  1.1111  1.8316 -1.0524
  150SAPE  H20S16608   0.966   4.524   8.686 -0.1962 -1.3677 -1.6443
  150SAPE  H20T16609   0.797   4.476   8.647 -1.9817  1.2348 -0.4838
  150SAPE   C3316610   1.107   3.487   6.931 -0.0509  0.6597 -0.1254
  150SAPE   H3X16611   0.999   3.462   6.924  0.2230 -0.4588 -0.4076
  150SAPE   H3Y16612   1.114   3.593   6.964 -0.6502  0.8215 -0.5095
  150SAPE   C3416613   1.166   3.396   7.037  0.5744  0.6297  0.3473
  150SAPE   H4X16614   1.269   3.431   7.059 -0.1784  1.9747  1.8215
  150SAPE   H4Y16615   1.182   3.295   6.994 -1.4950 -0.7843  2.7593
  150SAPE   C3516616   1.091   3.377   7.170  0.8829 -0.3230  0.3053
  150SAPE   H5X16617   0.984   3.349   7.162  0.9151 -0.1601 -0.7582
  150SAPE   H5Y16618   1.087   3.478   7.215 -0.1070  0.7543 -2.1363
  150SAPE   C3616619   1.167   3.288   7.270  0.4028  0.4138 -0.4700
  150SAPE   H6X16620   1.269   3.332   7.281  0.5013 -0.0984  0.7802
  150SAPE   H6Y16621   1.183   3.182   7.240 -0.1483  1.0557 -3.1349
  150SAPE   C3716622   1.095   3.278   7.403  0.7226  0.0004  0.3859
  150SAPE   H7X16623   1.138   3.192   7.460  0.5510  0.6118  1.4352
  150SAPE   H7Y16624   0.987   3.252   7.398 -0.5488  4.6590  1.3736
  150SAPE   C3816625   1.116   3.407   7.489  0.5100 -0.3478  1.0240
  150SAPE   H8X16626   1.050   3.484   7.444 -0.0118 -1.4984 -0.1982
  150SAPE   H8Y16627   1.222   3.437   7.471 -0.7378  2.3412 -2.4107
  150SAPE   C3916628   1.101   3.388   7.645 -0.0908 -0.0415 -0.3541
  150SAPE   H9X16629   1.109   3.486   7.696 -1.9926  0.6591 -1.3597
  150SAPE   H9Y16630   1.182   3.320   7.677 -2.6834 -2.6398  0.9494
  150SAPE  C31016631   0.965   3.329   7.687  0.0353 -0.5438 -0.5370
  150SAPE  H10X16632   0.959   3.229   7.638  1.8485 -1.3518  0.8285
  150SAPE  H10Y16633   0.889   3.392   7.636 -1.4077 -2.0581 -0.3030
  150SAPE  C31116634   0.933   3.319   7.832  0.2613  0.1195 -0.1378
  150SAPE  H11X16635   0.823   3.308   7.837 -0.1384  2.6513 -2.5630
  150SAPE  H11Y16636   0.949   3.414   7.887 -0.5461  0.0725  0.1765
  150SAPE  C31216637   0.999   3.207   7.917 -0.0692  0.2310  0.3419
  150SAPE  H12X16638   1.110   3.215   7.907  0.4381 -1.3554  3.9336
  150SAPE  H12Y16639   0.964   3.109   7.878 -0.7474  0.3518  0.6379
  150SAPE  C31316640   0.959   3.204   8.073 -0.1205 -0.6071 -0.4755
  150SAPE  H13X16641   0.848   3.208   8.070 -0.2068 -1.6294  0.7958
  150SAPE  H13Y16642   0.985   3.301   8.121 -3.1197  0.4500 -0.9270
  150SAPE  C31416643   1.003   3.086   8.171  1.0291 -0.3557  0.0380
  150SAPE  H14X16644   1.113   3.074   8.166  1.2819  1.3383  1.1493
  150SAPE  H14Y16645   0.956   2.993   8.133  1.0189 -0.9650  1.5304
  150SAPE  C31516646   0.939   3.105   8.313 -0.0009 -0.4642  0.2590
  150SAPE  H15X16647   0.969   3.205   8.352  1.7866 -0.9753  0.2486
  150SAPE  H15Y16648   0.972   3.023   8.380 -0.8783 -0.9936  0.0494
  150SAPE  C31616649   0.787   3.106   8.309 -0.4569 -0.0483 -0.2803
  150SAPE  H16X16650   0.741   3.033   8.238 -1.2160 -0.3315  0.4957
  150SAPE  H16Y16651   0.752   3.201   8.262 -0.1094  0.0509 -0.3411
  150SAPE  C31716652   0.726   3.081   8.447  0.0343 -0.0516 -0.5048
  150SAPE  H17X16653   0.778   3.139   8.526  0.8845 -1.2233 -0.2074
  150SAPE  H17Y16654   0.757   2.981   8.482  2.8806  0.2485 -2.0525
  150SAPE  C31816655   0.570   3.085   8.469 -0.4692 -0.2608 -0.3204
  150SAPE  H18X16656   0.549   3.037   8.567 -0.1326 -0.6054 -0.4131
  150SAPE  H18Y16657   0.515   3.035   8.387 -0.8023 -1.6740  0.7320
  150SAPE  H18Z16658   0.539   3.191   8.480 -0.1737 -0.1593 -0.4663
  151SAPE     N16659   3.508   1.807   6.227  0.1878  0.3455 -0.0056
  151SAPE   HN116660   3.423   1.838   6.174  0.2945 -0.9630 -0.9541
  151SAPE   HN216661   3.479   1.724   6.282 -0.8766  0.8613  0.2246
  151SAPE   HN316662   3.524   1.889   6.289 -0.8154  0.3228  0.2869
  151SAPE   C1216663   3.630   1.769   6.150  0.9952 -0.2106  0.0464
  151SAPE  H12A16664   3.673   1.865   6.113 -2.3946  1.5529  0.5283
  151SAPE  H12B16665   3.604   1.708   6.061 -0.3772 -0.0062  0.2937
  151SAPE   C1116666   3.732   1.682   6.228  0.9022  0.3097  0.0721
  151SAPE  H11A16667   3.813   1.745   6.269 -0.3061  1.7248  0.3329
  151SAPE  H11B16668   3.781   1.618   6.151  0.3274 -1.1856  0.9380
  151SAPE     P16669   3.758   1.485   6.388 -0.0197 -0.0827 -0.1643
  151SAPE   O1316670   3.699   1.359   6.330 -0.5724 -0.6737 -0.3951
  151SAPE   O1416671   3.905   1.500   6.378 -0.5640  0.3876 -0.3849
  151SAPE   O1216672   3.675   1.609   6.331 -0.4583 -0.2648  0.1193
  151SAPE   O1116673   3.723   1.488   6.542 -0.1638  0.1446 -0.5524
  151SAPE    C116674   3.738   1.602   6.631  0.1210 -0.1709 -0.4065
  151SAPE    HA16675   3.715   1.695   6.574 -0.5013  0.2378  0.5072
  151SAPE    HB16676   3.669   1.597   6.718 -1.9778 -0.1321 -2.0231
  151SAPE    C216677   3.882   1.611   6.680 -0.2868  0.9491  0.6065
  151SAPE    HS16678   3.949   1.574   6.600 -0.1230  2.0350  0.2334
  151SAPE   O2116679   3.903   1.547   6.808 -0.0838 -0.8938 -0.5284
  151SAPE   C2116680   3.936   1.412   6.808 -0.1924 -0.5175  0.3972
  151SAPE   O2216681   3.969   1.351   6.709 -0.6160  0.0301  0.1168
  151SAPE   C2216682   3.949   1.364   6.959 -0.3502 -0.0014  0.1789
  151SAPE   H2R16683   3.962   1.459   7.014 -5.4168  0.6061  0.5261
  151SAPE   H2S16684   3.849   1.322   6.980 -0.8424  0.4032 -1.3255
  151SAPE    C316685   3.923   1.761   6.699 -0.3032 -0.1087 -0.3923
  151SAPE    HX16686   3.937   1.812   6.601 -0.5127  1.0465  0.1642
  151SAPE    HY16687   4.022   1.752   6.749 -1.8249  1.1799  2.9994
  151SAPE   O3116688   3.829   1.826   6.779  0.8302 -0.2334 -0.2702
  151SAPE   C3116689   3.876   1.944   6.824 -0.1560 -0.1478 -0.6302
  151SAPE   O3216690   3.987   1.988   6.821  0.3523  0.1932  0.6090
  151SAPE   C3216691   3.766   2.019   6.875 -0.0190  0.3390  0.7611
  151SAPE   H2X16692   3.672   1.984   6.827  1.4900  0.1785 -2.1828
  151SAPE   H2Y16693   3.770   2.124   6.839 -0.8582 -0.0698 -0.5734
  151SAPE   C2316694   4.057   1.260   6.989  0.4817  0.0199 -0.2741
  151SAPE   H3R16695   4.158   1.304   7.006  0.7610 -0.1275 -1.5218
  151SAPE   H3S16696   4.072   1.196   6.900  2.0725  1.3226 -0.9575
  151SAPE   C2416697   4.029   1.170   7.108  0.0573  0.0750  0.6439
  151SAPE   H4R16698   4.096   1.082   7.108 -0.0818 -0.0599 -2.4860
  151SAPE   H4S16699   3.930   1.125   7.085  0.2965  0.5571 -1.3738
  151SAPE   C2516700   4.013   1.230   7.249 -1.0354  0.5950 -0.2265
  151SAPE   H5R16701   3.914   1.257   7.287 -0.1524  3.7325 -0.0378
  151SAPE   C2616702   4.119   1.246   7.333 -0.7121  0.2362  0.2823
  151SAPE   H6R16703   4.098   1.295   7.430  2.1275  0.2778  0.9201
  151SAPE   C2716704   4.258   1.213   7.306  0.1536  0.5698  0.6265
  151SAPE   H7R16705   4.317   1.283   7.368 -1.8262  2.0947  0.8305
  151SAPE   H7S16706   4.281   1.253   7.205 -0.3282  1.4903  0.8786
  151SAPE   C2816707   4.306   1.067   7.323 -0.1679 -0.5252 -0.4358
  151SAPE   H8R16708   4.285   1.000   7.239 -1.1385 -1.3626  0.4485
  151SAPE   C2916709   4.361   1.025   7.439  0.1603 -0.3684  0.3243
  151SAPE   H9R16710   4.385   0.917   7.438 -1.1661 -0.6907 -2.2067
  151SAPE  C21016711   4.394   1.102   7.557 -0.0023  0.5036  0.1913
  151SAPE  H10R16712   4.317   1.177   7.585  0.4690  0.8913  0.4837
  151SAPE  H10S16713   4.474   1.177   7.537 -0.0016 -0.2039 -2.6160
  151SAPE  C21116714   4.436   1.008   7.664 -0.3675 -0.4018  0.0276
  151SAPE  H11R16715   4.535   0.958   7.665  1.1118  2.4449  0.6014
  151SAPE  C21216716   4.348   0.977   7.762 -0.1887 -0.0095  0.1596
  151SAPE  H12R16717   4.388   0.915   7.843  0.2579  1.3114  0.9656
  151SAPE  C21316718   4.206   1.026   7.776 -0.2232 -0.8621  0.1074
  151SAPE  H13R16719   4.139   0.949   7.819 -1.6379  0.0269 -0.4670
  151SAPE  H13S16720   4.157   1.046   7.678  0.2956  1.5060  0.2864
  151SAPE  C21416721   4.187   1.156   7.854 -0.3082  0.3226 -0.0672
  151SAPE  H14R16722   4.121   1.222   7.796  0.0900 -0.5857 -1.6012
  151SAPE  C21516723   4.226   1.185   7.977 -0.2618  0.5765  0.8730
  151SAPE  H15R16724   4.204   1.287   8.012 -3.2387 -0.5091  2.3382
  151SAPE  C21616725   4.304   1.098   8.083 -0.5254 -0.1337  0.1877
  151SAPE  H16R16726   4.383   1.157   8.134  1.9869 -0.3776 -3.2431
  151SAPE  H16S16727   4.355   1.017   8.026  1.2158  1.6099 -0.7783
  151SAPE  C21716728   4.217   1.031   8.193  0.2686  0.3198 -0.3436
  151SAPE  H17R16729   4.256   0.928   8.207 -0.8376  0.2585  2.4529
  151SAPE  H17S16730   4.113   1.023   8.154  1.0944  1.4550 -2.9296
  151SAPE  C21816731   4.229   1.091   8.333  0.8905 -0.5959 -0.1510
  151SAPE  H18R16732   4.175   1.188   8.333 -1.5538 -1.9179  0.0991
  151SAPE  H18S16733   4.337   1.105   8.351  0.6537  1.3698 -0.1233
  151SAPE  C21916734   4.183   1.002   8.450  0.0646 -0.3280 -0.2947
  151SAPE  H19R16735   4.209   0.895   8.430  0.0364 -0.4711  0.4185
  151SAPE  H19S16736   4.073   1.004   8.466  0.3632  3.4538  1.6812
  151SAPE  C22016737   4.256   1.025   8.582  0.2542  0.3411  0.1078
  151SAPE  H20R16738   4.205   1.114   8.625 -1.4890 -1.1404  1.1649
  151SAPE  H20S16739   4.234   0.939   8.650 -1.1704  0.9206  0.4033
  151SAPE  H20T16740   4.365   1.038   8.571  0.2871 -1.4030 -2.0588
  151SAPE   C3316741   3.756   2.022   7.022  0.2921 -0.3724 -0.7938
  151SAPE   H3X16742   3.683   2.100   7.051  0.3637 -1.1012  1.4339
  151SAPE   H3Y16743   3.853   2.059   7.063 -0.0181 -0.7324  0.2620
  151SAPE   C3416744   3.706   1.887   7.077 -0.0949  0.4113  0.5559
  151SAPE   H4X16745   3.726   1.805   7.004  0.7097 -0.0623  1.2955
  151SAPE   H4Y16746   3.595   1.890   7.077 -0.0823  0.9153  0.6786
  151SAPE   C3516747   3.760   1.855   7.211 -0.7338 -0.7286 -0.6914
  151SAPE   H5X16748   3.869   1.874   7.209 -1.0076  1.1896  0.9669
  151SAPE   H5Y16749   3.748   1.749   7.240  0.0569  0.1292  3.0746
  151SAPE   C3616750   3.715   1.943   7.327 -0.0929 -0.3797 -0.2799
  151SAPE   H6X16751   3.695   2.041   7.279  1.6336 -1.1394 -2.6799
  151SAPE   H6Y16752   3.807   1.956   7.389  0.1910 -0.0025 -0.7752
  151SAPE   C3716753   3.599   1.888   7.412  0.3664 -0.7168  0.4848
  151SAPE   H7X16754   3.619   1.783   7.443  0.0437 -1.1775 -0.8341
  151SAPE   H7Y16755   3.502   1.895   7.358  0.8326  1.0237 -0.1756
  151SAPE   C3816756   3.583   1.981   7.533 -0.4996  0.0243  0.8711
  151SAPE   H8X16757   3.568   2.076   7.477  0.4183 -0.8078 -0.8176
  151SAPE   H8Y16758   3.673   1.981   7.597 -0.6367  1.1105  1.0846
  151SAPE   C3916759   3.465   1.952   7.619  0.5095 -0.2717 -0.3569
  151SAPE   H9X16760   3.371   1.948   7.559 -0.3139 -1.1994  0.9665
  151SAPE   H9Y16761   3.461   2.038   7.689  2.9787  0.5259 -1.1345
  151SAPE  C31016762   3.474   1.818   7.698  0.3726  0.4770  0.2669
  151SAPE  H10X16763   3.570   1.805   7.753  1.2101  1.2407 -0.9710
  151SAPE  H10Y16764   3.467   1.738   7.621 -2.5047 -1.0781  2.0555
  151SAPE  C31116765   3.366   1.798   7.797 -0.4355 -0.2473 -0.0255
  151SAPE  H11X16766   3.359   1.692   7.827  3.1734 -1.0706 -1.8363
  151SAPE  H11Y16767   3.278   1.845   7.750  0.7509  1.8758 -0.2032
  151SAPE  C31216768   3.390   1.879   7.925 -0.6470 -0.3484  0.6159
  151SAPE  H12X16769   3.379   1.986   7.898  1.5189 -1.0987 -3.7491
  151SAPE  H12Y16770   3.497   1.871   7.952  0.0063 -1.1096 -1.9887
  151SAPE  C31316771   3.310   1.835   8.053 -0.2493  0.8074 -0.3627
  151SAPE  H13X16772   3.349   1.888   8.143  0.9981 -0.0818 -0.3567
  151SAPE  H13Y16773   3.326   1.729   8.081 -2.3754  0.5284 -0.1696
  151SAPE  C31416774   3.166   1.881   8.032 -0.2541  0.2285 -0.3614
  151SAPE  H14X16775   3.131   1.827   7.942 -0.1856  0.0123 -0.2576
  151SAPE  H14Y16776   3.160   1.990   8.012  2.1354  0.4844  0.2004
  151SAPE  C31516777   3.083   1.846   8.151  1.4631  0.0653  0.6837
  151SAPE  H15X16778   3.097   1.911   8.241 -0.7501  0.6152  0.6670
  151SAPE  H15Y16779   3.116   1.746   8.185 -1.0045 -0.6951  0.9284
  151SAPE  C31616780   2.934   1.859   8.123 -0.6953 -0.8052  0.0182
  151SAPE  H16X16781   2.900   1.781   8.051 -0.6410 -2.1990  1.4887
  151SAPE  H16Y16782   2.919   1.959   8.077 -0.6807 -1.0239 -0.4681
  151SAPE  C31716783   2.846   1.853   8.251  0.2443 -0.0268 -0.4987
  151SAPE  H17X16784   2.745   1.870   8.206  0.7302  0.5333 -1.4158
  151SAPE  H17Y16785   2.878   1.946   8.303 -1.1405 -0.1443  0.5870
  151SAPE  C31816786   2.865   1.730   8.338 -0.2860  0.6565  0.0922
  151SAPE  H18X16787   2.851   1.639   8.277 -0.3769  0.8617 -0.1936
  151SAPE  H18Y16788   2.801   1.731   8.429  3.5272  0.6493  2.9124
  151SAPE  H18Z16789   2.969   1.746   8.376 -0.2788  0.1292  0.2984
  152SAPE     N16790   0.351   5.247   6.461 -0.0417 -0.0408  0.0079
  152SAPE   HN116791   0.291   5.240   6.376 -1.5589 -1.0579  1.1229
  152SAPE   HN216792   0.280   5.267   6.535 -2.6199 -1.5542 -1.9359
  152SAPE   HN316793   0.411   5.331   6.448  2.9984 -2.1845 -0.2585
  152SAPE   C1216794   0.441   5.135   6.494  0.4446 -1.0299 -0.3028
  152SAPE  H12A16795   0.380   5.065   6.556 -0.6039  0.8354  0.8073
  152SAPE  H12B16796   0.532   5.169   6.547  0.2144 -0.2080 -0.4252
  152SAPE   C1116797   0.496   5.065   6.368  0.2199 -0.3939 -0.0047
  152SAPE  H11A16798   0.565   4.982   6.394  0.9626  0.3457  0.4447
  152SAPE  H11B16799   0.565   5.141   6.324 -0.8136 -0.4499 -1.7743
  152SAPE     P16800   0.359   4.882   6.238 -0.1238  0.4228  0.1158
  152SAPE   O1316801   0.220   4.860   6.195 -0.1376  0.1037 -0.1011
  152SAPE   O1416802   0.462   4.840   6.142 -0.0799 -0.6738 -0.7830
  152SAPE   O1216803   0.383   5.028   6.288 -0.1322 -0.2247  0.0736
  152SAPE   O1116804   0.381   4.801   6.376 -0.2657 -0.0361 -0.6231
  152SAPE    C116805   0.281   4.806   6.480 -0.9145  0.8163 -0.2462
  152SAPE    HA16806   0.249   4.911   6.494 -0.0614  1.3555 -2.1427
  152SAPE    HB16807   0.196   4.746   6.442 -0.9072  0.6510  0.0018
  152SAPE    C216808   0.349   4.755   6.610 -0.5663 -0.6009 -1.3235
  152SAPE    HS16809   0.439   4.818   6.625 -0.2100 -1.8243  2.0905
  152SAPE   O2116810   0.388   4.619   6.598 -0.3939  0.0381  0.4014
  152SAPE   C2116811   0.485   4.585   6.685 -0.6651 -0.1068 -0.0587
  152SAPE   O2216812   0.539   4.665   6.757 -0.0046 -0.2209  0.5191
  152SAPE   C2216813   0.503   4.431   6.689  0.3125  0.0766 -0.1306
  152SAPE   H2R16814   0.412   4.375   6.719  0.7762 -1.3332 -1.2529
  152SAPE   H2S16815   0.524   4.406   6.583 -2.1024 -1.3120 -0.3079
  152SAPE    C316816   0.240   4.783   6.720 -0.1843 -0.2213  0.2533
  152SAPE    HX16817   0.140   4.737   6.704  0.4574 -0.6163 -3.0953
  152SAPE    HY16818   0.218   4.892   6.721 -0.3779 -0.2634  0.4537
  152SAPE   O3116819   0.279   4.732   6.850  0.3300  0.2687  0.3252
  152SAPE   C3116820   0.327   4.821   6.939  0.0784 -0.2970 -0.6708
  152SAPE   O3216821   0.350   4.935   6.913 -0.3158 -0.3944 -0.1295
  152SAPE   C3216822   0.358   4.753   7.077  0.1336 -0.5402 -0.1276
  152SAPE   H2X16823   0.465   4.728   7.056  0.2831  0.4886 -0.6057
  152SAPE   H2Y16824   0.314   4.651   7.079 -0.2647 -0.3738 -0.4218
  152SAPE   C2316825   0.622   4.396   6.782  0.5518 -0.0275  0.0606
  152SAPE   H3R16826   0.696   4.478   6.794 -0.5921  0.7359  2.4018
  152SAPE   H3S16827   0.675   4.308   6.741  0.6725  0.7848 -1.5624
  152SAPE   C2416828   0.572   4.363   6.924  0.5069  0.1751  0.0643
  152SAPE   H4R16829   0.485   4.295   6.911 -0.1953  1.2026 -0.6683
  152SAPE   H4S16830   0.526   4.459   6.957 -0.0168  0.7119 -2.1227
  152SAPE   C2516831   0.676   4.288   7.007 -0.1039  0.2967  0.2895
  152SAPE   H5R16832   0.702   4.184   6.984 -0.6151  0.7094 -2.2965
  152SAPE   C2616833   0.751   4.350   7.101 -0.3976 -0.1122  0.7688
  152SAPE   H6R16834   0.838   4.304   7.151  1.6143  2.2361 -0.4601
  152SAPE   C2716835   0.743   4.484   7.155  0.1172 -0.6911  0.0039
  152SAPE   H7R16836   0.674   4.486   7.243  1.9414 -0.4207  1.4612
  152SAPE   H7S16837   0.689   4.531   7.070  0.3149 -0.1844  0.1539
  152SAPE   C2816838   0.874   4.562   7.171  0.1360 -0.4532  0.6289
  152SAPE   H8R16839   0.960   4.523   7.115  0.1845  0.2521  0.2140
  152SAPE   C2916840   0.882   4.675   7.241 -0.4462  0.3499 -0.1947
  152SAPE   H9R16841   0.969   4.738   7.220 -0.3684 -0.1128 -1.2822
  152SAPE  C21016842   0.762   4.739   7.299 -0.3197 -0.0756  0.7477
  152SAPE  H10R16843   0.719   4.664   7.368 -0.9142  0.5011  1.0180
  152SAPE  H10S16844   0.686   4.754   7.218  0.6223 -0.3023 -0.1873
  152SAPE  C21116845   0.797   4.860   7.381 -0.3759 -0.6628 -0.1346
  152SAPE  H11R16846   0.780   4.961   7.342  2.5221  0.4664  1.3888
  152SAPE  C21216847   0.859   4.860   7.500  0.6337 -0.5231  0.1390
  152SAPE  H12R16848   0.893   4.953   7.549 -0.1571  0.2037 -0.6897
  152SAPE  C21316849   0.888   4.736   7.586 -0.0065 -0.4889 -0.5258
  152SAPE  H13R16850   0.995   4.730   7.616 -0.7861 -0.5085  2.3260
  152SAPE  H13S16851   0.877   4.639   7.532  1.1524 -0.1282 -1.4343
  152SAPE  C21416852   0.814   4.720   7.717 -0.1878  0.0232  0.2135
  152SAPE  H14R16853   0.720   4.663   7.709  0.1558 -0.3123 -1.6665
  152SAPE  C21516854   0.843   4.787   7.835  0.5212  0.1747 -0.5201
  152SAPE  H15R16855   0.773   4.784   7.920 -1.0521 -3.1773 -1.8669
  152SAPE  C21616856   0.968   4.873   7.857  0.0744 -0.5806 -0.3947
  152SAPE  H16R16857   0.933   4.978   7.870 -2.4870 -1.1159 -2.4251
  152SAPE  H16S16858   1.031   4.885   7.767 -0.0747  0.9877 -0.3131
  152SAPE  C21716859   1.062   4.825   7.973  0.1746 -0.4266  0.0713
  152SAPE  H17R16860   1.151   4.892   7.976  0.1028 -0.2636 -1.0959
  152SAPE  H17S16861   1.094   4.720   7.958  3.5539  0.4325  0.7902
  152SAPE  C21816862   1.000   4.826   8.110 -0.2302  0.7200 -0.4466
  152SAPE  H18R16863   1.043   4.748   8.176  0.1234  0.2072 -1.2765
  152SAPE  H18S16864   0.890   4.811   8.104 -0.3731  1.3637  0.4670
  152SAPE  C21916865   1.010   4.958   8.184  0.5716 -0.0469 -0.0977
  152SAPE  H19R16866   0.955   5.026   8.115  0.2561 -1.3943 -1.1818
  152SAPE  H19S16867   1.118   4.984   8.180  0.7524 -1.0159 -2.3576
  152SAPE  C22016868   0.950   4.956   8.320  0.5746  0.0975  0.0311
  152SAPE  H20R16869   0.965   5.049   8.379 -0.4002 -0.3496  1.0119
  152SAPE  H20S16870   0.989   4.864   8.369 -0.5796 -0.5949 -0.3219
  152SAPE  H20T16871   0.841   4.934   8.313  0.5231 -0.0018  1.0079
  152SAPE   C3316872   0.351   4.848   7.198  0.5796  0.4417  0.2991
  152SAPE   H3X16873   0.245   4.884   7.201  0.0349 -1.2010  1.8771
  152SAPE   H3Y16874   0.411   4.940   7.182 -0.4614  1.2370  0.8781
  152SAPE   C3416875   0.382   4.788   7.333 -0.1194 -0.2585 -0.2920
  152SAPE   H4X16876   0.489   4.758   7.343 -0.5022 -1.6717 -0.2557
  152SAPE   H4Y16877   0.311   4.704   7.348  0.9472 -1.2961 -0.9352
  152SAPE   C3516878   0.367   4.881   7.453 -0.2250 -0.6540 -0.1353
  152SAPE   H5X16879   0.259   4.901   7.463  0.0120  1.0675 -0.9206
  152SAPE   H5Y16880   0.414   4.980   7.436  1.0324 -1.2942 -0.4498
  152SAPE   C3616881   0.437   4.821   7.579  0.4943  0.2260  0.2897
  152SAPE   H6X16882   0.545   4.817   7.557  0.8918  0.9964  2.0783
  152SAPE   H6Y16883   0.391   4.722   7.598  2.0213 -0.5593 -0.0704
  152SAPE   C3716884   0.414   4.896   7.709  0.1656 -0.0328  0.1208
  152SAPE   H7X16885   0.411   4.822   7.792  1.6582  1.2731  1.3776
  152SAPE   H7Y16886   0.314   4.944   7.709  0.5534  0.8009  0.6149
  152SAPE   C3816887   0.521   4.998   7.747  0.2265  0.2212 -0.4548
  152SAPE   H8X16888   0.504   5.094   7.695 -0.7465 -0.4726 -1.4385
  152SAPE   H8Y16889   0.616   4.967   7.698 -0.1448 -2.4851  0.4445
  152SAPE   C3916890   0.552   5.027   7.894 -0.4017  0.9972 -0.4142
  152SAPE   H9X16891   0.591   4.937   7.945 -1.7480  0.1285 -0.8684
  152SAPE   H9Y16892   0.454   5.055   7.939 -1.4439 -0.9565 -1.4235
  152SAPE  C31016893   0.639   5.152   7.915  0.3565  0.5018 -0.0488
  152SAPE  H10X16894   0.584   5.241   7.879 -1.5026 -1.0278 -1.1361
  152SAPE  H10Y16895   0.718   5.153   7.837  1.9969  2.5180  1.5869
  152SAPE  C31116896   0.688   5.166   8.060 -0.3229  0.8374 -0.4429
  152SAPE  H11X16897   0.724   5.067   8.093 -2.2799 -0.3068 -1.6307
  152SAPE  H11Y16898   0.600   5.198   8.119 -1.9608 -1.5543 -1.5171
  152SAPE  C31216899   0.798   5.275   8.064 -1.0750 -0.1592  0.5032
  152SAPE  H12X16900   0.763   5.377   8.039 -0.2439  1.3005  4.8451
  152SAPE  H12Y16901   0.871   5.255   7.983  0.8413  2.2716  1.5901
  152SAPE  C31316902   0.863   5.299   8.195  0.3779  0.4077 -0.2142
  152SAPE  H13X16903   0.923   5.393   8.196  0.7601  0.1786  2.6135
  152SAPE  H13Y16904   0.938   5.220   8.217  0.3551  0.3546 -0.3244
  152SAPE  C31416905   0.766   5.303   8.313  0.0574  0.2593  0.2588
  152SAPE  H14X16906   0.717   5.204   8.324  0.8173  0.0141  1.6328
  152SAPE  H14Y16907   0.699   5.390   8.296 -2.0116 -1.4070 -0.2997
  152SAPE  C31516908   0.840   5.330   8.452  0.7074 -1.0854  0.1860
  152SAPE  H15X16909   0.885   5.431   8.440  1.6000 -1.5209 -0.1727
  152SAPE  H15Y16910   0.921   5.255   8.468  0.6371 -1.4796 -1.2885
  152SAPE  C31616911   0.738   5.314   8.564 -0.2682  0.0267  0.7931
  152SAPE  H16X16912   0.724   5.204   8.568  1.8439 -0.3374 -0.7695
  152SAPE  H16Y16913   0.645   5.363   8.530  0.0495  0.5340  0.6419
  152SAPE  C31716914   0.781   5.383   8.694  0.0979  0.4708  0.3311
  152SAPE  H17X16915   0.796   5.486   8.655 -1.1444  0.3194 -0.5895
  152SAPE  H17Y16916   0.880   5.341   8.722 -0.1942 -0.4851 -0.0666
  152SAPE  C31816917   0.671   5.387   8.793  0.3905 -0.1878  0.3721
  152SAPE  H18X16918   0.631   5.288   8.825 -3.9028  2.1450  2.8151
  152SAPE  H18Y16919   0.580   5.440   8.758  0.7366  0.9493  1.1669
  152SAPE  H18Z16920   0.701   5.428   8.892  0.7144  1.3642 -0.3616
  153SAPE     N16921   4.273   5.410   6.102  0.1520  0.0730  0.5898
  153SAPE   HN116922   4.311   5.340   6.035  0.0920  0.5928  0.0105
  153SAPE   HN216923   4.355   5.465   6.136 -0.1766  0.4577  0.7564
  153SAPE   HN316924   4.229   5.364   6.184 -1.4382  2.5306  1.1874
  153SAPE   C1216925   4.168   5.502   6.045  0.7416  0.1733  0.0820
  153SAPE  H12A16926   4.118   5.443   5.967  2.6517 -2.7580  0.9844
  153SAPE  H12B16927   4.223   5.591   6.007  2.1602 -1.1578 -1.0629
  153SAPE   C1116928   4.081   5.555   6.162 -0.0138  0.0284  0.3327
  153SAPE  H11A16929   4.027   5.467   6.203 -2.5265  1.0800 -0.6393
  153SAPE  H11B16930   4.004   5.616   6.110  1.2519  0.7223 -0.7476
  153SAPE     P16931   4.072   5.690   6.378 -0.1527 -0.2980 -0.2600
  153SAPE   O1316932   4.076   5.834   6.348 -0.4583  0.3889 -0.2757
  153SAPE   O1416933   3.938   5.631   6.384 -0.3363  0.3896  0.3284
  153SAPE   O1216934   4.163   5.619   6.259  0.1169 -0.2530 -0.4877
  153SAPE   O1116935   4.158   5.660   6.507  0.4667  0.4160 -0.0526
  153SAPE    C116936   4.211   5.535   6.545 -0.5145 -0.4634 -0.6942
  153SAPE    HA16937   4.255   5.476   6.461  0.2475  0.7803 -1.1807
  153SAPE    HB16938   4.298   5.556   6.611 -1.2090 -1.4601  0.5554
  153SAPE    C216939   4.114   5.443   6.615  0.8319  0.4018  0.2644
  153SAPE    HS16940   4.041   5.417   6.535  0.3753 -2.6699  1.6214
  153SAPE   O2116941   4.043   5.512   6.714 -0.5945  0.1112  0.4756
  153SAPE   C2116942   3.918   5.488   6.743 -0.0151 -0.0680 -0.0762
  153SAPE   O2216943   3.846   5.395   6.703 -0.3805  0.5179 -0.6409
  153SAPE   C2216944   3.871   5.595   6.839 -0.2909  0.2790 -0.6206
  153SAPE   H2R16945   3.837   5.681   6.779 -0.6112  1.3746  1.1039
  153SAPE   H2S16946   3.776   5.561   6.886 -0.1444 -0.4438 -0.8371
  153SAPE    C316947   4.187   5.312   6.674 -0.5341 -0.5412 -0.8507
  153SAPE    HX16948   4.259   5.343   6.754  1.2296  1.9441 -3.2779
  153SAPE    HY16949   4.263   5.267   6.606 -0.2761 -2.8137  0.8698
  153SAPE   O3116950   4.101   5.209   6.722  0.6778  0.0363  0.0770
  153SAPE   C3116951   4.041   5.126   6.632 -0.1123  0.4217  0.4385
  153SAPE   O3216952   4.060   5.119   6.513  0.7433 -0.4797 -0.0267
  153SAPE   C3216953   3.943   5.024   6.690  0.3703  0.5341  0.0667
  153SAPE   H2X16954   4.003   4.933   6.713 -3.0063 -1.3590  1.8295
  153SAPE   H2Y16955   3.874   5.002   6.606 -0.7415  0.1528  1.0670
  153SAPE   C2316956   3.976   5.632   6.943  0.5827 -0.2039  0.2019
  153SAPE   H3R16957   3.932   5.707   7.012  0.0127 -1.5935  1.3751
  153SAPE   H3S16958   4.065   5.677   6.893  0.4619  1.8897  1.7934
  153SAPE   C2416959   4.028   5.515   7.027 -0.4424 -1.2094 -0.1381
  153SAPE   H4R16960   4.100   5.553   7.103  0.2925  0.2059 -1.4838
  153SAPE   H4S16961   4.089   5.456   6.956 -1.3275  1.5177 -3.3066
  153SAPE   C2516962   3.933   5.428   7.090  0.3075 -0.4049  0.2319
  153SAPE   H5R16963   3.894   5.347   7.026 -0.4176  0.4294 -0.4019
  153SAPE   C2616964   3.882   5.425   7.213 -0.2389  0.7663  0.3420
  153SAPE   H6R16965   3.815   5.343   7.243 -1.5888  1.3405 -1.0730
  153SAPE   C2716966   3.910   5.526   7.318  0.2892  1.1971 -0.2877
  153SAPE   H7R16967   4.017   5.555   7.324  0.2158  1.1294  2.1971
  153SAPE   H7S16968   3.893   5.461   7.407 -0.7028  1.2073 -0.4708
  153SAPE   C2816969   3.821   5.648   7.297 -0.0936 -0.4154  0.5912
  153SAPE   H8R16970   3.781   5.670   7.197  1.4311 -0.4933 -0.0624
  153SAPE   C2916971   3.794   5.735   7.397  0.8042  0.2124  0.1722
  153SAPE   H9R16972   3.741   5.828   7.376  0.1439 -0.0814  0.5058
  153SAPE  C21016973   3.823   5.722   7.542 -0.6623 -0.5324  1.2092
  153SAPE  H10R16974   3.872   5.623   7.553  0.5137 -0.1014 -0.0753
  153SAPE  H10S16975   3.734   5.726   7.608 -0.1297  0.2487  1.8956
  153SAPE  C21116976   3.915   5.828   7.580  0.7536 -0.4518  0.1695
  153SAPE  H11R16977   4.013   5.830   7.530  1.5573  1.4001  1.7605
  153SAPE  C21216978   3.894   5.930   7.671  0.1581 -0.3358  0.8190
  153SAPE  H12R16979   3.977   6.001   7.689 -0.2107  0.5398 -0.8537
  153SAPE  C21316980   3.776   5.932   7.769  0.4514  0.1747  0.3055
  153SAPE  H13R16981   3.772   5.843   7.834  0.9425  1.0550  1.5644
  153SAPE  H13S16982   3.679   5.934   7.715 -0.6133  2.2588  2.1834
  153SAPE  C21416983   3.776   6.051   7.867  0.0687  0.1998  0.0029
  153SAPE  H14R16984   3.709   6.132   7.834  0.1882  0.7109  1.0103
  153SAPE  C21516985   3.857   6.065   7.976  0.3453  0.1788 -0.7514
  153SAPE  H15R16986   3.847   6.158   8.035 -0.7690  0.4981 -1.4295
  153SAPE  C21616987   3.959   5.971   8.029  0.4395  0.0854 -0.2997
  153SAPE  H16R16988   4.055   6.004   7.985 -0.3525 -1.8457 -3.6245
  153SAPE  H16S16989   3.955   5.869   7.985  1.8052 -1.7016  3.4771
  153SAPE  C21716990   3.974   5.954   8.179  0.2242 -0.2457  0.2106
  153SAPE  H17R16991   3.879   5.911   8.218 -1.0492  2.4150  0.1532
  153SAPE  H17S16992   4.000   6.050   8.230  2.5346 -1.7705  2.0407
  153SAPE  C21816993   4.090   5.870   8.214  0.2588  0.9766 -0.0806
  153SAPE  H18R16994   4.104   5.854   8.323  1.7927  0.5620 -0.3114
  153SAPE  H18S16995   4.188   5.912   8.182 -0.0546 -0.1769 -2.6536
  153SAPE  C21916996   4.087   5.725   8.158 -0.1399 -0.9524  0.2108
  153SAPE  H19R16997   4.096   5.728   8.047  1.5098  3.3044  0.3787
  153SAPE  H19S16998   3.992   5.675   8.189 -1.1140 -0.3184 -1.6911
  153SAPE  C22016999   4.193   5.636   8.220  0.1235 -0.2969 -0.4650
  153SAPE  H20R17000   4.174   5.606   8.325 -0.7334  0.7837 -0.3051
  153SAPE  H20S17001   4.282   5.700   8.205  0.5859 -0.7395  0.3670
  153SAPE  H20T17002   4.211   5.545   8.159  0.9851 -1.4946  1.5416
  153SAPE   C3317003   3.857   5.065   6.810 -0.5457 -0.1566  0.3659
  153SAPE   H3X17004   3.765   5.003   6.815 -0.3243 -0.5278 -0.0618
  153SAPE   H3Y17005   3.819   5.169   6.800  0.6372  0.2278 -0.3323
  153SAPE   C3417006   3.927   5.047   6.951 -0.0396 -0.2766  0.7963
  153SAPE   H4X17007   4.010   5.119   6.961  0.1563 -0.5368  1.0531
  153SAPE   H4Y17008   3.980   4.950   6.945  1.2531  0.5499 -2.3424
  153SAPE   C3517009   3.831   5.071   7.070  0.4359  0.4732  0.4451
  153SAPE   H5X17010   3.738   5.011   7.058 -0.5063  1.4894  2.4744
  153SAPE   H5Y17011   3.798   5.177   7.072 -0.6363  0.1959 -1.4299
  153SAPE   C3617012   3.884   5.046   7.208  0.4103 -0.0297  0.3824
  153SAPE   H6X17013   3.971   5.107   7.240  0.2888  0.6077 -0.4914
  153SAPE   H6Y17014   3.926   4.944   7.210  0.1865 -0.1153  0.8315
  153SAPE   C3717015   3.782   5.058   7.326 -0.1857  0.3966 -0.5776
  153SAPE   H7X17016   3.702   4.983   7.311  1.4034 -1.0758 -1.8628
  153SAPE   H7Y17017   3.734   5.158   7.332  1.2180  1.0183  0.3731
  153SAPE   C3817018   3.852   5.009   7.457  0.2909 -0.3118 -0.1173
  153SAPE   H8X17019   3.911   5.089   7.505  0.6491  0.4404 -1.7918
  153SAPE   H8Y17020   3.913   4.920   7.432  2.8174  1.6245 -0.9964
  153SAPE   C3917021   3.743   4.967   7.562 -0.5252 -0.0272  0.1593
  153SAPE   H9X17022   3.685   4.878   7.529 -0.1644  1.4993 -5.0034
  153SAPE   H9Y17023   3.672   5.052   7.569 -1.2418 -0.6580  0.6944
  153SAPE  C31017024   3.812   4.954   7.704 -0.1538  0.4813  0.2378
  153SAPE  H10X17025   3.855   5.053   7.728 -0.3438  0.8172 -0.7557
  153SAPE  H10Y17026   3.901   4.888   7.708  0.9467  1.9603  0.5635
  153SAPE  C31117027   3.711   4.920   7.813  0.8120 -0.1988  0.4581
  153SAPE  H11X17028   3.767   4.880   7.901 -1.4928 -2.2586  1.0466
  153SAPE  H11Y17029   3.642   4.839   7.781  0.5694  0.0583  0.3310
  153SAPE  C31217030   3.631   5.046   7.874 -0.2113  0.0182 -0.2291
  153SAPE  H12X17031   3.570   5.099   7.799 -0.0832  0.4992  0.0072
  153SAPE  H12Y17032   3.703   5.121   7.915 -1.3706  0.2762  1.3990
  153SAPE  C31317033   3.547   4.996   7.997 -0.6422 -0.5300 -0.0753
  153SAPE  H13X17034   3.610   4.955   8.078  0.9601 -2.8778 -2.4592
  153SAPE  H13Y17035   3.496   4.904   7.961  0.3203 -0.7703 -0.8214
  153SAPE  C31417036   3.453   5.098   8.064  0.2387  0.1994  0.2933
  153SAPE  H14X17037   3.499   5.200   8.065  0.7866 -0.0433 -0.0780
  153SAPE  H14Y17038   3.442   5.074   8.172 -1.8238  1.8138  0.4819
  153SAPE  C31517039   3.313   5.098   8.002 -0.4108 -0.5760 -0.4312
  153SAPE  H15X17040   3.254   5.147   8.081  0.7921  0.4537 -0.1513
  153SAPE  H15Y17041   3.279   4.993   7.986 -1.9584  0.0789 -1.5896
  153SAPE  C31617042   3.286   5.182   7.877  0.6894 -0.5955 -0.8262
  153SAPE  H16X17043   3.322   5.150   7.776  0.4719 -1.3776 -0.6554
  153SAPE  H16Y17044   3.323   5.285   7.894 -0.0013 -0.3194 -0.9612
  153SAPE  C31717045   3.133   5.192   7.852 -0.3546 -0.0056  0.4548
  153SAPE  H17X17046   3.124   5.258   7.763  3.3870 -0.8617 -0.6437
  153SAPE  H17Y17047   3.079   5.244   7.933 -0.7195  2.4894 -1.3300
  153SAPE  C31817048   3.062   5.057   7.834  0.2267 -0.1369 -0.4654
  153SAPE  H18X17049   2.963   5.059   7.785 -0.9241  1.3456  1.8412
  153SAPE  H18Y17050   3.047   5.014   7.936  0.0942  0.4918 -0.2182
  153SAPE  H18Z17051   3.120   4.981   7.776  3.5065  0.8595  1.3918
  154SAPE     N17052   2.145   4.729   6.234 -0.6263 -0.6619 -0.2229
  154SAPE   HN117053   2.175   4.824   6.205 -3.7832  0.2798 -0.6724
  154SAPE   HN217054   2.222   4.668   6.202  1.5522  2.1949 -0.5929
  154SAPE   HN317055   2.063   4.723   6.169 -1.4046  0.1144  0.6651
  154SAPE   C1217056   2.115   4.704   6.386 -0.2629  1.0203  0.4035
  154SAPE  H12A17057   2.050   4.789   6.415 -1.6034  0.2448 -0.3097
  154SAPE  H12B17058   2.210   4.708   6.443  1.4814 -1.0950 -2.2211
  154SAPE   C1117059   2.054   4.567   6.395  0.1530  0.5479 -0.1863
  154SAPE  H11A17060   2.042   4.529   6.498  0.5447  2.0458  0.4233
  154SAPE  H11B17061   2.135   4.502   6.354 -0.8665 -0.8767  0.0544
  154SAPE     P17062   1.878   4.415   6.266 -0.4605  0.2525  0.2024
  154SAPE   O1317063   1.730   4.413   6.261  0.1028  0.3475 -0.6873
  154SAPE   O1417064   1.938   4.401   6.132 -0.2575 -0.4717  0.2002
  154SAPE   O1217065   1.927   4.553   6.327 -0.0936 -0.1663 -0.1150
  154SAPE   O1117066   1.946   4.301   6.355  0.0894  0.5486 -0.3188
  154SAPE    C117067   1.894   4.168   6.357 -0.1576 -0.3147  0.5216
  154SAPE    HA17068   1.864   4.138   6.255 -2.6358 -0.3205  1.2159
  154SAPE    HB17069   1.979   4.101   6.379  1.5849  0.9816 -2.0626
  154SAPE    C217070   1.780   4.142   6.455 -0.1988  0.1295  0.0715
  154SAPE    HS17071   1.691   4.205   6.435  1.1822  2.1268  0.0410
  154SAPE   O2117072   1.831   4.161   6.588  0.3319  0.0185 -0.1757
  154SAPE   C2117073   1.808   4.285   6.644  0.0370  0.2211  0.2947
  154SAPE   O2217074   1.753   4.380   6.589 -0.4743  0.2862  0.0855
  154SAPE   C2217075   1.857   4.285   6.784 -0.5527 -0.8094 -0.1029
  154SAPE   H2R17076   1.826   4.194   6.839  0.3603 -0.5652  0.8416
  154SAPE   H2S17077   1.968   4.281   6.786 -0.4858  0.0216 -1.2807
  154SAPE    C317078   1.725   3.996   6.445  0.0266  0.1335  0.0352
  154SAPE    HX17079   1.817   3.942   6.477 -0.1285 -0.8158 -1.0956
  154SAPE    HY17080   1.701   3.963   6.342 -2.1476  0.5164  0.3914
  154SAPE   O3117081   1.617   3.968   6.533 -0.4114 -0.1432  0.1137
  154SAPE   C3117082   1.592   3.832   6.540  0.4960  0.3055 -0.5181
  154SAPE   O3217083   1.644   3.747   6.471  0.1336  0.6118 -0.6395
  154SAPE   C3217084   1.497   3.806   6.664  0.2372 -0.2947  0.4798
  154SAPE   H2X17085   1.394   3.791   6.626  1.3947 -0.1714 -2.8419
  154SAPE   H2Y17086   1.500   3.902   6.721  0.2690  0.2020 -0.3481
  154SAPE   C2317087   1.819   4.418   6.851  0.4283 -0.3277  0.7479
  154SAPE   H3R17088   1.708   4.425   6.863  0.4130 -0.0737  0.4646
  154SAPE   H3S17089   1.855   4.498   6.783 -3.6106  0.2080 -0.9668
  154SAPE   C2417090   1.884   4.442   6.992  0.3731  0.5217  0.1990
  154SAPE   H4R17091   1.885   4.550   7.020 -3.2506  0.0598  2.3831
  154SAPE   H4S17092   1.992   4.418   6.981 -0.0666 -0.5893 -1.9681
  154SAPE   C2517093   1.814   4.375   7.115  0.0360  1.2903  0.5740
  154SAPE   H5R17094   1.711   4.339   7.096 -0.6224  2.3534  2.0844
  154SAPE   C2617095   1.872   4.360   7.239  0.3748 -0.1567  0.6885
  154SAPE   H6R17096   1.827   4.295   7.316 -1.3316  0.2531  0.0635
  154SAPE   C2717097   2.006   4.416   7.278  0.0589 -0.4834  0.3451
  154SAPE   H7R17098   2.037   4.505   7.218 -0.4059  0.1417  1.0188
  154SAPE   H7S17099   2.091   4.345   7.288  0.2489 -0.0610  1.8430
  154SAPE   C2817100   1.984   4.466   7.418  0.9496  0.2276 -0.1862
  154SAPE   H8R17101   1.946   4.569   7.419 -0.6176 -0.3175 -0.9598
  154SAPE   C2917102   2.010   4.417   7.541  0.3117 -0.1482 -0.0660
  154SAPE   H9R17103   1.982   4.483   7.625 -0.2099 -0.2056 -0.1938
  154SAPE  C21017104   2.065   4.283   7.584  0.4155  0.3637  0.1704
  154SAPE  H10R17105   2.125   4.283   7.678 -0.7811  1.1106  0.9624
  154SAPE  H10S17106   2.147   4.261   7.512 -1.0294  2.5639 -2.2495
  154SAPE  C21117107   1.962   4.173   7.562 -0.5942  0.9444  0.3092
  154SAPE  H11R17108   1.929   4.144   7.461  0.1478 -0.1703  0.3728
  154SAPE  C21217109   1.919   4.085   7.658  0.2912  0.7932 -0.4834
  154SAPE  H12R17110   1.840   4.009   7.647 -1.1623  2.3721 -1.1069
  154SAPE  C21317111   1.954   4.088   7.804 -0.1653 -0.4599  0.3001
  154SAPE  H13R17112   2.060   4.100   7.833 -0.8427  0.1294  2.6763
  154SAPE  H13S17113   1.918   3.990   7.843  1.5969 -1.8714 -1.5468
  154SAPE  C21417114   1.858   4.186   7.871 -0.3242  0.3819 -0.7463
  154SAPE  H14R17115   1.782   4.229   7.803 -0.0857 -0.7643 -1.7592
  154SAPE  C21517116   1.864   4.231   8.000 -0.4266  0.5110 -0.1193
  154SAPE  H15R17117   1.789   4.302   8.036 -0.9349  0.2846 -0.7204
  154SAPE  C21617118   1.971   4.191   8.102  0.3924 -0.0096  0.2210
  154SAPE  H16R17119   2.040   4.277   8.117  0.9743 -0.4243 -0.0775
  154SAPE  H16S17120   2.028   4.110   8.051 -2.9474 -0.1989 -3.4425
  154SAPE  C21717121   1.909   4.150   8.236  0.3477  0.0242 -0.3564
  154SAPE  H17R17122   1.840   4.224   8.283  0.3808 -0.2753  0.1716
  154SAPE  H17S17123   2.003   4.139   8.294 -0.5853 -1.9465  0.8499
  154SAPE  C21817124   1.847   4.006   8.233  0.1947 -0.3957 -0.1804
  154SAPE  H18R17125   1.928   3.936   8.202  1.0028  0.0017  0.9684
  154SAPE  H18S17126   1.781   3.981   8.148  0.0021 -0.0628 -0.1254
  154SAPE  C21917127   1.805   3.956   8.371 -0.6573  0.4519  0.4994
  154SAPE  H19R17128   1.886   3.987   8.441  1.0505  0.7535 -1.5564
  154SAPE  H19S17129   1.794   3.846   8.371 -1.4016  0.5149 -1.7105
  154SAPE  C22017130   1.672   4.007   8.419  0.3994 -0.0127 -0.4364
  154SAPE  H20R17131   1.666   4.111   8.382 -1.2214  0.2685  0.5764
  154SAPE  H20S17132   1.648   3.998   8.527 -1.9978  0.1343 -0.9432
  154SAPE  H20T17133   1.591   3.951   8.369  0.0821 -0.1901  0.2688
  154SAPE   C3317134   1.531   3.691   6.765  0.3815 -0.3185  0.3002
  154SAPE   H3X17135   1.631   3.653   6.735  0.4531  0.1016 -0.0089
  154SAPE   H3Y17136   1.447   3.624   6.739 -0.1112 -0.4025  2.0964
  154SAPE   C3417137   1.531   3.727   6.915  0.0316  0.4481  0.3519
  154SAPE   H4X17138   1.594   3.818   6.929  1.0276  0.5446 -4.1060
  154SAPE   H4Y17139   1.574   3.640   6.969  1.1375  0.4942 -0.4497
  154SAPE   C3517140   1.392   3.755   6.976 -0.2724 -0.4149  0.0763
  154SAPE   H5X17141   1.320   3.673   6.960  0.2678 -0.6771 -1.0759
  154SAPE   H5Y17142   1.356   3.851   6.933 -0.1948  0.4774  1.9082
  154SAPE   C3617143   1.405   3.773   7.127 -0.0456  0.5255 -0.0630
  154SAPE   H6X17144   1.308   3.804   7.172  0.2449 -0.7755  1.5141
  154SAPE   H6Y17145   1.478   3.851   7.155  1.0187 -0.2637 -0.5822
  154SAPE   C3717146   1.441   3.647   7.214  0.0999 -0.0670 -0.5246
  154SAPE   H7X17147   1.529   3.598   7.168 -0.7479 -2.3190  0.1959
  154SAPE   H7Y17148   1.356   3.577   7.199 -0.8232  0.9827 -0.2695
  154SAPE   C3817149   1.465   3.697   7.361  0.0441  0.1038  0.3459
  154SAPE   H8X17150   1.539   3.779   7.355 -0.5135  0.5407 -0.6404
  154SAPE   H8Y17151   1.524   3.620   7.416  0.5595 -0.7417 -1.3571
  154SAPE   C3917152   1.341   3.732   7.443 -0.0073 -0.1763  0.0231
  154SAPE   H9X17153   1.251   3.672   7.417 -0.3189  0.6928 -0.9465
  154SAPE   H9Y17154   1.299   3.831   7.415  0.5055  0.0493  0.0528
  154SAPE  C31017155   1.372   3.735   7.594  0.4605 -1.0056  0.1774
  154SAPE  H10X17156   1.455   3.802   7.625 -0.5157  0.5835 -0.6347
  154SAPE  H10Y17157   1.401   3.631   7.621  1.0242 -0.6374  1.0281
  154SAPE  C31117158   1.255   3.788   7.681 -0.0943  0.1242  0.7616
  154SAPE  H11X17159   1.160   3.742   7.646  1.9175 -2.7440 -1.1335
  154SAPE  H11Y17160   1.245   3.896   7.657 -0.7417 -0.1870 -0.4067
  154SAPE  C31217161   1.268   3.752   7.832 -0.5382 -0.0095 -0.0673
  154SAPE  H12X17162   1.353   3.810   7.873 -1.0707 -1.3087  3.0011
  154SAPE  H12Y17163   1.285   3.643   7.848 -0.0018  0.1910  0.7645
  154SAPE  C31317164   1.146   3.778   7.930 -0.8178  0.0487 -0.6534
  154SAPE  H13X17165   1.061   3.708   7.916  0.5533 -1.4257 -1.8064
  154SAPE  H13Y17166   1.112   3.882   7.909  0.3007  1.2178  3.0147
  154SAPE  C31417167   1.185   3.773   8.077 -0.0371 -0.1017  0.7339
  154SAPE  H14X17168   1.259   3.856   8.084  0.6818 -0.4664 -1.8201
  154SAPE  H14Y17169   1.227   3.671   8.091  0.7043  0.0769 -0.1382
  154SAPE  C31517170   1.090   3.803   8.187 -0.6231 -0.0088  0.2457
  154SAPE  H15X17171   1.054   3.905   8.164  1.4273  0.2333 -2.0868
  154SAPE  H15Y17172   1.126   3.803   8.292  2.5635  0.1785 -0.7793
  154SAPE  C31617173   0.971   3.707   8.189  0.1768  0.0945  0.4497
  154SAPE  H16X17174   1.006   3.602   8.183 -1.2658 -0.2972 -1.6597
  154SAPE  H16Y17175   0.913   3.710   8.094  2.0035 -0.5827 -0.7164
  154SAPE  C31717176   0.886   3.719   8.314 -0.2494 -0.5656 -1.0252
  154SAPE  H17X17177   0.829   3.812   8.297 -1.7852 -1.3293 -0.1048
  154SAPE  H17Y17178   0.953   3.748   8.398 -0.7209 -0.0131 -0.8402
  154SAPE  C31817179   0.786   3.603   8.350  0.2737  0.1342 -0.3266
  154SAPE  H18X17180   0.697   3.605   8.283  0.9795 -1.3733 -1.3217
  154SAPE  H18Y17181   0.763   3.610   8.459 -4.0847  0.0451 -1.1619
  154SAPE  H18Z17182   0.849   3.512   8.343 -0.1482 -0.0298 -2.3611
  155SAPE     N17183   1.559   4.801   6.289  0.4974  0.1369 -0.0510
  155SAPE   HN117184   1.590   4.736   6.215  2.4404 -0.1189  0.9430
  155SAPE   HN217185   1.497   4.744   6.350 -0.3005 -1.0039 -1.9040
  155SAPE   HN317186   1.495   4.864   6.237 -0.4836  0.2934  1.3098
  155SAPE   C1217187   1.669   4.875   6.358 -0.5819  0.8056  0.8382
  155SAPE  H12A17188   1.746   4.798   6.382 -1.4750 -1.0321 -1.9047
  155SAPE  H12B17189   1.630   4.910   6.456 -1.7378  1.3795  0.1724
  155SAPE   C1117190   1.736   4.965   6.256  0.5427 -0.1011  0.3587
  155SAPE  H11A17191   1.662   5.025   6.199  0.7046  0.1122  0.3716
  155SAPE  H11B17192   1.781   4.899   6.179  0.4054 -3.4215  2.9785
  155SAPE     P17193   1.853   5.192   6.320 -0.0110  0.2403  0.0662
  155SAPE   O1317194   1.869   5.231   6.181 -0.0583  0.3019  0.4980
  155SAPE   O1417195   1.749   5.251   6.401  0.0729 -0.5780 -0.9730
  155SAPE   O1217196   1.844   5.035   6.323  0.2172 -0.9138 -0.0064
  155SAPE   O1117197   1.990   5.222   6.390  0.6256  0.2899  0.4196
  155SAPE    C117198   2.076   5.131   6.457  0.6050  0.3437 -0.2186
  155SAPE    HA17199   2.062   5.025   6.430  0.1532 -0.3976  2.7811
  155SAPE    HB17200   2.184   5.143   6.434  1.0744 -2.5834  0.2658
  155SAPE    C217201   2.084   5.148   6.606 -0.2595 -0.4426  0.0461
  155SAPE    HS17202   2.184   5.112   6.637 -0.4182  1.6266  3.1926
  155SAPE   O2117203   1.980   5.068   6.669  0.0915 -0.0071  0.3826
  155SAPE   C2117204   2.011   4.944   6.673 -0.9149  0.8848 -0.1568
  155SAPE   O2217205   2.118   4.896   6.630  0.9323 -0.3750  0.6711
  155SAPE   C2217206   1.905   4.868   6.749 -0.0026  0.5842  0.2835
  155SAPE   H2R17207   1.822   4.940   6.766  0.9395  1.7713 -0.1309
  155SAPE   H2S17208   1.856   4.791   6.685  0.3503 -0.9090  1.7933
  155SAPE    C317209   2.085   5.297   6.660 -0.0101 -0.1396 -0.7240
  155SAPE    HX17210   1.986   5.337   6.629 -0.0697 -0.9674 -1.6483
  155SAPE    HY17211   2.172   5.350   6.616  0.4234 -0.8182 -0.6967
  155SAPE   O3117212   2.095   5.295   6.806 -0.3500 -0.2405 -0.7306
  155SAPE   C3117213   2.073   5.413   6.853 -0.0522 -0.3498  0.3211
  155SAPE   O3217214   2.064   5.514   6.786 -0.1986 -0.5593  0.0891
  155SAPE   C3217215   2.047   5.419   7.002 -0.1386  0.0120 -0.8423
  155SAPE   H2X17216   1.946   5.379   7.024  0.3246 -1.3521 -1.1854
  155SAPE   H2Y17217   2.060   5.518   7.051  0.2466  0.0614 -1.0438
  155SAPE   C2317218   1.967   4.797   6.873  0.0730  0.0649  0.7374
  155SAPE   H3R17219   2.056   4.737   6.842  0.3300  1.1463 -0.6640
  155SAPE   H3S17220   1.883   4.735   6.910 -0.8618  0.7026 -0.2997
  155SAPE   C2417221   2.001   4.887   6.992  0.0658  0.4058  0.7104
  155SAPE   H4R17222   2.073   4.965   6.958  1.0994 -1.6480 -2.0549
  155SAPE   H4S17223   2.057   4.825   7.065  1.7638 -0.8908 -1.6272
  155SAPE   C2517224   1.881   4.962   7.052 -0.4617  0.7760  0.6943
  155SAPE   H5R17225   1.839   5.032   6.978  1.9468 -1.0385 -2.4806
  155SAPE   C2617226   1.831   4.955   7.177  0.4302 -0.3406 -0.5800
  155SAPE   H6R17227   1.759   5.036   7.194  1.5676  0.6224 -0.2663
  155SAPE   C2717228   1.889   4.866   7.291  0.1369  0.0902  0.0756
  155SAPE   H7R17229   1.923   4.770   7.247 -2.8631 -0.5871 -0.9293
  155SAPE   H7S17230   1.805   4.826   7.352  0.7243  1.0240  1.5111
  155SAPE   C2817231   1.997   4.941   7.367  0.7021  0.3831  0.7232
  155SAPE   H8R17232   2.066   4.993   7.299 -0.4433  0.1192 -0.6743
  155SAPE   C2917233   2.010   4.945   7.501 -0.0316  0.9272  0.2272
  155SAPE   H9R17234   2.104   4.995   7.530  0.6273  0.0915 -0.4553
  155SAPE  C21017235   1.928   4.887   7.614 -0.7368  0.0127 -0.3991
  155SAPE  H10R17236   1.947   4.778   7.619  2.4219  0.4483 -1.6339
  155SAPE  H10S17237   1.819   4.899   7.594 -0.7263 -0.7657 -0.9095
  155SAPE  C21117238   1.972   4.949   7.745 -0.1126 -0.0479  0.1619
  155SAPE  H11R17239   1.916   5.043   7.760 -1.8657 -1.0011 -0.3428
  155SAPE  C21217240   2.044   4.899   7.846 -0.1448 -0.1502  0.1904
  155SAPE  H12R17241   2.063   4.971   7.926 -3.2389  0.1377  0.7581
  155SAPE  C21317242   2.114   4.770   7.831  0.0863  0.2413  0.1108
  155SAPE  H13R17243   2.214   4.769   7.880  2.3772 -0.3613 -4.3389
  155SAPE  H13S17244   2.131   4.747   7.724  0.4233 -0.7030  0.3633
  155SAPE  C21417245   2.032   4.649   7.872 -0.1159 -1.0148 -0.1226
  155SAPE  H14R17246   1.932   4.657   7.825  0.7046  0.6171 -1.6675
  155SAPE  C21517247   2.046   4.568   7.974  0.0321 -0.1680  0.0953
  155SAPE  H15R17248   1.977   4.482   7.979 -1.1144  0.8167  1.7846
  155SAPE  C21617249   2.158   4.558   8.074 -0.5159  0.0161 -0.2920
  155SAPE  H16R17250   2.248   4.614   8.042  0.7732 -0.6634  2.0028
  155SAPE  H16S17251   2.201   4.455   8.076  0.8703  0.5349 -2.1680
  155SAPE  C21717252   2.122   4.605   8.212  0.5137 -0.4701 -0.7597
  155SAPE  H17R17253   2.029   4.555   8.246 -0.0930  0.1959 -1.4508
  155SAPE  H17S17254   2.092   4.711   8.214  0.8214 -0.3982  0.1799
  155SAPE  C21817255   2.232   4.594   8.329 -0.6680 -0.7199  0.0753
  155SAPE  H18R17256   2.306   4.676   8.322 -2.5909  1.1074  0.7625
  155SAPE  H18S17257   2.285   4.496   8.316 -2.1544 -1.5298  0.0503
  155SAPE  C21917258   2.161   4.597   8.469 -0.8231 -0.5025 -0.4347
  155SAPE  H19R17259   2.225   4.544   8.543 -0.0020 -0.0815 -0.8372
  155SAPE  H19S17260   2.073   4.529   8.463  0.5194 -2.2185 -1.0836
  155SAPE  C22017261   2.115   4.737   8.516  0.2161 -0.5020  0.3606
  155SAPE  H20R17262   2.181   4.823   8.487 -0.6906  0.3813  0.8918
  155SAPE  H20S17263   2.103   4.732   8.626  3.2555 -0.8933  0.7338
  155SAPE  H20T17264   2.012   4.741   8.475 -0.8847  1.2407  3.1730
  155SAPE   C3317265   2.153   5.341   7.079  0.2409  0.6185  0.8130
  155SAPE   H3X17266   2.245   5.343   7.017 -0.2334  0.5725  0.1029
  155SAPE   H3Y17267   2.132   5.232   7.085 -1.0425  0.8678  1.0879
  155SAPE   C3417268   2.184   5.389   7.218 -0.5477  0.2200 -1.1060
  155SAPE   H4X17269   2.239   5.483   7.193 -2.0691  0.7696 -2.5232
  155SAPE   H4Y17270   2.251   5.321   7.274  1.5158 -0.1043 -3.8579
  155SAPE   C3517271   2.059   5.409   7.308  0.5184 -0.0403 -0.2784
  155SAPE   H5X17272   2.003   5.313   7.308  2.0476 -0.9449  1.2619
  155SAPE   H5Y17273   1.993   5.470   7.243  0.7645  0.5947  0.0729
  155SAPE   C3617274   2.083   5.467   7.458  0.3804  0.0059  0.6010
  155SAPE   H6X17275   1.990   5.474   7.517 -0.9618  0.1013 -1.4583
  155SAPE   H6Y17276   2.109   5.573   7.441 -1.6657  0.5570  0.7356
  155SAPE   C3717277   2.181   5.397   7.548  0.2289  0.6046  0.2502
  155SAPE   H7X17278   2.286   5.415   7.516 -0.1914  2.0648 -0.3631
  155SAPE   H7Y17279   2.155   5.290   7.541 -0.1108  0.8179 -2.3228
  155SAPE   C3817280   2.170   5.454   7.692 -0.3332 -0.7271 -0.0625
  155SAPE   H8X17281   2.068   5.431   7.729 -0.7622 -0.3019 -0.9458
  155SAPE   H8Y17282   2.172   5.565   7.693 -0.4367 -0.7322  0.8051
  155SAPE   C3917283   2.282   5.401   7.780 -0.3551  0.1758 -0.2580
  155SAPE   H9X17284   2.383   5.403   7.734  0.6878 -0.0115  1.9297
  155SAPE   H9Y17285   2.260   5.298   7.815  0.5347  0.2296  0.4928
  155SAPE  C31017286   2.303   5.495   7.901 -0.3763 -0.0344 -0.0317
  155SAPE  H10X17287   2.322   5.596   7.858 -2.6842  0.6821  0.5415
  155SAPE  H10Y17288   2.395   5.455   7.950  1.2214 -1.3876 -3.9724
  155SAPE  C31117289   2.188   5.515   8.005 -0.9346  0.7750  0.1123
  155SAPE  H11X17290   2.113   5.434   7.998  0.6119 -0.8091  1.7094
  155SAPE  H11Y17291   2.123   5.604   7.989 -0.9414  1.1161  1.9436
  155SAPE  C31217292   2.239   5.519   8.149 -0.0998  0.3148  0.0662
  155SAPE  H12X17293   2.151   5.548   8.211  0.0355 -0.3760  0.5849
  155SAPE  H12Y17294   2.311   5.603   8.158 -1.1420  1.2812 -0.3623
  155SAPE  C31317295   2.296   5.395   8.206 -0.0341  0.0417  0.2511
  155SAPE  H13X17296   2.388   5.352   8.160  0.1767  0.4671  0.2723
  155SAPE  H13Y17297   2.228   5.310   8.185  1.8731 -2.3043  3.2080
  155SAPE  C31417298   2.317   5.398   8.359 -0.6527  0.5881  0.1702
  155SAPE  H14X17299   2.377   5.307   8.378 -0.2029  0.9863  0.7039
  155SAPE  H14Y17300   2.213   5.393   8.399 -1.4461 -0.1184 -1.9024
  155SAPE  C31517301   2.387   5.514   8.425 -0.1877  0.6434  0.1203
  155SAPE  H15X17302   2.382   5.498   8.535 -2.6096 -2.3594 -0.3639
  155SAPE  H15Y17303   2.353   5.619   8.412  0.4735  1.2374  2.8752
  155SAPE  C31617304   2.539   5.521   8.379 -0.2509  0.3178 -0.5665
  155SAPE  H16X17305   2.590   5.608   8.427 -2.0410  0.9390  0.2663
  155SAPE  H16Y17306   2.539   5.537   8.269 -0.2749 -0.1796 -0.6394
  155SAPE  C31717307   2.626   5.406   8.415  0.0930 -0.5088  0.1433
  155SAPE  H17X17308   2.734   5.433   8.416  1.0225 -3.9181 -0.1575
  155SAPE  H17Y17309   2.601   5.340   8.329  1.9310  1.6862 -2.1526
  155SAPE  C31817310   2.611   5.333   8.552  0.2378 -0.4826  0.1275
  155SAPE  H18X17311   2.507   5.319   8.588  0.9788 -1.4404  2.0181
  155SAPE  H18Y17312   2.663   5.399   8.624  0.3618 -0.4621  0.0189
  155SAPE  H18Z17313   2.666   5.236   8.560 -1.1052 -1.4945 -2.6117
  156SAPE     N17314   0.444   5.434   6.175 -0.8636  0.2443  0.4325
  156SAPE   HN117315   0.457   5.444   6.277  0.6036 -1.4623  0.4324
  156SAPE   HN217316   0.510   5.361   6.142 -0.3170 -0.7317  3.5801
  156SAPE   HN317317   0.460   5.531   6.140 -0.8806  0.1991  0.2991
  156SAPE   C1217318   0.313   5.375   6.144 -1.3245 -0.2169 -0.3687
  156SAPE  H12A17319   0.305   5.271   6.181 -0.6665  0.3347  1.3417
  156SAPE  H12B17320   0.318   5.350   6.036 -2.1718 -2.0130 -0.0089
  156SAPE   C1117321   0.208   5.469   6.185 -0.1360  0.3705  0.4052
  156SAPE  H11A17322   0.213   5.564   6.128 -0.0253  2.0263  3.0836
  156SAPE  H11B17323   0.218   5.495   6.293  0.5257  0.2189  0.3836
  156SAPE     P17324   0.011   5.325   6.276 -0.1197  0.3226 -0.1453
  156SAPE   O1317325  -0.118   5.283   6.228  0.3027 -0.5330  0.2404
  156SAPE   O1417326   0.101   5.223   6.321  0.5947  0.8593 -0.1448
  156SAPE   O1217327   0.089   5.406   6.161  0.1771  0.6460  0.2566
  156SAPE   O1117328   0.008   5.418   6.397  0.6497  0.3518 -0.1498
  156SAPE    C117329  -0.053   5.544   6.400 -0.5967 -0.7342 -0.1452
  156SAPE    HA17330   0.007   5.606   6.330 -3.2060 -0.1445 -1.9727
  156SAPE    HB17331  -0.151   5.531   6.349  0.8226 -2.1119 -2.6045
  156SAPE    C217332  -0.072   5.599   6.540 -0.7559  0.0619  0.5172
  156SAPE    HS17333  -0.126   5.696   6.542 -0.5800  0.1415  1.6152
  156SAPE   O2117334   0.055   5.608   6.613 -0.3747 -0.4343 -0.4736
  156SAPE   C2117335   0.128   5.713   6.578  0.2436  0.4558 -0.1490
  156SAPE   O2217336   0.101   5.806   6.503  0.1145 -0.0033  0.0330
  156SAPE   C2217337   0.256   5.710   6.670  0.4333  0.0202 -0.1362
  156SAPE   H2R17338   0.301   5.609   6.654 -1.5057 -0.8495 -0.2171
  156SAPE   H2S17339   0.326   5.793   6.647 -0.3686  1.2294  1.6233
  156SAPE    C317340  -0.168   5.505   6.620  0.4918 -0.7506 -0.3993
  156SAPE    HX17341  -0.112   5.411   6.641  0.9864 -0.5155 -0.6496
  156SAPE    HY17342  -0.255   5.486   6.555  0.4666 -2.9676  0.2437
  156SAPE   O3117343  -0.213   5.568   6.748  0.1338  0.9336  0.2765
  156SAPE   C3117344  -0.130   5.560   6.854  0.1367  0.5222 -0.5629
  156SAPE   O3217345  -0.032   5.487   6.864  0.1136  0.3863  0.8327
  156SAPE   C3217346  -0.190   5.640   6.972  0.6308 -0.2825 -0.2232
  156SAPE   H2X17347  -0.188   5.741   6.927  0.7609  0.1748  0.7905
  156SAPE   H2Y17348  -0.113   5.646   7.052 -1.1007 -1.4573  1.6046
  156SAPE   C2317349   0.218   5.717   6.822 -0.0478 -0.1048 -0.8443
  156SAPE   H3R17350   0.259   5.628   6.875 -1.0537 -0.1809 -0.1760
  156SAPE   H3S17351   0.111   5.713   6.850 -0.2212 -1.9099 -1.6882
  156SAPE   C2417352   0.272   5.848   6.885  0.6067 -0.8860 -0.7581
  156SAPE   H4R17353   0.372   5.871   6.842  1.9815  0.4711  2.8978
  156SAPE   H4S17354   0.300   5.834   6.992  0.0051 -1.2035 -0.6407
  156SAPE   C2517355   0.181   5.959   6.867 -0.8628  0.0008 -0.3490
  156SAPE   H5R17356   0.170   5.982   6.760 -1.5844  2.2131  0.1738
  156SAPE   C2617357   0.123   6.031   6.960  1.2006 -0.0939 -0.1087
  156SAPE   H6R17358   0.071   6.120   6.922  1.5515  0.2080  0.1075
  156SAPE   C2717359   0.127   6.019   7.110 -0.2404 -0.3597 -0.0341
  156SAPE   H7R17360   0.082   6.109   7.156 -0.8299  0.2636 -1.7862
  156SAPE   H7S17361   0.229   6.008   7.154  0.4357 -1.5512 -1.8316
  156SAPE   C2817362   0.062   5.887   7.154 -0.3573 -0.1892  0.2866
  156SAPE   H8R17363   0.061   5.806   7.079  0.5135  0.1950 -0.1484
  156SAPE   C2917364  -0.005   5.867   7.269 -0.2232  0.6051  0.3211
  156SAPE   H9R17365  -0.039   5.766   7.293  1.4034 -0.7751 -2.8511
  156SAPE  C21017366  -0.021   5.963   7.381 -0.5392 -0.5699  0.0717
  156SAPE  H10R17367  -0.126   5.997   7.395 -0.8951 -1.4118 -0.4740
  156SAPE  H10S17368   0.045   6.052   7.375 -0.2903 -0.7753 -0.2466
  156SAPE  C21117369   0.033   5.915   7.514  0.1237  0.4276 -0.8747
  156SAPE  H11R17370   0.129   5.867   7.487 -0.8429 -1.7588 -0.5436
  156SAPE  C21217371  -0.028   5.908   7.635 -0.3178  0.2149  0.6864
  156SAPE  H12R17372   0.028   5.853   7.712 -0.3613 -1.6669 -0.6021
  156SAPE  C21317373  -0.170   5.955   7.665  0.3974 -0.2784 -0.6286
  156SAPE  H13R17374  -0.216   5.892   7.745  1.1856  3.0990  2.6323
  156SAPE  H13S17375  -0.230   5.920   7.579 -1.6652 -0.3991  0.8173
  156SAPE  C21417376  -0.192   6.104   7.688 -0.9209 -0.0436 -0.3958
  156SAPE  H14R17377  -0.157   6.160   7.600  2.1239 -1.4445 -0.1377
  156SAPE  C21517378  -0.251   6.164   7.790  0.2000  0.8637  0.0426
  156SAPE  H15R17379  -0.254   6.273   7.799  0.4433  1.0145 -1.4695
  156SAPE  C21617380  -0.305   6.089   7.911  0.2871  0.1786 -0.4402
  156SAPE  H16R17381  -0.275   5.983   7.922 -2.2070 -0.3347  2.1987
  156SAPE  H16S17382  -0.416   6.088   7.915  0.3571 -2.0814  1.5895
  156SAPE  C21717383  -0.247   6.157   8.034  0.2963 -0.0441  0.0608
  156SAPE  H17R17384  -0.137   6.147   8.033  0.2985 -0.0286  0.1747
  156SAPE  H17S17385  -0.282   6.093   8.118  0.9231 -0.4664  0.0033
  156SAPE  C21817386  -0.299   6.295   8.075 -0.3955  0.5637  0.1743
  156SAPE  H18R17387  -0.410   6.297   8.081 -0.3501 -1.6855  2.4107
  156SAPE  H18S17388  -0.263   6.375   8.007 -1.5620  1.1185  0.1859
  156SAPE  C21917389  -0.255   6.340   8.212  0.6388 -0.6079  0.3665
  156SAPE  H19R17390  -0.156   6.300   8.244  0.7802  0.2068  0.9763
  156SAPE  H19S17391  -0.320   6.289   8.285  2.5703 -3.0998  0.4321
  156SAPE  C22017392  -0.247   6.490   8.227 -0.2757  0.4054 -0.2857
  156SAPE  H20R17393  -0.207   6.524   8.325  1.5626 -2.3348 -0.0410
  156SAPE  H20S17394  -0.350   6.532   8.218 -1.3784 -2.1100  0.1812
  156SAPE  H20T17395  -0.191   6.536   8.143  2.2334 -1.7308  0.1436
  156SAPE   C3317396  -0.329   5.595   7.023  0.4596  0.1223  0.2295
  156SAPE   H3X17397  -0.326   5.486   7.043  0.2752 -0.3593 -2.2488
  156SAPE   H3Y17398  -0.407   5.598   6.945  0.8378  2.6654 -0.0859
  156SAPE   C3417399  -0.377   5.657   7.160 -0.7585 -0.0092 -0.6954
  156SAPE   H4X17400  -0.487   5.644   7.155 -0.7117 -1.4447  1.1902
  156SAPE   H4Y17401  -0.358   5.766   7.159 -0.6437 -0.0183  0.0539
  156SAPE   C3517402  -0.314   5.591   7.282  0.2932 -0.1046 -0.2466
  156SAPE   H5X17403  -0.211   5.633   7.288  0.6517 -1.0541  0.4952
  156SAPE   H5Y17404  -0.308   5.481   7.292 -0.0663  0.1997  4.5002
  156SAPE   C3617405  -0.388   5.638   7.403 -0.1346  0.0880 -0.7575
  156SAPE   H6X17406  -0.497   5.618   7.395 -0.1114  0.4372 -1.9772
  156SAPE   H6Y17407  -0.383   5.749   7.402 -2.2212  0.2247  0.2278
  156SAPE   C3717408  -0.333   5.586   7.536  0.4760  0.3500  0.2002
  156SAPE   H7X17409  -0.224   5.607   7.548 -0.1622  2.6079  2.5278
  156SAPE   H7Y17410  -0.350   5.476   7.544 -0.9160  0.7129  2.9123
  156SAPE   C3817411  -0.400   5.651   7.661 -0.6211  0.1245  0.1147
  156SAPE   H8X17412  -0.502   5.609   7.664  0.0595 -1.5309  0.4930
  156SAPE   H8Y17413  -0.392   5.762   7.665  0.3701  0.1050 -0.8465
  156SAPE   C3917414  -0.315   5.599   7.784 -0.2606 -0.8127 -0.0994
  156SAPE   H9X17415  -0.218   5.654   7.781 -0.1530 -1.0486 -0.9569
  156SAPE   H9Y17416  -0.302   5.489   7.774 -0.1352 -0.6889 -1.3366
  156SAPE  C31017417  -0.383   5.640   7.923  0.8428  0.2797 -0.2878
  156SAPE  H10X17418  -0.493   5.624   7.917  0.2304  3.9719 -0.6302
  156SAPE  H10Y17419  -0.377   5.751   7.935 -0.3815  0.2045  1.2449
  156SAPE  C31117420  -0.343   5.553   8.044 -0.3655  0.2268 -0.2747
  156SAPE  H11X17421  -0.233   5.561   8.059 -0.3265  1.1898 -1.0243
  156SAPE  H11Y17422  -0.370   5.446   8.026  1.2794 -0.4506  1.1428
  156SAPE  C31217423  -0.410   5.598   8.174 -0.0654  0.4659  0.1219
  156SAPE  H12X17424  -0.518   5.598   8.146  0.2205  1.4251 -0.9749
  156SAPE  H12Y17425  -0.374   5.702   8.186  3.2290 -0.3619 -1.9280
  156SAPE  C31317426  -0.381   5.517   8.299 -0.0624  0.1284 -0.1706
  156SAPE  H13X17427  -0.272   5.515   8.318  0.2009  3.7929 -0.9299
  156SAPE  H13Y17428  -0.423   5.415   8.282 -1.2980  0.7411 -0.8290
  156SAPE  C31417429  -0.465   5.589   8.406 -0.2488 -0.4879  0.8049
  156SAPE  H14X17430  -0.562   5.622   8.364  0.3129 -1.7627 -1.5933
  156SAPE  H14Y17431  -0.421   5.690   8.423 -3.5875  1.3619 -1.0459
  156SAPE  C31517432  -0.464   5.509   8.531 -0.2939  0.0842  0.0757
  156SAPE  H15X17433  -0.364   5.462   8.534 -0.6139 -0.5290  3.6764
  156SAPE  H15Y17434  -0.529   5.422   8.505 -0.5265  0.2922 -0.0488
  156SAPE  C31617435  -0.518   5.572   8.658  0.2627  0.0226  0.0858
  156SAPE  H16X17436  -0.476   5.674   8.668  0.5149 -0.0494 -0.2199
  156SAPE  H16Y17437  -0.471   5.518   8.744  0.9833  1.7482  0.7983
  156SAPE  C31717438  -0.664   5.564   8.670  0.1072  0.3520  0.7106
  156SAPE  H17X17439  -0.703   5.462   8.689 -0.6418  0.5140  0.0655
  156SAPE  H17Y17440  -0.722   5.597   8.581 -0.4207  0.3874  1.0610
  156SAPE  C31817441  -0.714   5.647   8.787  0.2169 -0.1953  0.4898
  156SAPE  H18X17442  -0.677   5.751   8.786 -0.0098 -0.1230 -0.6749
  156SAPE  H18Y17443  -0.682   5.597   8.881 -1.9715 -0.6216  1.0552
  156SAPE  H18Z17444  -0.825   5.654   8.783  0.2930  1.3075  0.8728
  157SAPE     N17445   4.994   0.973   5.832 -1.0269  0.4144 -0.1768
  157SAPE   HN117446   4.980   1.005   5.930 -2.1750 -2.1474  0.5379
  157SAPE   HN217447   5.081   1.013   5.791 -0.9168  0.5727  0.2087
  157SAPE   HN317448   4.912   0.998   5.773 -1.7727  1.2465  1.1656
  157SAPE   C1217449   5.008   0.820   5.834  0.7614 -0.0931  0.3151
  157SAPE  H12A17450   5.076   0.792   5.918  1.8889  0.9744 -0.2277
  157SAPE  H12B17451   5.045   0.787   5.735  0.7249  0.3159  0.1655
  157SAPE   C1117452   4.870   0.756   5.845 -0.6565 -0.4781 -0.2928
  157SAPE  H11A17453   4.874   0.645   5.836  1.3577 -0.7265  2.7801
  157SAPE  H11B17454   4.807   0.799   5.765  0.2336  2.6122  0.6006
  157SAPE     P17455   4.762   0.680   6.072 -0.1801 -0.2051 -0.6591
  157SAPE   O1317456   4.678   0.585   6.000 -0.4069  0.1418  0.0098
  157SAPE   O1417457   4.883   0.631   6.138 -0.1958  0.3658  0.8460
  157SAPE   O1217458   4.812   0.789   5.972 -0.1686  0.5638  0.2828
  157SAPE   O1117459   4.670   0.761   6.169 -0.4043  0.1348  0.3870
  157SAPE    C117460   4.681   0.893   6.204  0.1627 -0.3135 -0.7864
  157SAPE    HA17461   4.757   0.950   6.146  0.9227 -1.1461 -0.6304
  157SAPE    HB17462   4.587   0.950   6.209 -1.5216 -2.9784 -0.9300
  157SAPE    C217463   4.734   0.900   6.357  0.3737 -0.2189 -0.2424
  157SAPE    HS17464   4.763   1.007   6.364 -0.4745  0.0614 -0.9287
  157SAPE   O2117465   4.836   0.808   6.392  0.3919 -0.5003 -0.6557
  157SAPE   C2117466   4.957   0.853   6.374  0.7621 -0.7823 -0.3257
  157SAPE   O2217467   4.991   0.962   6.337 -0.4229  0.3084  0.6734
  157SAPE   C2217468   5.046   0.751   6.446  0.0216  0.7484  0.0544
  157SAPE   H2R17469   5.024   0.651   6.402  1.7183  0.3346  0.1371
  157SAPE   H2S17470   5.149   0.785   6.423  0.5364 -0.3735  0.6807
  157SAPE    C317471   4.610   0.875   6.449  0.4144 -0.4348 -0.3466
  157SAPE    HX17472   4.579   0.768   6.447  0.1665 -0.3628 -3.5962
  157SAPE    HY17473   4.526   0.938   6.411  0.1053 -2.6165 -3.4942
  157SAPE   O3117474   4.646   0.900   6.590 -0.5269  0.7258  0.1435
  157SAPE   C3117475   4.538   0.937   6.664 -0.2694 -0.4214 -0.0116
  157SAPE   O3217476   4.421   0.939   6.629  0.6477 -0.1693 -0.0989
  157SAPE   C3217477   4.576   0.973   6.810 -0.1930 -0.6632  0.3768
  157SAPE   H2X17478   4.500   0.922   6.873 -0.3677  0.1610  0.8404
  157SAPE   H2Y17479   4.574   1.083   6.825 -0.5417 -0.7771  1.1800
  157SAPE   C2317480   5.024   0.730   6.603 -0.1091  0.3417 -0.0669
  157SAPE   H3R17481   4.925   0.679   6.612  0.3853 -0.6584 -0.2709
  157SAPE   H3S17482   5.013   0.833   6.645  1.2996 -0.0417  1.2788
  157SAPE   C2417483   5.147   0.676   6.677  0.1823 -0.1803  0.3211
  157SAPE   H4R17484   5.181   0.585   6.623  0.8459 -0.1220  0.6318
  157SAPE   H4S17485   5.105   0.664   6.779  0.0937  2.8425  0.6846
  157SAPE   C2517486   5.257   0.781   6.678 -0.9935  0.2207  0.2694
  157SAPE   H5R17487   5.307   0.791   6.581 -2.0159  0.5521 -0.2259
  157SAPE   C2617488   5.297   0.856   6.787 -0.4132  0.5779  0.1234
  157SAPE   H6R17489   5.383   0.921   6.766 -0.2857  0.0372 -1.0798
  157SAPE   C2717490   5.244   0.856   6.925  0.2920  0.3819  0.5561
  157SAPE   H7R17491   5.303   0.780   6.982  1.9309  2.2917  1.4642
  157SAPE   H7S17492   5.141   0.815   6.931  0.0948  0.9795  1.2962
  157SAPE   C2817493   5.246   0.988   6.992 -0.2663 -0.6768 -0.3581
  157SAPE   H8R17494   5.205   1.075   6.938 -2.4962 -0.9489  0.8176
  157SAPE   C2917495   5.300   1.015   7.111  0.4960  0.1653  0.1117
  157SAPE   H9R17496   5.298   1.119   7.145 -0.0383  1.0034 -2.3938
  157SAPE  C21017497   5.362   0.923   7.209 -0.0708 -0.3676  0.4513
  157SAPE  H10R17498   5.397   0.830   7.158 -1.4095 -0.2353 -0.7328
  157SAPE  H10S17499   5.288   0.885   7.283 -0.7086 -2.5769 -1.2510
  157SAPE  C21117500   5.481   0.990   7.276  1.1443  0.0085 -0.5241
  157SAPE  H11R17501   5.545   1.052   7.212 -1.7360  1.1776 -2.3439
  157SAPE  C21217502   5.514   0.982   7.407  0.1033 -0.0124  0.9425
  157SAPE  H12R17503   5.610   1.029   7.433 -1.0297  2.1714  1.3263
  157SAPE  C21317504   5.439   0.918   7.521  0.0780  0.7022 -0.3132
  157SAPE  H13R17505   5.365   0.848   7.478  0.4869 -1.1289  1.8985
  157SAPE  H13S17506   5.385   0.997   7.578  0.9872  0.1656  1.3283
  157SAPE  C21417507   5.520   0.830   7.615 -0.1183 -0.3462  0.7519
  157SAPE  H14R17508   5.584   0.756   7.564 -0.4617  1.8783 -3.1295
  157SAPE  C21517509   5.509   0.841   7.744 -0.7735  0.7256 -0.1272
  157SAPE  H15R17510   5.560   0.767   7.807 -1.7071 -1.4587 -1.8687
  157SAPE  C21617511   5.429   0.926   7.831  0.0666 -0.6313 -0.1121
  157SAPE  H16R17512   5.376   1.011   7.784 -0.2233 -0.2606  0.8991
  157SAPE  H16S17513   5.499   0.970   7.905  0.2657 -0.1832 -0.5596
  157SAPE  C21717514   5.321   0.843   7.911 -0.0788  0.0242  0.6344
  157SAPE  H17R17515   5.356   0.741   7.937 -0.7576 -1.1387 -2.7929
  157SAPE  H17S17516   5.226   0.833   7.854  0.9296 -0.8623 -0.9163
  157SAPE  C21817517   5.274   0.915   8.037 -0.0600  0.4275  0.0903
  157SAPE  H18R17518   5.187   0.859   8.078  2.2463 -1.9115  2.0209
  157SAPE  H18S17519   5.259   1.024   8.021  0.3937  0.4456 -0.2459
  157SAPE  C21917520   5.370   0.913   8.158  0.6866 -0.6316  0.1911
  157SAPE  H19R17521   5.463   0.970   8.135 -1.4587  2.6216 -0.7042
  157SAPE  H19S17522   5.385   0.806   8.181  0.3843 -0.6241  0.4248
  157SAPE  C22017523   5.298   0.971   8.274 -0.1823 -0.1808  0.7037
  157SAPE  H20R17524   5.310   1.081   8.266 -0.5540 -0.2837 -1.8931
  157SAPE  H20S17525   5.337   0.931   8.370  0.7579 -0.8043  0.0739
  157SAPE  H20T17526   5.188   0.964   8.286 -0.1265  0.0911  1.3757
  157SAPE   C3317527   4.719   0.917   6.836 -0.0022 -0.5509  0.1539
  157SAPE   H3X17528   4.788   0.981   6.778 -1.0231 -1.5231 -2.2109
  157SAPE   H3Y17529   4.740   0.815   6.796  3.3057 -0.1020  0.6603
  157SAPE   C3417530   4.732   0.917   6.983  0.9562 -0.7405 -0.5568
  157SAPE   H4X17531   4.669   0.843   7.037  2.3844 -0.7321  1.1731
  157SAPE   H4Y17532   4.727   1.021   7.022  1.8781 -0.6608 -0.6336
  157SAPE   C3517533   4.873   0.879   7.032 -0.6958  0.3288  0.0205
  157SAPE   H5X17534   4.947   0.914   6.957 -0.6102 -0.3270 -0.2031
  157SAPE   H5Y17535   4.879   0.768   7.038 -0.5904  0.2513 -1.3467
  157SAPE   C3617536   4.918   0.930   7.170  0.1153  0.4907 -0.2564
  157SAPE   H6X17537   4.909   1.041   7.177 -0.2558  0.5495 -1.5667
  157SAPE   H6Y17538   5.023   0.897   7.184  0.7281  2.3724 -0.2927
  157SAPE   C3717539   4.833   0.873   7.287  0.1464  0.5365 -0.3178
  157SAPE   H7X17540   4.854   0.764   7.291 -0.6497  0.2750 -2.4656
  157SAPE   H7Y17541   4.726   0.884   7.260 -0.2553  0.5330  1.1996
  157SAPE   C3817542   4.843   0.930   7.432  0.0183  0.0162  0.0056
  157SAPE   H8X17543   4.749   0.900   7.482 -0.1962  1.8769  0.7552
  157SAPE   H8Y17544   4.847   1.041   7.432  0.2888  0.0065 -0.0458
  157SAPE   C3917545   4.961   0.869   7.508  0.5969  0.3984 -0.2237
  157SAPE   H9X17546   5.052   0.862   7.445  1.2613 -0.0433  0.7738
  157SAPE   H9Y17547   4.927   0.768   7.540 -2.6782  0.7534 -2.3088
  157SAPE  C31017548   5.008   0.946   7.631 -0.2732  0.4826 -0.1216
  157SAPE  H10X17549   5.037   1.051   7.609  0.2022  0.0828 -1.4371
  157SAPE  H10Y17550   5.087   0.892   7.689  1.1030  0.3783 -2.0580
  157SAPE  C31117551   4.878   0.980   7.716 -0.4982  0.4789 -0.8080
  157SAPE  H11X17552   4.830   0.884   7.743  0.0778 -0.2322 -2.2386
  157SAPE  H11Y17553   4.810   1.040   7.651 -1.4316 -0.8351 -1.0569
  157SAPE  C31217554   4.910   1.053   7.848 -0.0711  0.6107 -0.3348
  157SAPE  H12X17555   4.964   1.139   7.804  1.1802 -0.5271 -1.0515
  157SAPE  H12Y17556   4.970   0.993   7.920 -0.9681  0.5004  0.3430
  157SAPE  C31317557   4.785   1.116   7.912  0.7978  0.8616 -0.7754
  157SAPE  H13X17558   4.737   1.185   7.839 -2.8359 -2.3224 -1.5664
  157SAPE  H13Y17559   4.816   1.176   8.000  0.2751 -0.7336  0.5151
  157SAPE  C31417560   4.681   1.011   7.952  0.4313 -0.4835  0.3641
  157SAPE  H14X17561   4.649   0.953   7.863  0.0388  0.1099  0.1185
  157SAPE  H14Y17562   4.596   1.071   7.990 -0.0128  0.4900 -2.1263
  157SAPE  C31517563   4.721   0.900   8.052  0.9114  0.1504  0.3993
  157SAPE  H15X17564   4.820   0.857   8.025  0.8982  0.2633  0.1667
  157SAPE  H15Y17565   4.643   0.822   8.066 -0.5518  1.5067 -0.0568
  157SAPE  C31617566   4.738   0.948   8.202 -0.6591  0.3824 -0.6237
  157SAPE  H16X17567   4.797   1.041   8.198 -0.8109  0.4945 -0.2633
  157SAPE  H16Y17568   4.811   0.882   8.254 -0.8394  0.5152 -0.2039
  157SAPE  C31717569   4.615   0.971   8.285 -0.1650  0.2333  0.3193
  157SAPE  H17X17570   4.529   1.003   8.221 -0.4612  1.2732  1.2313
  157SAPE  H17Y17571   4.632   1.050   8.360  0.0936  2.6873 -2.2452
  157SAPE  C31817572   4.567   0.846   8.359  0.4233 -0.2507 -0.2608
  157SAPE  H18X17573   4.535   0.775   8.281 -1.2862 -1.2641  1.3325
  157SAPE  H18Y17574   4.481   0.869   8.426 -0.1880  1.1116 -1.4961
  157SAPE  H18Z17575   4.648   0.799   8.419  0.7863  0.2038 -0.3890
  158SAPE     N17576   6.547   5.032   6.325  0.5588 -0.3677 -0.6354
  158SAPE   HN117577   6.522   5.118   6.272  1.1992 -0.7104 -1.5037
  158SAPE   HN217578   6.649   5.011   6.322  1.2170  2.1670  1.7081
  158SAPE   HN317579   6.504   4.948   6.281  0.9566 -0.6465 -0.4960
  158SAPE   C1217580   6.501   5.042   6.472  0.3623  0.3213 -0.2182
  158SAPE  H12A17581   6.601   5.036   6.521 -0.8029  0.2290  2.1867
  158SAPE  H12B17582   6.436   4.953   6.489  0.1224  0.2211 -1.6231
  158SAPE   C1117583   6.427   5.180   6.483 -0.1086  0.5040 -0.1715
  158SAPE  H11A17584   6.488   5.271   6.467  0.2743 -0.1541 -2.6599
  158SAPE  H11B17585   6.403   5.183   6.592  1.3826  2.5146  0.1404
  158SAPE     P17586   6.272   5.256   6.283  0.3531  0.1306  0.2347
  158SAPE   O1317587   6.375   5.227   6.181  0.3455 -0.3498 -0.1824
  158SAPE   O1417588   6.131   5.226   6.248 -0.6409  0.4358 -0.2370
  158SAPE   O1217589   6.306   5.175   6.411 -0.3368 -0.7064  0.0197
  158SAPE   O1117590   6.293   5.407   6.322  0.4257 -0.0692  0.2540
  158SAPE    C117591   6.173   5.485   6.344 -0.1368  0.2022 -0.6993
  158SAPE    HA17592   6.176   5.575   6.279 -0.7574 -0.2163 -1.3022
  158SAPE    HB17593   6.078   5.432   6.323 -1.0802  1.3763  0.5548
  158SAPE    C217594   6.171   5.520   6.496 -0.2726 -0.1153 -0.0962
  158SAPE    HS17595   6.272   5.557   6.523  0.3600 -2.0816  0.2636
  158SAPE   O2117596   6.141   5.408   6.578  0.3837 -0.4372  0.5598
  158SAPE   C2117597   6.192   5.410   6.700  0.0889  0.2658 -0.3130
  158SAPE   O2217598   6.268   5.494   6.746  0.4305  0.1424 -0.1371
  158SAPE   C2217599   6.164   5.272   6.769  0.2100  0.1441 -0.1518
  158SAPE   H2R17600   6.054   5.262   6.757  0.5278 -2.1033 -1.4041
  158SAPE   H2S17601   6.217   5.189   6.718  0.2620  1.1684 -1.8114
  158SAPE    C317602   6.068   5.630   6.518  0.2195  0.1315  0.3291
  158SAPE    HX17603   5.974   5.589   6.476  0.0763  0.3623  0.4254
  158SAPE    HY17604   6.082   5.724   6.460 -2.1841 -0.9415 -2.0416
  158SAPE   O3117605   6.033   5.660   6.662  0.7348  0.6134 -0.9652
  158SAPE   C3117606   6.115   5.746   6.726 -0.2838  0.0613 -0.4803
  158SAPE   O3217607   6.196   5.822   6.675 -0.1786 -0.1925  0.5949
  158SAPE   C3217608   6.086   5.749   6.880  1.0459  0.3010 -0.0126
  158SAPE   H2X17609   6.122   5.657   6.932 -2.2917 -0.7128  0.6143
  158SAPE   H2Y17610   5.976   5.749   6.890  0.7619  2.0357 -2.6612
  158SAPE   C2317611   6.185   5.278   6.919 -0.1424 -0.2831 -0.2117
  158SAPE   H3R17612   6.237   5.371   6.948  0.6275  0.3058 -3.2865
  158SAPE   H3S17613   6.238   5.189   6.959 -1.0926 -1.4050 -1.3997
  158SAPE   C2417614   6.046   5.268   6.999  0.0468 -0.4441  0.0616
  158SAPE   H4R17615   6.080   5.230   7.098 -0.0685 -0.6604  0.0168
  158SAPE   H4S17616   5.983   5.189   6.954 -1.7146 -0.7772  2.9630
  158SAPE   C2517617   5.981   5.403   7.005  1.1052 -0.0561  0.6185
  158SAPE   H5R17618   5.979   5.449   6.906 -0.1013 -0.0248  0.6544
  158SAPE   C2617619   5.929   5.459   7.116 -0.0667 -0.0998  0.1782
  158SAPE   H6R17620   5.874   5.553   7.105 -2.1617 -1.3050  0.0403
  158SAPE   C2717621   5.921   5.402   7.258 -0.0731  0.0146  0.3668
  158SAPE   H7R17622   5.911   5.291   7.264  1.1500 -0.3425 -3.1517
  158SAPE   H7S17623   5.843   5.451   7.320  1.3109  1.2169  1.1824
  158SAPE   C2817624   6.058   5.416   7.326 -0.1183  0.1953 -0.4146
  158SAPE   H8R17625   6.145   5.424   7.259  0.8609 -0.6430  0.7301
  158SAPE   C2917626   6.086   5.428   7.457  0.1123  0.3475 -0.3899
  158SAPE   H9R17627   6.191   5.427   7.491 -0.4904  0.5536  1.5629
  158SAPE  C21017628   6.003   5.417   7.582  0.2961 -0.4722  0.1488
  158SAPE  H10R17629   6.012   5.310   7.613 -0.2576 -0.6226 -0.1967
  158SAPE  H10S17630   5.898   5.445   7.560  0.6435  0.4894 -0.3272
  158SAPE  C21117631   6.035   5.525   7.678 -0.5486 -0.4532  0.7877
  158SAPE  H11R17632   6.054   5.624   7.634 -0.9180 -0.4659  0.6005
  158SAPE  C21217633   6.046   5.514   7.806 -0.2252 -0.3665 -0.0489
  158SAPE  H12R17634   6.063   5.604   7.867 -0.9307  0.5801 -1.2318
  158SAPE  C21317635   6.027   5.387   7.891 -0.4607 -0.7762 -0.1211
  158SAPE  H13R17636   6.125   5.381   7.943 -1.5640  0.2586  2.2033
  158SAPE  H13S17637   6.012   5.301   7.823 -1.1412 -0.0944 -0.8475
  158SAPE  C21417638   5.903   5.409   7.982 -0.1531 -0.9175 -0.2100
  158SAPE  H14R17639   5.806   5.377   7.940  0.0184 -0.2610 -1.1193
  158SAPE  C21517640   5.903   5.470   8.102 -0.5922  0.3901  0.4620
  158SAPE  H15R17641   5.808   5.507   8.144 -0.8521  0.4798 -0.1880
  158SAPE  C21617642   6.016   5.517   8.187 -0.6423 -0.1211 -0.3991
  158SAPE  H16R17643   6.020   5.626   8.206 -0.7213 -0.5849  2.4584
  158SAPE  H16S17644   6.112   5.490   8.138  1.1109  1.3091  2.1142
  158SAPE  C21717645   5.999   5.451   8.325  0.2342  0.0470 -0.0234
  158SAPE  H17R17646   6.098   5.457   8.375 -1.4948  2.0296  3.3773
  158SAPE  H17S17647   5.979   5.342   8.319 -0.9469  0.1595  1.3477
  158SAPE  C21817648   5.887   5.523   8.422 -0.1185 -0.6107  1.0836
  158SAPE  H18R17649   5.801   5.554   8.360  0.1478  0.5861  1.2954
  158SAPE  H18S17650   5.917   5.623   8.462 -0.7154  0.8833 -2.0738
  158SAPE  C21917651   5.838   5.430   8.542  0.4126  0.0865 -0.3358
  158SAPE  H19R17652   5.925   5.418   8.610 -0.5093 -2.6871  0.4258
  158SAPE  H19S17653   5.804   5.330   8.506 -0.0592 -0.3078  1.1674
  158SAPE  C22017654   5.731   5.491   8.639  0.2646 -0.4299 -0.3759
  158SAPE  H20R17655   5.734   5.444   8.740 -1.3740  0.8226  0.2788
  158SAPE  H20S17656   5.627   5.506   8.601 -0.1006  0.4910  0.9304
  158SAPE  H20T17657   5.767   5.595   8.659 -0.4793 -0.2780  0.2158
  158SAPE   C3317658   6.151   5.863   6.960 -0.0166  0.6502 -0.0072
  158SAPE   H3X17659   6.140   5.969   6.927 -0.5821  0.0907 -1.6395
  158SAPE   H3Y17660   6.256   5.834   6.980 -0.7890 -1.5482  1.0211
  158SAPE   C3417661   6.086   5.868   7.106  0.2142  0.3604  0.2716
  158SAPE   H4X17662   6.099   5.763   7.140 -0.0198  0.7869  1.6936
  158SAPE   H4Y17663   5.976   5.882   7.098  0.1796 -0.5330 -0.9695
  158SAPE   C3517664   6.160   5.956   7.206 -0.1572  0.4448  0.1721
  158SAPE   H5X17665   6.141   6.064   7.185  0.0475  0.5174  0.3476
  158SAPE   H5Y17666   6.269   5.934   7.194 -0.6097 -1.5030 -0.5537
  158SAPE   C3617667   6.128   5.926   7.354 -0.2489 -0.3759  0.2063
  158SAPE   H6X17668   6.170   5.824   7.363  0.7774  0.0119 -0.1292
  158SAPE   H6Y17669   6.017   5.929   7.365 -0.1753 -1.6033  1.4053
  158SAPE   C3717670   6.205   6.010   7.457 -0.5437  0.0359 -0.1083
  158SAPE   H7X17671   6.309   6.023   7.420 -1.0144  0.2133 -1.4023
  158SAPE   H7Y17672   6.161   6.112   7.456  2.6876  1.5305  1.7681
  158SAPE   C3817673   6.213   5.938   7.594 -0.1199  0.3922  0.3020
  158SAPE   H8X17674   6.269   6.002   7.665 -2.0870  1.1672  1.1847
  158SAPE   H8Y17675   6.277   5.847   7.586  3.1250  2.4448  1.8028
  158SAPE   C3917676   6.077   5.923   7.661 -0.3910  0.1415 -0.6600
  158SAPE   H9X17677   6.008   5.864   7.597  0.3743 -1.0331 -0.4308
  158SAPE   H9Y17678   6.024   6.020   7.660  0.2640  0.5197  0.3774
  158SAPE  C31017679   6.077   5.865   7.802 -0.1335  0.4590 -0.2745
  158SAPE  H10X17680   6.159   5.790   7.808 -0.3081  0.2564 -0.4282
  158SAPE  H10Y17681   5.982   5.809   7.815  1.1832 -1.4208  1.5725
  158SAPE  C31117682   6.099   5.972   7.910  0.2066  0.2925  0.2489
  158SAPE  H11X17683   6.002   6.020   7.939  0.3109  1.1380 -0.7652
  158SAPE  H11Y17684   6.170   6.048   7.872  1.3133 -1.3885 -1.1076
  158SAPE  C31217685   6.149   5.909   8.043 -0.1957  0.1090 -0.5870
  158SAPE  H12X17686   6.252   5.871   8.026  0.3168  0.9126  0.6898
  158SAPE  H12Y17687   6.096   5.817   8.075  1.6495 -0.3559  1.2696
  158SAPE  C31317688   6.157   6.009   8.161  0.0246 -0.4817 -0.0786
  158SAPE  H13X17689   6.049   6.034   8.175  0.1287  0.8260 -1.5370
  158SAPE  H13Y17690   6.204   6.103   8.124 -0.6988 -0.2697 -0.4648
  158SAPE  C31417691   6.217   5.947   8.288  0.0036  0.1244  0.3332
  158SAPE  H14X17692   6.328   5.939   8.285 -0.0013 -0.9469  1.9972
  158SAPE  H14Y17693   6.190   5.840   8.280 -2.5081  0.7715 -0.2542
  158SAPE  C31517694   6.171   6.006   8.422 -0.4323 -0.0216  0.0805
  158SAPE  H15X17695   6.066   5.979   8.446 -0.0058 -1.2276  0.6454
  158SAPE  H15Y17696   6.181   6.115   8.404  0.9499 -0.1044  0.2789
  158SAPE  C31617697   6.266   5.952   8.533  0.5505 -0.0085  0.1072
  158SAPE  H16X17698   6.366   5.931   8.490 -0.3180  0.2823 -2.1325
  158SAPE  H16Y17699   6.219   5.854   8.559 -1.0412  0.4322 -1.0388
  158SAPE  C31717700   6.268   6.032   8.668  0.4333 -0.3479 -0.2113
  158SAPE  H17X17701   6.172   6.007   8.717  0.0293 -1.8454 -1.7417
  158SAPE  H17Y17702   6.279   6.139   8.640 -1.5188 -0.2910 -0.7855
  158SAPE  C31817703   6.383   5.992   8.768 -0.6149 -0.1295  0.1843
  158SAPE  H18X17704   6.374   5.884   8.788  1.0321 -0.1525  0.8879
  158SAPE  H18Y17705   6.366   6.044   8.865 -2.3190  0.7721 -0.5799
  158SAPE  H18Z17706   6.480   6.022   8.722 -1.3197  0.0803 -1.2087
  159SAPE     N17707   5.440   2.099   6.623 -0.1254 -0.1929  0.3869
  159SAPE   HN117708   5.439   2.170   6.698  0.6946  1.1401 -0.8480
  159SAPE   HN217709   5.449   2.002   6.661 -2.0460 -0.3402  0.5579
  159SAPE   HN317710   5.520   2.106   6.557 -0.2501 -2.4131 -0.0440
  159SAPE   C1217711   5.306   2.120   6.548 -0.4495  0.5333 -0.3895
  159SAPE  H12A17712   5.310   2.203   6.475  0.7085  2.1113  1.4476
  159SAPE  H12B17713   5.238   2.159   6.627  0.3713  1.2214 -0.0218
  159SAPE   C1117714   5.261   1.984   6.493 -0.0430  0.3488  0.1920
  159SAPE  H11A17715   5.180   2.004   6.420  0.6315 -1.2673 -1.0322
  159SAPE  H11B17716   5.220   1.924   6.577  0.3713  1.7232  1.4071
  159SAPE     P17717   5.367   1.760   6.391 -0.0848 -0.2918  0.1904
  159SAPE   O1317718   5.227   1.722   6.357  0.4518  0.6187 -0.3398
  159SAPE   O1417719   5.457   1.750   6.282 -0.4540  0.2117 -0.2524
  159SAPE   O1217720   5.370   1.918   6.430  0.2634  0.0358  0.1874
  159SAPE   O1117721   5.422   1.683   6.513 -0.2779 -0.6492 -0.0898
  159SAPE    C117722   5.565   1.705   6.535  0.1038 -0.2687 -0.2799
  159SAPE    HA17723   5.637   1.682   6.453  1.5781 -1.3885  1.2818
  159SAPE    HB17724   5.585   1.811   6.559 -2.3756  0.1368  0.0671
  159SAPE    C217725   5.608   1.634   6.663 -0.5939 -0.2213  0.1336
  159SAPE    HS17726   5.646   1.531   6.644  3.0892  1.0321  0.2386
  159SAPE   O2117727   5.506   1.628   6.757 -0.2170 -0.3967  0.1548
  159SAPE   C2117728   5.460   1.741   6.817  0.2068 -0.5484  0.0117
  159SAPE   O2217729   5.487   1.853   6.792  0.2219 -0.4400  0.0877
  159SAPE   C2217730   5.370   1.703   6.938  0.0655  0.1554  0.8317
  159SAPE   H2R17731   5.264   1.705   6.906 -0.2503  0.4019  1.8705
  159SAPE   H2S17732   5.392   1.597   6.964 -1.9931 -0.8187 -1.2291
  159SAPE    C317733   5.742   1.697   6.707 -0.4563  0.1837  0.4989
  159SAPE    HX17734   5.737   1.807   6.692 -3.3790 -0.1336 -1.4076
  159SAPE    HY17735   5.815   1.652   6.635 -0.6043  3.3640 -1.7259
  159SAPE   O3117736   5.783   1.659   6.836 -0.3355  0.1801 -0.0654
  159SAPE   C3117737   5.915   1.670   6.862 -1.0804  0.3435 -0.6333
  159SAPE   O3217738   6.001   1.701   6.780  0.3916  0.0244  0.4290
  159SAPE   C3217739   5.949   1.605   6.998  0.4718  0.6166 -0.3833
  159SAPE   H2X17740   5.977   1.498   6.986 -0.6811  0.2678 -0.0699
  159SAPE   H2Y17741   5.865   1.611   7.070  1.4248  0.9373  0.7188
  159SAPE   C2317742   5.371   1.800   7.055  0.2501  0.1688 -0.1478
  159SAPE   H3R17743   5.270   1.791   7.100  0.3815  1.1245  0.3582
  159SAPE   H3S17744   5.382   1.907   7.026 -1.1552  0.3219 -0.1432
  159SAPE   C2417745   5.463   1.765   7.169 -0.5204  0.1144 -0.3831
  159SAPE   H4R17746   5.446   1.664   7.211  0.0069  0.9485  1.9797
  159SAPE   H4S17747   5.440   1.828   7.258  1.4283 -1.3109  1.1758
  159SAPE   C2517748   5.607   1.765   7.129  0.4604 -0.1553  0.2954
  159SAPE   H5R17749   5.640   1.728   7.031  1.3356 -0.2580  0.6278
  159SAPE   C2617750   5.713   1.810   7.203 -0.1032  0.0426  0.3439
  159SAPE   H6R17751   5.814   1.819   7.162 -0.5492 -0.3210 -0.8535
  159SAPE   C2717752   5.696   1.865   7.342  0.1943 -0.7211  1.2033
  159SAPE   H7R17753   5.603   1.817   7.379 -0.0051 -0.9110  0.4661
  159SAPE   H7S17754   5.677   1.973   7.330 -0.8016 -1.1991 -2.1635
  159SAPE   C2817755   5.803   1.843   7.449 -0.0571 -0.3250  0.5288
  159SAPE   H8R17756   5.898   1.810   7.404  0.6864  0.9353  1.1438
  159SAPE   C2917757   5.781   1.836   7.586 -0.5292  0.3106 -0.8423
  159SAPE   H9R17758   5.863   1.802   7.651 -0.9094 -0.7028 -0.8684
  159SAPE  C21017759   5.646   1.853   7.660  0.9592 -0.0295  0.1181
  159SAPE  H10R17760   5.578   1.920   7.603 -1.9602 -2.7100  0.3517
  159SAPE  H10S17761   5.663   1.912   7.753  0.7945 -0.5330  0.4701
  159SAPE  C21117762   5.585   1.722   7.692 -0.3778 -0.1842  0.6455
  159SAPE  H11R17763   5.557   1.662   7.604  0.3553  0.0030  0.2821
  159SAPE  C21217764   5.565   1.662   7.811  0.0602  0.8270  0.5570
  159SAPE  H12R17765   5.514   1.564   7.805  0.9799  0.4690 -1.8649
  159SAPE  C21317766   5.589   1.713   7.945 -1.1619 -0.1951 -0.4365
  159SAPE  H13R17767   5.698   1.735   7.949 -0.9526 -1.2386 -0.2231
  159SAPE  H13S17768   5.569   1.627   8.012  1.8506 -2.1519 -1.9268
  159SAPE  C21417769   5.512   1.838   7.995 -0.7953 -0.3939  0.3195
  159SAPE  H14R17770   5.484   1.908   7.914  0.2779  0.1580  0.4176
  159SAPE  C21517771   5.475   1.868   8.119 -0.0974  0.4677 -0.0303
  159SAPE  H15R17772   5.405   1.951   8.135 -1.2130 -0.4185 -0.2268
  159SAPE  C21617773   5.509   1.800   8.244 -0.2066 -0.5557  0.4343
  159SAPE  H16R17774   5.573   1.711   8.228  0.7730  0.3262 -0.5712
  159SAPE  H16S17775   5.414   1.762   8.287 -1.7742  0.1884 -2.2861
  159SAPE  C21717776   5.577   1.892   8.346 -0.4671 -0.0872 -0.9159
  159SAPE  H17R17777   5.572   1.836   8.441 -0.1480  1.2466 -0.0926
  159SAPE  H17S17778   5.517   1.985   8.358 -1.0675 -0.2987 -2.1204
  159SAPE  C21817779   5.726   1.927   8.312  0.1084  0.2079 -0.7172
  159SAPE  H18R17780   5.729   1.940   8.202  2.5079 -1.3293 -0.8775
  159SAPE  H18S17781   5.786   1.836   8.335 -1.6023 -0.4375  1.3489
  159SAPE  C21917782   5.786   2.047   8.380  0.8054  0.4902  0.2066
  159SAPE  H19R17783   5.735   2.142   8.356 -2.5188 -1.2054  0.2324
  159SAPE  H19S17784   5.888   2.066   8.341  0.0834 -1.1876 -2.6396
  159SAPE  C22017785   5.803   2.028   8.527 -0.5444 -0.1553 -0.0822
  159SAPE  H20R17786   5.863   1.938   8.552 -0.0951  0.8208  2.5717
  159SAPE  H20S17787   5.707   2.032   8.584  0.8743  2.0740  2.2834
  159SAPE  H20T17788   5.852   2.118   8.570  2.4021 -0.5951 -2.4254
  159SAPE   C3317789   6.065   1.675   7.075 -0.2692  0.3191 -0.3818
  159SAPE   H3X17790   6.020   1.755   7.136  0.1401  1.1086 -1.1111
  159SAPE   H3Y17791   6.137   1.724   7.006 -0.3017  2.6428  1.1891
  159SAPE   C3417792   6.147   1.592   7.177 -0.4253  0.0672 -0.0977
  159SAPE   H4X17793   6.224   1.656   7.224 -1.4995  2.0364 -0.9841
  159SAPE   H4Y17794   6.218   1.517   7.135 -1.3579 -1.2708  0.6777
  159SAPE   C3517795   6.055   1.537   7.289 -0.2834  0.1377  0.0646
  159SAPE   H5X17796   6.013   1.437   7.265  1.5815 -0.6878  0.1589
  159SAPE   H5Y17797   5.969   1.607   7.295 -2.4417 -2.4722  0.2109
  159SAPE   C3617798   6.130   1.534   7.422  0.5429  0.4992 -0.0975
  159SAPE   H6X17799   6.170   1.638   7.425 -1.9126  1.4999 -0.0030
  159SAPE   H6Y17800   6.215   1.464   7.415  0.0701 -0.0357 -0.5151
  159SAPE   C3717801   6.042   1.514   7.548 -0.5003 -0.2978 -0.2047
  159SAPE   H7X17802   6.024   1.404   7.553 -1.4466 -0.1714 -0.7621
  159SAPE   H7Y17803   5.947   1.563   7.519 -0.2991  0.6117  0.6821
  159SAPE   C3817804   6.097   1.579   7.679  0.4212 -0.1310  0.3903
  159SAPE   H8X17805   6.057   1.683   7.671  1.4525  0.3273  1.0052
  159SAPE   H8Y17806   6.208   1.587   7.675  0.2494  2.6634  0.3582
  159SAPE   C3917807   6.047   1.498   7.798 -0.1748 -0.0099 -0.8899
  159SAPE   H9X17808   6.106   1.404   7.797 -0.9664 -0.5103 -1.1368
  159SAPE   H9Y17809   5.942   1.465   7.783 -0.3356  0.7760 -1.4790
  159SAPE  C31017810   6.067   1.573   7.926 -0.0109 -0.5148  0.2196
  159SAPE  H10X17811   6.014   1.668   7.903  2.6692  0.5838 -1.5862
  159SAPE  H10Y17812   6.174   1.592   7.950 -0.2869  0.6130  0.5719
  159SAPE  C31117813   5.996   1.518   8.054 -0.4022 -1.2748 -0.2029
  159SAPE  H11X17814   6.041   1.420   8.082 -0.3582 -1.5893 -1.3697
  159SAPE  H11Y17815   5.890   1.495   8.030  0.0691 -2.4263 -1.2203
  159SAPE  C31217816   6.002   1.618   8.172 -0.2496  1.1029  0.8701
  159SAPE  H12X17817   5.948   1.713   8.154 -3.1168  0.0773  3.6458
  159SAPE  H12Y17818   6.102   1.666   8.178  0.7365 -0.7570 -0.2146
  159SAPE  C31317819   5.958   1.550   8.299 -0.0026  0.1117  1.1072
  159SAPE  H13X17820   5.860   1.501   8.283  0.7305 -1.4516  1.2173
  159SAPE  H13Y17821   5.955   1.624   8.382 -1.5215  2.4556 -0.9765
  159SAPE  C31417822   6.060   1.446   8.357  0.4598 -0.5273  0.0532
  159SAPE  H14X17823   6.132   1.481   8.434  0.2713 -1.8187  0.8340
  159SAPE  H14Y17824   6.105   1.400   8.266 -0.3920 -1.0339 -0.1124
  159SAPE  C31517825   5.986   1.324   8.418  0.9636 -0.0885 -0.2019
  159SAPE  H15X17826   5.918   1.273   8.346 -3.1265  2.0217  1.9641
  159SAPE  H15Y17827   5.928   1.360   8.506  1.0500 -2.6056  0.9124
  159SAPE  C31617828   6.088   1.233   8.483 -0.5058  0.1142  0.1531
  159SAPE  H16X17829   6.168   1.289   8.536 -0.2173  0.2625 -0.4237
  159SAPE  H16Y17830   6.139   1.191   8.393 -0.6907 -3.7735  1.7844
  159SAPE  C31717831   6.027   1.134   8.576 -0.5558  0.0212  1.2466
  159SAPE  H17X17832   6.083   1.041   8.599  1.1068  0.2346 -1.7046
  159SAPE  H17Y17833   5.941   1.097   8.516 -0.0922 -0.3704  0.8258
  159SAPE  C31817834   5.972   1.199   8.702 -0.6411 -0.0179  0.1280
  159SAPE  H18X17835   6.053   1.259   8.748  1.7657 -0.4838 -3.3068
  159SAPE  H18Y17836   5.933   1.125   8.775  1.3247  0.4082  1.6439
  159SAPE  H18Z17837   5.895   1.279   8.691  0.0795  0.6240 -0.2983
  160SAPE     N17838   0.569   6.514   6.545 -0.0000  0.3671  0.0876
  160SAPE   HN117839   0.576   6.599   6.605 -2.1789  1.3843 -1.0163
  160SAPE   HN217840   0.471   6.480   6.549  1.1553 -3.2738 -0.8431
  160SAPE   HN317841   0.627   6.439   6.588  1.2763  0.1140 -2.0432
  160SAPE   C1217842   0.605   6.540   6.396 -0.1160 -0.2326  0.0300
  160SAPE  H12A17843   0.578   6.448   6.340 -1.3648  1.6245 -2.4848
  160SAPE  H12B17844   0.714   6.557   6.394  0.0338 -1.1640 -0.2050
  160SAPE   C1117845   0.520   6.651   6.325 -0.2660  0.3008 -0.0921
  160SAPE  H11A17846   0.547   6.654   6.218  0.6724 -0.3981  0.1063
  160SAPE  H11B17847   0.556   6.751   6.356  0.1710  0.0135  0.3458
  160SAPE     P17848   0.293   6.709   6.430  0.1403  0.0628 -0.2628
  160SAPE   O1317849   0.271   6.845   6.382  0.3389 -0.4264 -0.7128
  160SAPE   O1417850   0.165   6.631   6.434  0.0579 -0.4613  0.0703
  160SAPE   O1217851   0.384   6.621   6.340  0.0369 -0.1467 -0.1744
  160SAPE   O1117852   0.351   6.699   6.574  0.7185  0.1029  0.2375
  160SAPE    C117853   0.419   6.810   6.635 -0.1918 -0.4459 -0.1792
  160SAPE    HA17854   0.526   6.791   6.656 -0.0499 -0.8836 -1.2546
  160SAPE    HB17855   0.410   6.903   6.575  0.5218  1.3416  2.4254
  160SAPE    C217856   0.359   6.834   6.776 -0.0622  0.2194 -0.2965
  160SAPE    HS17857   0.350   6.736   6.828  0.5862  0.2174 -0.1833
  160SAPE   O2117858   0.237   6.900   6.764  0.1694  0.4708  0.0366
  160SAPE   C2117859   0.130   6.855   6.839  0.1186 -0.2910  0.7163
  160SAPE   O2217860   0.131   6.766   6.920  0.1352 -0.1045 -0.2562
  160SAPE   C2217861   0.005   6.944   6.805 -0.9981  0.0771 -0.2626
  160SAPE   H2R17862  -0.018   6.912   6.701 -1.6712  0.0878 -0.1231
  160SAPE   H2S17863  -0.085   6.913   6.862 -1.4196  1.0690 -0.3644
  160SAPE    C317864   0.452   6.924   6.857  0.4349 -0.0417  0.5539
  160SAPE    HX17865   0.449   7.016   6.796  1.7589 -0.3294  0.0355
  160SAPE    HY17866   0.553   6.878   6.850  1.3081  1.8895  0.1256
  160SAPE   O3117867   0.399   6.947   6.986 -0.2078  0.5365  0.2256
  160SAPE   C3117868   0.419   6.855   7.076 -0.1656 -0.0103 -0.2479
  160SAPE   O3217869   0.453   6.738   7.066 -0.8116  0.3419  0.1469
  160SAPE   C3217870   0.415   6.915   7.212  0.0765  0.2869  0.1826
  160SAPE   H2X17871   0.412   7.025   7.198 -0.8772  0.1029 -1.1233
  160SAPE   H2Y17872   0.510   6.885   7.262 -0.6225 -1.0359  0.7229
  160SAPE   C2317873   0.038   7.097   6.816  0.1472 -0.9449  0.2419
  160SAPE   H3R17874  -0.021   7.150   6.739 -0.6713  1.5551  2.5278
  160SAPE   H3S17875   0.145   7.122   6.799 -0.1511  0.7221  0.7648
  160SAPE   C2417876  -0.016   7.165   6.945  0.0360 -0.1841 -1.6848
  160SAPE   H4R17877   0.010   7.269   6.917  0.3004  0.2717  0.1790
  160SAPE   H4S17878   0.038   7.118   7.030 -0.5645  1.8979 -0.1113
  160SAPE   C2517879  -0.168   7.152   6.967 -0.6315 -0.0689  0.3310
  160SAPE   H5R17880  -0.223   7.201   6.886  0.7584  0.4246 -0.3144
  160SAPE   C2617881  -0.228   7.090   7.071 -0.5141  0.6561 -0.1989
  160SAPE   H6R17882  -0.337   7.087   7.062 -0.4126 -1.7827 -1.0264
  160SAPE   C2717883  -0.163   7.026   7.189  0.4872  0.6316  0.7055
  160SAPE   H7R17884  -0.220   7.062   7.277 -1.5267  2.6643 -1.3677
  160SAPE   H7S17885  -0.062   7.073   7.195  0.8110  0.1067 -0.3356
  160SAPE   C2817886  -0.135   6.874   7.199  0.3899 -0.2953 -0.1006
  160SAPE   H8R17887  -0.079   6.834   7.113 -0.5193 -1.7725 -0.0147
  160SAPE   C2917888  -0.180   6.786   7.288  0.1688  0.1303  0.1648
  160SAPE   H9R17889  -0.143   6.685   7.265 -3.1060 -1.4719  1.7355
  160SAPE  C21017890  -0.277   6.804   7.399 -0.0967 -0.0998  0.3258
  160SAPE  H10R17891  -0.369   6.763   7.353  0.4371 -0.9932  0.0453
  160SAPE  H10S17892  -0.289   6.911   7.426 -1.1596  0.1205 -0.9767
  160SAPE  C21117893  -0.246   6.712   7.514 -0.0574  0.0514  0.4137
  160SAPE  H11R17894  -0.222   6.611   7.477 -0.1872  0.6308 -1.3253
  160SAPE  C21217895  -0.211   6.750   7.642  0.2953  0.5969  0.7771
  160SAPE  H12R17896  -0.187   6.673   7.716 -2.6757 -1.9556 -0.8315
  160SAPE  C21317897  -0.227   6.888   7.703  0.6580  0.6634 -0.0982
  160SAPE  H13R17898  -0.325   6.898   7.756  0.4458  1.0202 -0.5578
  160SAPE  H13S17899  -0.234   6.959   7.618 -1.6102  1.1790  0.4859
  160SAPE  C21417900  -0.108   6.927   7.785 -0.4592 -1.0264 -0.3534
  160SAPE  H14R17901  -0.009   6.912   7.740 -1.2145  0.5745 -2.6432
  160SAPE  C21517902  -0.110   6.998   7.896 -0.7488  0.7179  0.5143
  160SAPE  H15R17903  -0.013   7.028   7.939 -0.9943  0.4758  1.2553
  160SAPE  C21617904  -0.233   7.064   7.961  0.3383  0.6806 -0.4018
  160SAPE  H16R17905  -0.326   7.066   7.901  0.1792 -1.6112 -0.2701
  160SAPE  H16S17906  -0.204   7.168   7.987 -1.0827  0.8401  0.6131
  160SAPE  C21717907  -0.279   6.990   8.094  0.1712 -0.0915  0.3582
  160SAPE  H17R17908  -0.327   6.891   8.082 -1.7468  0.6453  1.6116
  160SAPE  H17S17909  -0.370   7.047   8.123  0.2026  0.9626 -1.5190
  160SAPE  C21817910  -0.183   6.993   8.205  0.8593 -0.1044  0.7433
  160SAPE  H18R17911  -0.117   7.081   8.193 -0.5363  1.4876  4.1150
  160SAPE  H18S17912  -0.124   6.900   8.188  0.2018 -0.2185 -0.9391
  160SAPE  C21917913  -0.226   6.991   8.346  0.1168  0.5485 -0.3508
  160SAPE  H19R17914  -0.141   6.956   8.409  1.8254  1.4641 -2.0976
  160SAPE  H19S17915  -0.310   6.923   8.373  0.8331  0.1391  0.8987
  160SAPE  C22017916  -0.264   7.126   8.399  0.0003 -0.5724 -0.7571
  160SAPE  H20R17917  -0.172   7.185   8.418  0.6257 -1.9278  0.3911
  160SAPE  H20S17918  -0.315   7.110   8.496 -1.1037  2.9954 -0.6389
  160SAPE  H20T17919  -0.328   7.184   8.328  0.8872 -0.2913 -1.3369
  160SAPE   C3317920   0.301   6.857   7.297 -0.3664 -0.1475 -0.2599
  160SAPE   H3X17921   0.336   6.753   7.315  0.6293  0.5420  1.9825
  160SAPE   H3Y17922   0.213   6.847   7.230  0.8546 -0.5306 -1.8333
  160SAPE   C3417923   0.256   6.922   7.427 -0.8054 -0.2391  0.0836
  160SAPE   H4X17924   0.159   6.877   7.459 -0.1768 -1.6520  0.0275
  160SAPE   H4Y17925   0.234   7.031   7.415 -0.2440 -0.3026 -1.6785
  160SAPE   C3517926   0.356   6.899   7.547 -0.6489 -0.5583  0.1925
  160SAPE   H5X17927   0.455   6.941   7.521 -1.9866 -0.5488 -5.4081
  160SAPE   H5Y17928   0.352   6.789   7.564 -0.6359 -0.2508  2.3178
  160SAPE   C3617929   0.316   6.973   7.677 -0.1322 -0.9674  0.5103
  160SAPE   H6X17930   0.205   6.969   7.678 -0.2515  1.2158 -0.9635
  160SAPE   H6Y17931   0.331   7.080   7.652 -0.7781 -0.4365  2.2783
  160SAPE   C3717932   0.375   6.927   7.812 -1.0847  0.1373 -0.1065
  160SAPE   H7X17933   0.485   6.940   7.812 -1.1928  1.5524  2.7524
  160SAPE   H7Y17934   0.351   6.820   7.828 -0.6971  0.1548  0.6310
  160SAPE   C3817935   0.325   7.018   7.924 -0.1806  0.3959 -0.2760
  160SAPE   H8X17936   0.222   7.044   7.890 -0.0432  2.2864  0.6394
  160SAPE   H8Y17937   0.387   7.110   7.934  0.3849  0.0382 -0.4799
  160SAPE   C3917938   0.303   6.943   8.055  0.2113  0.1058 -0.3097
  160SAPE   H9X17939   0.403   6.901   8.080 -0.8315 -1.3496  1.6086
  160SAPE   H9Y17940   0.237   6.857   8.031  0.2751 -0.0496  0.0688
  160SAPE  C31017941   0.267   7.027   8.171 -0.4250 -0.7725 -0.2123
  160SAPE  H10X17942   0.171   7.066   8.130 -1.7162 -2.5096  1.0556
  160SAPE  H10Y17943   0.339   7.109   8.187 -0.7858  0.4239 -4.2166
  160SAPE  C31117944   0.226   6.965   8.310  0.1742  0.1382  0.8040
  160SAPE  H11X17945   0.315   6.907   8.341  1.6137  1.1771 -1.3000
  160SAPE  H11Y17946   0.140   6.895   8.301 -0.8453  1.3962  0.5750
  160SAPE  C31217947   0.188   7.080   8.410  0.2565  0.4467  0.1448
  160SAPE  H12X17948   0.096   7.122   8.365  0.2591 -0.2887 -0.5481
  160SAPE  H12Y17949   0.270   7.153   8.427 -0.3193  1.0148  0.5326
  160SAPE  C31317950   0.149   7.033   8.550 -0.3452  0.0406 -0.2111
  160SAPE  H13X17951   0.236   7.011   8.617  0.3090  0.8152 -0.7860
  160SAPE  H13Y17952   0.103   6.934   8.530  0.5799 -0.3799 -0.3199
  160SAPE  C31417953   0.058   7.131   8.632 -0.5407 -0.3101 -0.5071
  160SAPE  H14X17954   0.030   7.080   8.727 -1.6062  1.1521 -0.0201
  160SAPE  H14Y17955  -0.033   7.152   8.573 -0.7304  0.2512 -0.0196
  160SAPE  C31517956   0.115   7.268   8.675  0.1902  0.6258 -0.2073
  160SAPE  H15X17957   0.143   7.332   8.589 -1.0256  1.1271 -0.2384
  160SAPE  H15Y17958   0.213   7.245   8.722 -0.3858  0.0231  0.7359
  160SAPE  C31617959   0.044   7.350   8.780  0.0357  0.4111 -0.0881
  160SAPE  H16X17960   0.024   7.273   8.857 -0.1724  1.8459  1.3041
  160SAPE  H16Y17961  -0.052   7.394   8.745  0.3784  0.6754 -0.7070
  160SAPE  C31717962   0.117   7.466   8.857  0.2574 -0.4444  0.8957
  160SAPE  H17X17963   0.218   7.423   8.876 -0.0853 -1.4531  0.4284
  160SAPE  H17Y17964   0.067   7.484   8.954 -1.1843 -0.0734  0.0953
  160SAPE  C31817965   0.121   7.596   8.773  0.0056 -0.0400 -0.2167
  160SAPE  H18X17966   0.023   7.638   8.743 -0.7550 -0.8224  1.0939
  160SAPE  H18Y17967   0.165   7.578   8.673 -1.5274 -2.2277 -0.5534
  160SAPE  H18Z17968   0.184   7.670   8.826 -0.5550 -0.5498  1.1906
  161SOPE     N17969   5.605   1.896  10.656  0.2831  0.2791  0.5504
  161SOPE   HN117970   5.558   1.827  10.595 -2.2623  0.5041  2.1623
  161SOPE   HN217971   5.583   1.993  10.625  1.0899  0.2063 -0.2719
  161SOPE   HN317972   5.708   1.882  10.657  0.3412  0.7116  0.9752
  161SOPE   C1217973   5.550   1.878  10.800 -0.3652 -0.1631 -0.4160
  161SOPE  H12A17974   5.603   1.951  10.865 -1.5247 -1.3493  1.9281
  161SOPE  H12B17975   5.562   1.771  10.829  0.6088  0.5227  1.8590
  161SOPE   C1117976   5.405   1.908  10.814  0.3179 -0.1957  0.2016
  161SOPE  H11A17977   5.376   2.013  10.794  1.9068  0.1880 -0.0955
  161SOPE  H11B17978   5.365   1.889  10.916  0.3792 -0.6289  0.1457
  161SOPE     P17979   5.182   1.795  10.745 -0.1935  0.0330  0.1625
  161SOPE   O1317980   5.109   1.924  10.742  0.1980  0.3617 -0.3801
  161SOPE   O1417981   5.178   1.719  10.873  0.0723 -0.3661 -0.4116
  161SOPE   O1217982   5.335   1.823  10.718 -0.0180 -0.1572  0.5380
  161SOPE   O1117983   5.129   1.703  10.630  0.1156 -0.6256  0.6387
  161SOPE    C117984   5.217   1.605  10.569  0.4649 -1.1390  1.3388
  161SOPE    HA17985   5.241   1.523  10.639  2.3041 -0.1189  1.9205
  161SOPE    HB17986   5.308   1.658  10.535 -1.7639  2.0573 -0.0217
  161SOPE    C217987   5.146   1.551  10.436  0.6831 -0.0141  0.1488
  161SOPE    HS17988   5.200   1.461  10.401  1.7435  0.2628  1.0488
  161SOPE   O2117989   5.132   1.657  10.339  0.0817 -0.3931  0.4604
  161SOPE   C2117990   5.242   1.698  10.277  0.0015  1.3422 -0.5729
  161SOPE   O2217991   5.352   1.657  10.292 -0.6084 -0.1875 -0.0467
  161SOPE   C2217992   5.207   1.796  10.162  0.1543  0.4766  0.0023
  161SOPE   H2R17993   5.168   1.892  10.201 -1.8543 -0.9893  1.6954
  161SOPE   H2S17994   5.121   1.759  10.102 -0.4898 -0.9794  1.7821
  161SOPE    C317995   5.001   1.499  10.458  0.4407 -0.2267 -0.1966
  161SOPE    HX17996   4.942   1.587  10.490 -2.0147 -1.0143 -2.3471
  161SOPE    HY17997   5.006   1.421  10.537  0.7859 -1.4740 -1.4177
  161SOPE   O3117998   4.936   1.438  10.347 -0.1397 -0.2091 -0.0079
  161SOPE   C3117999   4.818   1.395  10.379  0.0055  0.1949  0.0776
  161SOPE   O3218000   4.774   1.376  10.491 -0.7249 -0.4876  0.3377
  161SOPE   C3218001   4.734   1.381  10.247 -0.6808 -0.9636  0.2180
  161SOPE   H2X18002   4.802   1.326  10.180  1.8306  0.5508  1.4550
  161SOPE   H2Y18003   4.716   1.487  10.216  2.9598 -1.0495 -2.4987
  161SOPE   C2318004   5.326   1.819  10.061 -0.4680 -0.1480  0.4637
  161SOPE   H3R18005   5.418   1.831  10.122 -0.9855 -0.6197  1.3430
  161SOPE   H3S18006   5.321   1.919  10.014  0.7005 -0.2676  0.0697
  161SOPE   C2418007   5.332   1.727   9.943  0.2039  0.5709  0.2607
  161SOPE   H4R18008   5.343   1.624   9.982  1.5772 -0.8519 -3.6923
  161SOPE   H4S18009   5.239   1.733   9.883 -2.0850  0.0735  3.6440
  161SOPE   C2518010   5.448   1.766   9.846  0.6632 -0.2263  0.4236
  161SOPE   H5R18011   5.459   1.876   9.849 -1.7702  0.0341  0.6367
  161SOPE   H5S18012   5.544   1.729   9.887  0.9589  0.7970  0.6764
  161SOPE   C2618013   5.429   1.719   9.699 -0.0049  0.1115 -0.9809
  161SOPE   H6R18014   5.463   1.614   9.697 -3.0111 -0.9197 -0.9595
  161SOPE   H6S18015   5.322   1.721   9.669 -0.2476  1.9401 -0.0748
  161SOPE   C2718016   5.510   1.804   9.604 -0.5758  0.1111 -0.2386
  161SOPE   H7R18017   5.462   1.903   9.594 -1.5405 -0.4471 -1.2569
  161SOPE   H7S18018   5.611   1.809   9.649 -1.5732 -1.9717  2.4180
  161SOPE   C2818019   5.515   1.725   9.473 -0.3324  0.2350 -0.3254
  161SOPE   H8R18020   5.596   1.652   9.496  2.1800  3.2879  0.8158
  161SOPE   H8S18021   5.419   1.676   9.445 -1.9647  3.2004 -0.0869
  161SOPE   C2918022   5.567   1.809   9.361  0.4396 -0.2463  0.3523
  161SOPE   H9118023   5.501   1.889   9.327  0.1375  0.1267  1.7621
  161SOPE  C21018024   5.687   1.795   9.298  0.3996  0.1040 -0.1264
  161SOPE  H10118025   5.716   1.874   9.228  0.6338  1.4888  1.5071
  161SOPE  C21118026   5.799   1.696   9.316  0.3030 -0.0079  0.7283
  161SOPE  H11R18027   5.838   1.675   9.214 -1.2264  1.2025 -0.1304
  161SOPE  H11S18028   5.756   1.604   9.360 -0.0403 -1.2738 -2.1567
  161SOPE  C21218029   5.927   1.731   9.390  0.1205 -0.0063  0.5090
  161SOPE  H12R18030   5.986   1.790   9.316 -0.8707 -0.6267 -0.8069
  161SOPE  H12S18031   5.985   1.638   9.405  1.4647  0.6315 -0.5757
  161SOPE  C21318032   5.909   1.804   9.519 -0.2489  0.4634 -0.4632
  161SOPE  H13R18033   5.831   1.884   9.522  0.6393  1.3212  0.0519
  161SOPE  H13S18034   6.011   1.849   9.526  0.1791 -0.5767  0.0158
  161SOPE  C21418035   5.868   1.713   9.636  0.3920 -0.2144  0.1350
  161SOPE  H14R18036   5.943   1.632   9.624  0.3112 -0.0991 -1.2595
  161SOPE  H14S18037   5.766   1.673   9.616  0.9049 -1.0407 -0.8628
  161SOPE  C21518038   5.906   1.785   9.770 -0.3584 -0.0419 -0.3870
  161SOPE  H15R18039   6.004   1.832   9.751 -0.4771 -0.2848 -1.6748
  161SOPE  H15S18040   5.908   1.708   9.850  2.1842  1.1808  0.7475
  161SOPE  C21618041   5.810   1.895   9.828 -0.2787 -0.2916 -0.1376
  161SOPE  H16R18042   5.705   1.865   9.845 -0.7148  1.2139 -0.1172
  161SOPE  H16S18043   5.825   1.982   9.759  0.1428  2.4109  3.2318
  161SOPE  C21718044   5.867   1.931   9.962 -0.1415 -0.1757 -0.4691
  161SOPE  H17R18045   5.974   1.957   9.948 -0.1027 -0.3169 -0.4337
  161SOPE  H17S18046   5.858   1.848  10.035  0.3711  1.2600  1.2432
  161SOPE  C21818047   5.799   2.052  10.020  0.2731 -0.2303 -0.3929
  161SOPE  H18R18048   5.798   2.139   9.951 -0.0168 -0.8177 -1.1371
  161SOPE  H18S18049   5.861   2.084  10.106 -0.6495 -0.1260  0.2294
  161SOPE  H18T18050   5.696   2.024  10.051  0.1481 -0.0036 -0.6066
  161SOPE   C3318051   4.614   1.297  10.269  0.1883 -0.0782  0.6579
  161SOPE   H3X18052   4.548   1.329  10.353 -0.0023 -0.0194  0.4850
  161SOPE   H3Y18053   4.635   1.188  10.280 -0.7374 -0.5082 -1.6146
  161SOPE   C3418054   4.525   1.293  10.141 -0.2744  0.3938  0.1597
  161SOPE   H4X18055   4.546   1.389  10.088  0.5334 -1.5438 -3.1792
  161SOPE   H4Y18056   4.420   1.293  10.177  0.4670  2.1364  2.4090
  161SOPE   C3518057   4.550   1.173  10.050  0.6294 -0.0295 -0.2595
  161SOPE   H5X18058   4.517   1.083  10.106 -1.7504  0.0665 -1.4231
  161SOPE   H5Y18059   4.659   1.160  10.031  0.6005 -1.6459  0.5832
  161SOPE   C3618060   4.465   1.173   9.926  0.5880  0.1364 -0.2522
  161SOPE   H6X18061   4.360   1.177   9.961 -0.0551  0.3052 -2.1410
  161SOPE   H6Y18062   4.493   1.086   9.862  1.1248 -0.2452  0.5000
  161SOPE   C3718063   4.490   1.307   9.841  0.7793  0.2387 -0.5663
  161SOPE   H7X18064   4.601   1.309   9.849  0.7251  0.7160  0.0664
  161SOPE   H7Y18065   4.444   1.399   9.883  0.1234 -0.2411 -0.2359
  161SOPE   C3818066   4.452   1.273   9.692 -0.0723  0.4329 -0.0771
  161SOPE   H8X18067   4.341   1.267   9.691 -0.1946  2.2793 -2.0674
  161SOPE   H8Y18068   4.505   1.185   9.651  1.1342  1.0583  0.1165
  161SOPE   C3918069   4.493   1.391   9.601  0.2843  0.5146  0.1876
  161SOPE   H9X18070   4.595   1.427   9.626 -0.6080  4.0831 -1.1034
  161SOPE   H9Y18071   4.410   1.465   9.608  1.2078  1.4614  1.2790
  161SOPE  C31018072   4.503   1.357   9.454  0.7924 -0.5959 -0.2184
  161SOPE  H10X18073   4.404   1.320   9.420 -0.7573  2.1550  1.0380
  161SOPE  H10Y18074   4.585   1.285   9.433  3.6510  1.9703  1.7359
  161SOPE  C31118075   4.552   1.481   9.374 -0.2177  0.3019  0.2474
  161SOPE  H11X18076   4.640   1.520   9.430  1.3715  0.1574 -2.0702
  161SOPE  H11Y18077   4.462   1.546   9.381  0.6410  1.5725 -0.3762
  161SOPE  C31218078   4.589   1.450   9.232  0.0935 -0.1516 -0.0233
  161SOPE  H12X18079   4.504   1.396   9.184 -2.6020  1.2641  2.9529
  161SOPE  H12Y18080   4.681   1.390   9.217  0.2910  0.2477 -0.4119
  161SOPE  C31318081   4.612   1.573   9.141  0.1348  0.0033 -0.3025
  161SOPE  H13X18082   4.700   1.634   9.171 -0.2804 -0.2808  1.5562
  161SOPE  H13Y18083   4.521   1.637   9.140 -0.9418 -1.4530  1.7589
  161SOPE  C31418084   4.635   1.522   8.993 -0.9401 -1.0465  0.1213
  161SOPE  H14X18085   4.558   1.452   8.954 -0.9629  0.0285 -1.8373
  161SOPE  H14Y18086   4.723   1.455   8.982 -0.3242 -0.4979  1.5641
  161SOPE  C31518087   4.649   1.634   8.893  0.2675  0.0162  0.5887
  161SOPE  H15X18088   4.671   1.590   8.793  0.0750 -1.6924  1.2954
  161SOPE  H15Y18089   4.741   1.688   8.923  0.0192  1.0711 -0.4791
  161SOPE  C31618090   4.535   1.740   8.892  0.2122 -0.0571 -0.2668
  161SOPE  H16X18091   4.517   1.771   8.997 -1.5898 -0.0208 -0.5756
  161SOPE  H16Y18092   4.444   1.689   8.855 -0.1913  1.1501 -0.9850
  161SOPE  C31718093   4.562   1.869   8.805 -0.4416  0.5955 -0.1492
  161SOPE  H17X18094   4.628   1.842   8.720 -1.5425 -1.2485 -0.4638
  161SOPE  H17Y18095   4.609   1.942   8.874 -0.4668  1.1918 -0.7523
  161SOPE  C31818096   4.438   1.943   8.744 -0.7293 -0.1235  0.0502
  161SOPE  H18X18097   4.461   2.049   8.721  1.1333  0.4356  3.9734
  161SOPE  H18Y18098   4.365   1.939   8.827  0.4035 -2.0482  1.0060
  161SOPE  H18Z18099   4.394   1.888   8.659  0.2664  0.1975 -0.6840
  162SOPE     N18100   3.764   2.017  11.071 -0.2171 -0.1234 -0.6224
  162SOPE   HN118101   3.822   1.986  11.152 -2.0495 -1.7359  0.1100
  162SOPE   HN218102   3.790   2.116  11.057  0.1946 -0.3307 -1.3249
  162SOPE   HN318103   3.668   2.009  11.109 -0.2556 -0.9532 -0.8941
  162SOPE   C1218104   3.799   1.926  10.962  0.4883  0.4978  0.4940
  162SOPE  H12A18105   3.902   1.956  10.933  0.0381  2.6583  1.0470
  162SOPE  H12B18106   3.739   1.961  10.875  1.4971 -0.7625 -0.7107
  162SOPE   C1118107   3.776   1.774  10.991  1.0818  0.6821 -0.3202
  162SOPE  H11A18108   3.856   1.745  11.062  1.6035 -0.0950 -1.2103
  162SOPE  H11B18109   3.792   1.702  10.908  1.0638 -1.2323  1.2865
  162SOPE     P18110   3.515   1.758  10.949  0.1474 -0.2109 -0.1839
  162SOPE   O1318111   3.500   1.899  10.903 -0.2079  0.2918 -0.0063
  162SOPE   O1418112   3.406   1.693  11.022  0.2014 -0.3660  0.2062
  162SOPE   O1218113   3.646   1.755  11.041  0.3189 -0.0200  0.3548
  162SOPE   O1118114   3.546   1.662  10.831  0.1996 -0.3857 -0.3069
  162SOPE    C118115   3.489   1.536  10.832  0.1580  0.2592 -0.5004
  162SOPE    HA18116   3.380   1.536  10.811  0.0724 -1.8106 -0.1377
  162SOPE    HB18117   3.507   1.488  10.931 -0.0713  1.6047  0.2092
  162SOPE    C218118   3.544   1.440  10.723 -0.0063  0.2510 -0.5883
  162SOPE    HS18119   3.651   1.417  10.747 -0.8402 -3.2995  0.0413
  162SOPE   O2118120   3.546   1.502  10.592  0.0762  0.0050  0.3140
  162SOPE   C2118121   3.548   1.426  10.479  0.4402 -0.3002 -0.1142
  162SOPE   O2218122   3.563   1.305  10.478 -0.3797 -1.1508  0.0361
  162SOPE   C2218123   3.537   1.530  10.365 -0.2919 -0.0639  0.2456
  162SOPE   H2R18124   3.575   1.625  10.407  0.7715 -1.3718  2.3383
  162SOPE   H2S18125   3.427   1.545  10.353 -0.2997  0.3737  0.8434
  162SOPE    C318126   3.456   1.306  10.733 -0.1561  0.4739 -0.3537
  162SOPE    HX18127   3.438   1.307  10.843 -1.0621  4.2178 -0.4699
  162SOPE    HY18128   3.519   1.218  10.708  0.3429  0.3846  1.1409
  162SOPE   O3118129   3.333   1.311  10.658  0.3198 -0.6359 -0.1422
  162SOPE   C3118130   3.281   1.189  10.639  0.0361 -0.2838  0.2566
  162SOPE   O3218131   3.339   1.083  10.665 -0.6476  0.1490  0.7117
  162SOPE   C3218132   3.149   1.192  10.561 -0.1314  0.5726 -0.1958
  162SOPE   H2X18133   3.058   1.169  10.622 -1.2576  0.2704 -1.9661
  162SOPE   H2Y18134   3.155   1.119  10.478  0.1245  1.4107 -0.9226
  162SOPE   C2318135   3.601   1.499  10.236  0.4434  0.0209 -0.0413
  162SOPE   H3R18136   3.563   1.397  10.217  3.9565 -1.6674  1.3641
  162SOPE   H3S18137   3.712   1.490  10.241  0.3051 -2.4735 -1.0467
  162SOPE   C2418138   3.566   1.598  10.126 -0.0543 -0.1256  0.4381
  162SOPE   H4R18139   3.455   1.602  10.113  0.1163  5.0183 -0.4374
  162SOPE   H4S18140   3.603   1.701  10.149  1.9762 -0.5332 -0.8505
  162SOPE   C2518141   3.636   1.559   9.993 -0.1805 -0.9468  0.8737
  162SOPE   H5R18142   3.745   1.563  10.012 -0.1621 -1.0926  0.7948
  162SOPE   H5S18143   3.624   1.449   9.993  2.8783 -1.3319  2.8321
  162SOPE   C2618144   3.598   1.634   9.861 -0.4784  0.1214  0.1476
  162SOPE   H6R18145   3.500   1.590   9.836 -0.6251  0.6144 -0.1525
  162SOPE   H6S18146   3.595   1.743   9.882 -2.1059 -0.0134  0.6979
  162SOPE   C2718147   3.697   1.595   9.750 -0.1559  0.6244  0.0854
  162SOPE   H7R18148   3.798   1.586   9.795  0.0145 -0.8738 -0.5515
  162SOPE   H7S18149   3.677   1.491   9.715  0.5774  0.1815  0.9669
  162SOPE   C2818150   3.700   1.679   9.614 -0.2167 -0.0174 -0.1545
  162SOPE   H8R18151   3.752   1.776   9.624  1.1683 -0.8501  0.8882
  162SOPE   H8S18152   3.766   1.629   9.540  2.4316  2.2989  0.5941
  162SOPE   C2918153   3.560   1.696   9.560 -0.4172 -0.3035 -0.8915
  162SOPE   H9118154   3.471   1.682   9.624  0.1098 -0.8969 -0.2870
  162SOPE  C21018155   3.551   1.722   9.431  0.4988 -0.8133  1.0397
  162SOPE  H10118156   3.451   1.741   9.389 -0.0982 -2.4016  1.6983
  162SOPE  C21118157   3.662   1.734   9.336  0.2257 -0.2027  0.3012
  162SOPE  H11R18158   3.672   1.642   9.274  1.3484  1.1402 -1.5559
  162SOPE  H11S18159   3.760   1.753   9.385  0.8827 -1.8369 -0.3555
  162SOPE  C21218160   3.653   1.851   9.232  0.1564 -0.1509 -0.5250
  162SOPE  H12R18161   3.549   1.856   9.193 -0.4029 -0.7602  0.8613
  162SOPE  H12S18162   3.726   1.835   9.150  1.4848  1.1818  0.3695
  162SOPE  C21318163   3.704   1.979   9.295  0.5623 -0.4616  0.0358
  162SOPE  H13R18164   3.792   1.960   9.359  1.2877  0.0363 -0.8042
  162SOPE  H13S18165   3.627   2.023   9.361  0.6758 -0.4500  0.1579
  162SOPE  C21418166   3.731   2.084   9.178 -0.4097  0.0653  0.2279
  162SOPE  H14R18167   3.816   2.035   9.126 -0.0422 -0.3312  1.1870
  162SOPE  H14S18168   3.785   2.175   9.210  1.3510 -0.9593  0.2275
  162SOPE  C21518169   3.610   2.125   9.096  0.1450 -0.3159  0.7923
  162SOPE  H15R18170   3.534   2.179   9.156  0.2239 -1.2610  1.7515
  162SOPE  H15S18171   3.569   2.032   9.049  0.3795  0.1319 -0.3091
  162SOPE  C21618172   3.653   2.221   8.980  0.3828 -0.6989  0.2044
  162SOPE  H16R18173   3.565   2.224   8.912  0.1692  0.5904  0.5269
  162SOPE  H16S18174   3.739   2.179   8.923  0.9269  0.5677  0.0817
  162SOPE  C21718175   3.665   2.373   9.010  0.4840 -0.5511  0.4993
  162SOPE  H17R18176   3.598   2.397   9.095 -2.5282  2.5325 -2.5826
  162SOPE  H17S18177   3.620   2.423   8.922  0.3094 -1.3493  0.1258
  162SOPE  C21818178   3.813   2.414   9.026 -0.5113  0.2020  0.2625
  162SOPE  H18R18179   3.820   2.517   9.068 -0.7032  1.3014 -2.2986
  162SOPE  H18S18180   3.881   2.406   8.939  0.3201 -0.5661  0.9703
  162SOPE  H18T18181   3.859   2.347   9.102 -1.5923  0.4799  1.1764
  162SOPE   C3318182   3.126   1.335  10.489  0.4933  0.5245 -0.0016
  162SOPE   H3X18183   3.219   1.362  10.436  0.8659  1.0221  0.9007
  162SOPE   H3Y18184   3.098   1.406  10.569 -1.8316 -1.8584  1.3973
  162SOPE   C3418185   3.005   1.318  10.398 -0.7963  0.0570 -0.2642
  162SOPE   H4X18186   2.915   1.318  10.463 -0.8971  0.6346 -0.4007
  162SOPE   H4Y18187   3.015   1.224  10.340  1.2879  0.1367 -0.0848
  162SOPE   C3518188   2.984   1.438  10.297 -0.3022 -0.2460 -0.3294
  162SOPE   H5X18189   2.983   1.539  10.342  0.7724 -0.6590  0.6473
  162SOPE   H5Y18190   2.896   1.420  10.232 -0.8629 -1.8608  0.8368
  162SOPE   C3618191   3.096   1.444  10.201  0.1587 -0.5233  0.7864
  162SOPE   H6X18192   3.196   1.408  10.232  0.6918  1.2982  1.2004
  162SOPE   H6Y18193   3.107   1.547  10.162 -2.8252 -0.9166 -1.3806
  162SOPE   C3718194   3.071   1.361  10.069  1.3018  0.5479 -0.7494
  162SOPE   H7X18195   2.973   1.388  10.024 -0.5862  2.0290  3.9547
  162SOPE   H7Y18196   3.043   1.258  10.100  0.2359  1.4819  1.4900
  162SOPE   C3818197   3.189   1.347   9.974 -0.3716 -0.3582 -0.1409
  162SOPE   H8X18198   3.265   1.277  10.014  2.1255  1.2994 -1.7738
  162SOPE   H8Y18199   3.251   1.439   9.973 -1.3177  0.2843  0.0794
  162SOPE   C3918200   3.150   1.316   9.831 -0.1341 -0.2789 -0.2586
  162SOPE   H9X18201   3.087   1.393   9.783  0.7084 -0.5109 -1.7415
  162SOPE   H9Y18202   3.092   1.221   9.834 -0.7947  0.1103 -0.4911
  162SOPE  C31018203   3.279   1.292   9.753 -0.3041  0.6600  0.3923
  162SOPE  H10X18204   3.320   1.191   9.776  0.4334  1.1603  1.3053
  162SOPE  H10Y18205   3.358   1.364   9.785 -1.3919  1.9521  0.1751
  162SOPE  C31118206   3.264   1.303   9.604  0.5069  0.7921 -0.1864
  162SOPE  H11X18207   3.183   1.233   9.575  0.0380  0.0214  2.7771
  162SOPE  H11Y18208   3.362   1.285   9.554  0.3844 -0.7741  0.1146
  162SOPE  C31218209   3.216   1.438   9.551  0.0556  0.2502 -0.0080
  162SOPE  H12X18210   3.289   1.508   9.597 -1.2061  2.1047 -0.7248
  162SOPE  H12Y18211   3.116   1.461   9.596  0.0703 -1.3394  0.8501
  162SOPE  C31318212   3.201   1.458   9.399  0.4692 -0.2451  0.1972
  162SOPE  H13X18213   3.291   1.425   9.342 -0.4968 -4.0573  0.7440
  162SOPE  H13Y18214   3.188   1.566   9.380 -1.8154 -0.3925  0.8372
  162SOPE  C31418215   3.102   1.364   9.337  0.2574  0.2213  0.0669
  162SOPE  H14X18216   2.997   1.398   9.348  0.5893  1.3229 -0.0886
  162SOPE  H14Y18217   3.114   1.263   9.381  1.3921  1.1262  1.9049
  162SOPE  C31518218   3.109   1.335   9.183  1.0883  0.3489  0.5805
  162SOPE  H15X18219   3.028   1.261   9.169  1.8397 -0.4278  0.2975
  162SOPE  H15Y18220   3.211   1.297   9.161 -0.1586 -1.4913 -2.2220
  162SOPE  C31618221   3.095   1.463   9.093  0.3699 -0.2431 -0.1941
  162SOPE  H16X18222   3.200   1.497   9.080  0.4004 -0.5152 -0.6740
  162SOPE  H16Y18223   3.043   1.542   9.150  0.3775 -1.2333  1.2116
  162SOPE  C31718224   3.022   1.441   8.963 -0.1439  0.7634 -0.5712
  162SOPE  H17X18225   3.015   1.538   8.909 -0.8911  1.7081  1.1955
  162SOPE  H17Y18226   2.918   1.409   8.985  0.3644 -0.0793  0.6815
  162SOPE  C31818227   3.098   1.339   8.878  0.2269  0.4110  0.2865
  162SOPE  H18X18228   3.039   1.309   8.789  0.6936 -0.0825  0.1458
  162SOPE  H18Y18229   3.120   1.240   8.923 -0.4859 -0.1394 -0.5458
  162SOPE  H18Z18230   3.194   1.374   8.835  0.5125 -0.1100  0.5065
  163SOPE     N18231   3.682   5.991  11.122  0.5268  0.0224  0.0043
  163SOPE   HN118232   3.644   5.899  11.151  1.1521  0.0218  0.8672
  163SOPE   HN218233   3.784   5.990  11.099  0.9297  0.3549  1.6671
  163SOPE   HN318234   3.675   6.061  11.200 -0.4284  0.0464 -0.1058
  163SOPE   C1218235   3.621   6.040  10.993 -0.3950 -0.1933  0.3707
  163SOPE  H12A18236   3.566   6.136  11.009 -0.5812 -0.2298 -0.0418
  163SOPE  H12B18237   3.554   5.959  10.957  0.2448 -1.2484  1.5319
  163SOPE   C1118238   3.728   6.062  10.886  0.1805  0.5109 -0.3446
  163SOPE  H11A18239   3.800   6.144  10.908  1.2661 -0.5911  0.2811
  163SOPE  H11B18240   3.677   6.086  10.790 -1.8599  0.4478  0.6819
  163SOPE     P18241   3.741   5.803  10.809 -0.2544 -0.0656  0.0841
  163SOPE   O1318242   3.661   5.729  10.912 -0.2974  0.3190  0.4022
  163SOPE   O1418243   3.856   5.728  10.747 -0.5035  0.1164  0.3796
  163SOPE   O1218244   3.803   5.936  10.873 -0.1298 -0.1369  0.3104
  163SOPE   O1118245   3.639   5.850  10.700 -1.1754 -0.0043  0.5265
  163SOPE    C118246   3.693   5.920  10.586 -0.1975  0.4751  0.3445
  163SOPE    HA18247   3.783   5.979  10.611  0.3982  0.7167 -2.2786
  163SOPE    HB18248   3.607   5.981  10.552 -0.5606  0.1657  0.6912
  163SOPE    C218249   3.760   5.823  10.483 -0.4141 -0.3819  0.1080
  163SOPE    HS18250   3.843   5.757  10.518  1.4496  0.3521 -2.7368
  163SOPE   O2118251   3.795   5.900  10.370  0.4771 -0.1742  0.0510
  163SOPE   C2118252   3.907   5.967  10.371 -0.7575  0.7275 -0.6137
  163SOPE   O2218253   4.000   5.953  10.455 -0.2484  0.4696 -0.7197
  163SOPE   C2218254   3.906   6.054  10.252 -0.1855 -0.8062  0.5451
  163SOPE   H2R18255   3.911   6.157  10.295 -5.4733 -0.6346  1.0981
  163SOPE   H2S18256   3.811   6.047  10.195  0.7588  2.6120 -1.6366
  163SOPE    C318257   3.655   5.727  10.434  0.0148  0.8453  0.4657
  163SOPE    HX18258   3.571   5.786  10.393  1.2274  2.9046  0.8684
  163SOPE    HY18259   3.605   5.673  10.517 -0.4569 -0.5932 -0.7306
  163SOPE   O3118260   3.714   5.641  10.333  0.7884 -0.6509 -0.1508
  163SOPE   C3118261   3.759   5.529  10.386 -0.4147  0.3959 -0.2931
  163SOPE   O3218262   3.771   5.495  10.503  0.6771 -0.5612 -0.2144
  163SOPE   C3218263   3.786   5.422  10.273  0.4503 -0.3500  0.2669
  163SOPE   H2X18264   3.686   5.374  10.264 -0.1053  1.1837 -2.3044
  163SOPE   H2Y18265   3.858   5.349  10.315  0.9986  0.6870  1.1558
  163SOPE   C2318266   4.022   6.040  10.150 -0.4136  0.0495 -0.1733
  163SOPE   H3R18267   4.047   5.936  10.121 -1.1778  0.3581 -2.0259
  163SOPE   H3S18268   4.117   6.065  10.202  1.4352 -1.2146 -2.8382
  163SOPE   C2418269   4.017   6.131  10.029 -0.0943 -0.6367 -0.6996
  163SOPE   H4R18270   3.998   6.232  10.071 -1.6120 -0.1710 -2.4311
  163SOPE   H4S18271   4.119   6.131   9.985  0.3245  0.8258  0.2624
  163SOPE   C2518272   3.920   6.087   9.919 -0.1029  0.2496  0.5141
  163SOPE   H5R18273   3.933   5.979   9.896  1.0662  0.2519  1.1268
  163SOPE   H5S18274   3.815   6.115   9.943 -0.9278  0.5551 -3.1567
  163SOPE   C2618275   3.940   6.179   9.796 -0.4422 -0.3827  0.2264
  163SOPE   H6R18276   3.892   6.276   9.820  0.1493 -0.4433  1.7114
  163SOPE   H6S18277   4.048   6.187   9.773  0.1253 -0.5183  2.6949
  163SOPE   C2718278   3.878   6.115   9.671 -0.6925 -0.0606 -0.7803
  163SOPE   H7R18279   3.907   6.008   9.664 -1.4846 -0.2664 -0.9233
  163SOPE   H7S18280   3.768   6.120   9.683 -0.9623 -0.6748 -2.8270
  163SOPE   C2818281   3.903   6.200   9.548 -0.3366 -0.4921 -0.1452
  163SOPE   H8R18282   3.817   6.184   9.478 -1.4974  0.8145  0.9471
  163SOPE   H8S18283   3.894   6.308   9.575 -1.2525 -0.1963 -1.5531
  163SOPE   C2918284   4.043   6.160   9.495 -0.0288  0.2789  0.5937
  163SOPE   H9118285   4.105   6.104   9.567 -1.6116  0.2627  1.9676
  163SOPE  C21018286   4.094   6.196   9.376  0.1079  0.4564 -0.0911
  163SOPE  H10118287   4.200   6.178   9.352 -0.0358  0.9316 -1.1165
  163SOPE  C21118288   4.018   6.280   9.277 -0.1648 -0.0350 -0.0623
  163SOPE  H11R18289   4.086   6.365   9.258  1.9476 -1.5159  0.5750
  163SOPE  H11S18290   3.928   6.331   9.316  1.1732  1.1387  1.6101
  163SOPE  C21218291   4.000   6.214   9.138 -0.3269  0.5019 -0.0771
  163SOPE  H12R18292   3.909   6.153   9.154 -0.2428  0.9345  2.3036
  163SOPE  H12S18293   4.090   6.153   9.115  0.4717  1.4358  0.5360
  163SOPE  C21318294   3.982   6.293   9.011 -0.0590  0.7277  0.3049
  163SOPE  H13R18295   3.907   6.369   9.041  1.0997  1.8702  0.3461
  163SOPE  H13S18296   3.945   6.232   8.926  2.8287 -1.1571  0.3182
  163SOPE  C21418297   4.108   6.367   8.974 -0.0750 -0.0980 -0.2212
  163SOPE  H14R18298   4.155   6.407   9.066 -2.9849 -0.1034  1.3124
  163SOPE  H14S18299   4.089   6.450   8.902  1.0674 -1.4071 -2.0925
  163SOPE  C21518300   4.222   6.272   8.904 -0.0635 -0.2582 -0.5755
  163SOPE  H15R18301   4.254   6.190   8.973 -1.5925 -1.0482 -0.7933
  163SOPE  H15S18302   4.304   6.345   8.887 -0.7473  0.3163 -1.4052
  163SOPE  C21618303   4.188   6.206   8.770  0.7399  0.8574  0.1695
  163SOPE  H16R18304   4.123   6.276   8.712 -1.0643  0.1410  1.2822
  163SOPE  H16S18305   4.123   6.119   8.793  0.0247  1.8223  1.8261
  163SOPE  C21718306   4.311   6.164   8.696  0.4595 -0.3452 -0.0724
  163SOPE  H17R18307   4.374   6.111   8.771  1.3195 -1.0034 -1.2560
  163SOPE  H17S18308   4.365   6.255   8.665 -2.0335  0.6665 -1.5406
  163SOPE  C21818309   4.296   6.069   8.575  0.4131 -0.8114 -0.1317
  163SOPE  H18R18310   4.215   6.111   8.512  0.6725  1.4703  1.0248
  163SOPE  H18S18311   4.286   5.962   8.604  1.2982 -1.2764 -1.5138
  163SOPE  H18T18312   4.380   6.074   8.503  1.8021  1.8735  1.6004
  163SOPE   C3318313   3.834   5.484  10.137 -0.3335  0.0513  0.1221
  163SOPE   H3X18314   3.776   5.572  10.103  1.6340  1.1916 -0.3393
  163SOPE   H3Y18315   3.840   5.405  10.059 -0.2137  1.3171 -1.1574
  163SOPE   C3418316   3.980   5.525  10.156  1.3212  0.0954 -0.2787
  163SOPE   H4X18317   4.034   5.428  10.165 -3.0478 -2.3985 -0.0262
  163SOPE   H4Y18318   3.985   5.565  10.260  1.0251 -0.8482  0.0986
  163SOPE   C3518319   4.034   5.616  10.047  1.2085 -0.1698 -0.0079
  163SOPE   H5X18320   3.991   5.714  10.076 -0.0538 -1.3922  2.3844
  163SOPE   H5Y18321   4.002   5.575   9.949  0.0121  0.6060  0.0433
  163SOPE   C3618322   4.182   5.629  10.049  0.1997 -0.2233  0.0192
  163SOPE   H6X18323   4.239   5.534  10.037 -1.2150 -0.7869 -2.6586
  163SOPE   H6Y18324   4.211   5.665  10.150  2.0865 -1.4380 -0.0700
  163SOPE   C3718325   4.231   5.744   9.952 -0.4476 -0.4906 -0.1509
  163SOPE   H7X18326   4.337   5.774   9.968 -0.4178 -0.3913 -0.5354
  163SOPE   H7Y18327   4.165   5.833   9.966 -1.0470 -0.8458 -0.6892
  163SOPE   C3818328   4.224   5.697   9.804 -0.0810  0.0819 -0.1746
  163SOPE   H8X18329   4.121   5.658   9.790 -0.1187  0.3175 -0.5796
  163SOPE   H8Y18330   4.297   5.614   9.790  1.5136  0.8986  2.8807
  163SOPE   C3918331   4.238   5.814   9.702 -0.0517 -0.7645 -0.0536
  163SOPE   H9X18332   4.336   5.860   9.727  1.1490 -2.9323 -0.6358
  163SOPE   H9Y18333   4.153   5.884   9.709 -0.3596 -0.9245 -1.9241
  163SOPE  C31018334   4.241   5.759   9.556 -0.6481  0.2852  0.6244
  163SOPE  H10X18335   4.150   5.697   9.542 -0.2932  0.2313 -1.5652
  163SOPE  H10Y18336   4.336   5.701   9.549  0.5914  2.3710 -0.5541
  163SOPE  C31118337   4.251   5.871   9.450  0.0244  0.5182  0.4653
  163SOPE  H11X18338   4.341   5.934   9.466  0.7150 -0.4401  0.4299
  163SOPE  H11Y18339   4.162   5.938   9.449 -1.4985 -1.4620  0.0736
  163SOPE  C31218340   4.265   5.807   9.315 -0.3599  0.0728  0.6003
  163SOPE  H12X18341   4.172   5.756   9.282  1.2449 -2.8279  0.3714
  163SOPE  H12Y18342   4.340   5.725   9.319  0.0712  0.3377 -1.2882
  163SOPE  C31318343   4.303   5.904   9.202 -0.1438 -0.6522 -0.1216
  163SOPE  H13X18344   4.385   5.965   9.245  0.1824 -0.9206 -0.3624
  163SOPE  H13Y18345   4.224   5.979   9.179  0.7565 -0.1047 -1.4599
  163SOPE  C31418346   4.348   5.835   9.069 -0.2491 -0.3131  0.5253
  163SOPE  H14X18347   4.370   5.727   9.082  1.9545 -0.2917 -2.6171
  163SOPE  H14Y18348   4.439   5.887   9.033 -1.2140  0.1172 -1.3662
  163SOPE  C31518349   4.239   5.849   8.964 -0.1980 -0.0882 -0.4948
  163SOPE  H15X18350   4.291   5.838   8.866  1.7514 -0.7085  0.5853
  163SOPE  H15Y18351   4.180   5.943   8.967  3.2964  2.2158 -1.6679
  163SOPE  C31618352   4.133   5.736   8.975 -0.0295  1.0096  0.3192
  163SOPE  H16X18353   4.086   5.729   9.075 -0.5705  0.0145  0.0064
  163SOPE  H16Y18354   4.194   5.646   8.950 -0.8089  0.7987 -0.8753
  163SOPE  C31718355   4.022   5.756   8.871 -0.5503 -0.6465  0.2628
  163SOPE  H17X18356   4.049   5.753   8.764  2.1247 -1.2064  0.9109
  163SOPE  H17Y18357   3.986   5.858   8.895  1.3422  0.2422 -0.5049
  163SOPE  C31818358   3.901   5.659   8.879 -0.7048 -0.1822  0.7442
  163SOPE  H18X18359   3.812   5.708   8.834 -0.4133 -0.4991 -0.1793
  163SOPE  H18Y18360   3.874   5.642   8.986 -1.4750  0.0259  0.5843
  163SOPE  H18Z18361   3.918   5.558   8.836  1.5526  1.6346 -2.8277
  164SOPE     N18362   0.255   3.591  10.744 -0.1899  0.4710  0.2945
  164SOPE   HN118363   0.157   3.583  10.709  0.7024 -1.8962 -1.8793
  164SOPE   HN218364   0.320   3.611  10.665 -0.6086  2.1855  0.3562
  164SOPE   HN318365   0.275   3.501  10.793  1.8452 -0.4086 -2.0466
  164SOPE   C1218366   0.287   3.706  10.834 -0.1760 -0.4089 -0.2099
  164SOPE  H12A18367   0.392   3.742  10.829  0.4399 -2.1326  0.1227
  164SOPE  H12B18368   0.291   3.658  10.934  1.1085 -2.7489 -1.3507
  164SOPE   C1118369   0.178   3.819  10.803 -0.7810  0.0560  0.0979
  164SOPE  H11A18370   0.205   3.866  10.706  0.1733 -1.4425 -0.3831
  164SOPE  H11B18371   0.188   3.899  10.879 -0.2728  0.6146 -0.5490
  164SOPE     P18372  -0.077   3.852  10.830 -0.5738  0.0248  0.1039
  164SOPE   O1318373  -0.042   3.951  10.935  0.0592 -0.4142 -0.1248
  164SOPE   O1418374  -0.185   3.759  10.864  0.5154  0.0667  0.0991
  164SOPE   O1218375   0.048   3.760  10.796 -0.1155  0.2106 -0.2056
  164SOPE   O1118376  -0.120   3.918  10.700  0.6395 -0.2588 -0.1955
  164SOPE    C118377  -0.074   3.871  10.574  0.8368 -0.1794 -0.1773
  164SOPE    HA18378  -0.092   3.762  10.560  2.3942 -0.2495 -1.8990
  164SOPE    HB18379   0.037   3.880  10.568  0.7338  0.5661 -1.1175
  164SOPE    C218380  -0.158   3.935  10.461 -0.3267 -0.3676 -0.2566
  164SOPE    HS18381  -0.141   3.870  10.373  1.6445  0.2523 -0.3565
  164SOPE   O2118382  -0.112   4.067  10.431 -0.7311  0.8721  0.2177
  164SOPE   C2118383   0.003   4.073  10.370  0.6682  0.3314 -0.3252
  164SOPE   O2218384   0.072   3.978  10.332  1.0681 -0.8324 -0.1800
  164SOPE   C2218385   0.022   4.222  10.334 -0.2991 -0.0398 -0.7048
  164SOPE   H2R18386   0.125   4.220  10.293 -0.1269  2.0654 -0.4507
  164SOPE   H2S18387   0.024   4.294  10.418  0.5449 -1.5194  0.5562
  164SOPE    C318388  -0.305   3.943  10.501  0.1967  0.0959 -0.2661
  164SOPE    HX18389  -0.311   4.030  10.571  0.0030 -1.2740  1.4607
  164SOPE    HY18390  -0.342   3.852  10.554  2.9112 -1.3016 -0.6972
  164SOPE   O3118391  -0.387   3.981  10.391 -0.2458  0.6905  0.2217
  164SOPE   C3118392  -0.454   3.884  10.324 -0.1159 -0.2654 -0.2760
  164SOPE   O3218393  -0.453   3.765  10.353  0.2846  0.4480 -0.7326
  164SOPE   C3218394  -0.512   3.941  10.195  0.1218 -0.1828 -0.7688
  164SOPE   H2X18395  -0.606   4.000  10.210  0.0510 -0.3364 -0.5992
  164SOPE   H2Y18396  -0.535   3.848  10.139 -0.0480 -0.6667  0.0963
  164SOPE   C2318397  -0.074   4.280  10.227 -0.0877  0.4372  0.3712
  164SOPE   H3R18398  -0.074   4.389  10.208 -1.9421  0.4576  0.3606
  164SOPE   H3S18399  -0.180   4.254  10.251 -0.8556  0.5356 -2.6462
  164SOPE   C2418400  -0.043   4.218  10.090 -0.1807 -0.0727  0.5614
  164SOPE   H4R18401  -0.017   4.111  10.107 -0.1089  0.2032  2.3312
  164SOPE   H4S18402  -0.132   4.222  10.025 -0.1568 -0.5061  0.5011
  164SOPE   C2518403   0.075   4.290  10.017 -0.4920 -0.1452 -0.1678
  164SOPE   H5R18404   0.062   4.400  10.016 -1.1020 -0.2085  0.6424
  164SOPE   H5S18405   0.166   4.276  10.080 -0.4851 -1.4657 -0.4548
  164SOPE   C2618406   0.096   4.236   9.880  0.3058  0.0017 -0.4595
  164SOPE   H6R18407   0.139   4.133   9.885 -0.1880 -0.1231  1.8763
  164SOPE   H6S18408  -0.005   4.227   9.834  0.6813  1.7773 -1.6759
  164SOPE   C2718409   0.195   4.323   9.799  0.4581  0.8755  0.4567
  164SOPE   H7R18410   0.150   4.424   9.800  0.2027  0.7611  0.7199
  164SOPE   H7S18411   0.288   4.332   9.860  0.2594  1.7351  0.6411
  164SOPE   C2818412   0.230   4.262   9.664 -0.3632 -0.2723  0.0440
  164SOPE   H8R18413   0.288   4.168   9.674 -0.9059 -0.6488 -0.3380
  164SOPE   H8S18414   0.141   4.226   9.608 -0.0915  2.4641 -2.2705
  164SOPE   C2918415   0.301   4.360   9.568  0.1000 -0.2829 -0.1285
  164SOPE   H9118416   0.409   4.372   9.585  0.0766  1.7427 -1.2491
  164SOPE  C21018417   0.241   4.421   9.461 -0.3579 -0.1087 -0.0148
  164SOPE  H10118418   0.308   4.493   9.411  0.1974  0.3636  1.4120
  164SOPE  C21118419   0.093   4.421   9.431  0.1533 -0.2533  0.2746
  164SOPE  H11R18420   0.048   4.521   9.445  0.9493 -0.2258  2.7436
  164SOPE  H11S18421   0.034   4.352   9.495 -1.7712  0.1864 -0.9965
  164SOPE  C21218422   0.070   4.374   9.286  0.1886 -0.3204 -0.0974
  164SOPE  H12R18423  -0.040   4.365   9.278 -0.2068  1.6031  2.4691
  164SOPE  H12S18424   0.112   4.272   9.272  1.4573  0.2885 -0.8414
  164SOPE  C21318425   0.119   4.464   9.175  0.2605  0.2579 -0.0658
  164SOPE  H13R18426   0.128   4.402   9.083  0.9929 -0.1458  0.2714
  164SOPE  H13S18427   0.224   4.493   9.198  0.8151 -1.9649  0.3652
  164SOPE  C21418428   0.037   4.594   9.148  0.6985  0.1237  0.1756
  164SOPE  H14R18429   0.072   4.661   9.229  0.5603  0.4143 -0.0073
  164SOPE  H14S18430  -0.071   4.577   9.166  0.7442 -0.1207  0.2233
  164SOPE  C21518431   0.044   4.651   9.010  0.5111  0.1120  0.8912
  164SOPE  H15R18432  -0.002   4.578   8.939  0.3549  1.9360 -0.9212
  164SOPE  H15S18433   0.148   4.667   8.976  1.0566 -1.1751  1.9231
  164SOPE  C21618434  -0.040   4.780   8.998  0.2846  0.0899  0.0716
  164SOPE  H16R18435  -0.013   4.858   9.072  1.4856  2.5824 -2.8666
  164SOPE  H16S18436  -0.145   4.745   9.010  0.1584  0.0350 -1.0831
  164SOPE  C21718437  -0.041   4.857   8.862 -0.1151 -0.6716  0.3125
  164SOPE  H17R18438  -0.075   4.788   8.781 -0.5285  0.3256 -0.3786
  164SOPE  H17S18439   0.050   4.908   8.823 -1.4981 -1.0278 -3.6706
  164SOPE  C21818440  -0.143   4.974   8.869  0.1756 -0.8374 -0.1801
  164SOPE  H18R18441  -0.237   4.927   8.908 -0.1350 -0.4721 -0.4877
  164SOPE  H18S18442  -0.162   5.011   8.766 -0.5523  0.2537  0.3356
  164SOPE  H18T18443  -0.124   5.062   8.935  0.1901  0.3120 -1.7036
  164SOPE   C3318444  -0.427   4.034  10.114  0.2961 -0.2903  0.5206
  164SOPE   H3X18445  -0.344   3.978  10.064 -0.9811 -1.3423 -0.4806
  164SOPE   H3Y18446  -0.383   4.108  10.184 -0.4247 -2.0453  2.8824
  164SOPE   C3418447  -0.498   4.108  10.002 -0.2150  0.0685  0.0311
  164SOPE   H4X18448  -0.422   4.180   9.964  0.0038 -0.3574 -0.3493
  164SOPE   H4Y18449  -0.591   4.149  10.046  0.6477  1.5469  0.4846
  164SOPE   C3518450  -0.532   4.021   9.872  0.5120  0.4630  0.2461
  164SOPE   H5X18451  -0.586   3.929   9.903  2.5487  0.3790  3.7089
  164SOPE   H5Y18452  -0.438   4.008   9.814  0.8606  0.9470  0.7064
  164SOPE   C3618453  -0.635   4.091   9.776  0.1988 -0.5015  0.1223
  164SOPE   H6X18454  -0.575   4.164   9.718 -0.5009  0.9242  1.1717
  164SOPE   H6Y18455  -0.710   4.141   9.840 -0.1586 -2.0405  0.9446
  164SOPE   C3718456  -0.717   3.989   9.683  0.4156  0.4179 -0.6638
  164SOPE   H7X18457  -0.766   3.914   9.748  0.8907 -0.4031 -1.2426
  164SOPE   H7Y18458  -0.648   3.926   9.622  1.3245 -0.6386  1.3850
  164SOPE   C3818459  -0.838   4.048   9.601 -0.2958  0.1129 -0.6249
  164SOPE   H8X18460  -0.893   4.122   9.664  2.5306  1.5605  0.2364
  164SOPE   H8Y18461  -0.909   3.965   9.579 -0.1462 -0.5107  1.1441
  164SOPE   C3918462  -0.787   4.120   9.482 -0.0451 -0.0853  0.5526
  164SOPE   H9X18463  -0.701   4.065   9.439 -0.9047 -1.1640  0.1928
  164SOPE   H9Y18464  -0.759   4.224   9.512 -1.3705  0.0373  1.4116
  164SOPE  C31018465  -0.899   4.126   9.375  0.2235 -0.2337  0.4704
  164SOPE  H10X18466  -0.985   4.180   9.422  0.3846 -0.6060  1.2057
  164SOPE  H10Y18467  -0.930   4.023   9.348 -0.1062 -0.0975  0.3147
  164SOPE  C31118468  -0.849   4.194   9.247 -0.1581 -0.2119 -0.0005
  164SOPE  H11X18469  -0.802   4.291   9.273  0.9063 -0.7734  0.2112
  164SOPE  H11Y18470  -0.935   4.221   9.183 -1.1136 -0.9320  0.9752
  164SOPE  C31218471  -0.751   4.109   9.160 -0.3329 -0.5646 -0.0588
  164SOPE  H12X18472  -0.652   4.101   9.209 -0.7512  0.2606  0.9301
  164SOPE  H12Y18473  -0.747   4.167   9.066 -1.6725  1.8812  1.3418
  164SOPE  C31318474  -0.794   3.964   9.133  0.3491 -0.4336 -0.3233
  164SOPE  H13X18475  -0.903   3.963   9.113  0.3138  0.8884 -0.2339
  164SOPE  H13Y18476  -0.765   3.896   9.216 -0.8407  0.1322  0.5561
  164SOPE  C31418477  -0.730   3.895   9.015 -0.1958  0.2884 -0.2259
  164SOPE  H14X18478  -0.777   3.795   8.997  1.0089  0.1460 -2.7858
  164SOPE  H14Y18479  -0.625   3.870   9.042 -0.5475 -1.5154 -0.4241
  164SOPE  C31518480  -0.729   3.965   8.875 -1.1906 -0.8213  0.3308
  164SOPE  H15X18481  -0.654   4.047   8.866 -0.9582 -0.8698  1.8194
  164SOPE  H15Y18482  -0.828   4.008   8.849  0.8128  2.6674 -2.0006
  164SOPE  C31618483  -0.696   3.871   8.753  0.2985 -0.3556  0.1602
  164SOPE  H16X18484  -0.766   3.785   8.760  0.2857 -0.3203  0.4417
  164SOPE  H16Y18485  -0.590   3.839   8.749 -0.1923 -1.8512 -2.0833
  164SOPE  C31718486  -0.702   3.955   8.623 -0.1179  0.3334  0.7511
  164SOPE  H17X18487  -0.620   4.030   8.617 -0.1748  0.3791  0.5263
  164SOPE  H17Y18488  -0.800   4.007   8.625 -1.1353 -1.5375  1.1429
  164SOPE  C31818489  -0.696   3.869   8.498 -0.4518 -0.6434 -0.6860
  164SOPE  H18X18490  -0.598   3.817   8.494  0.3357  0.8554 -1.3189
  164SOPE  H18Y18491  -0.701   3.910   8.395  0.3995  0.2734 -0.3758
  164SOPE  H18Z18492  -0.763   3.781   8.496  0.6231 -1.4937 -0.0372
  165SOPE     N18493   5.960   5.014  10.849 -0.2530  1.2247  0.0760
  165SOPE   HN118494   6.005   4.973  10.765  1.7707  0.1483  1.6360
  165SOPE   HN218495   5.879   5.058  10.801 -1.1214 -0.8182 -0.3645
  165SOPE   HN318496   6.021   5.087  10.891  2.6562  0.5466 -2.7408
  165SOPE   C1218497   5.903   4.916  10.950 -0.5667  1.0070  0.1941
  165SOPE  H12A18498   5.849   4.974  11.028 -0.8979  0.3785  0.4398
  165SOPE  H12B18499   5.989   4.883  11.011  1.0256  2.5261 -1.1778
  165SOPE   C1118500   5.823   4.798  10.892  0.1079  0.1351  0.8196
  165SOPE  H11A18501   5.799   4.728  10.975 -2.2779  1.6830  1.4928
  165SOPE  H11B18502   5.896   4.746  10.827 -2.7583 -2.0738 -0.7832
  165SOPE     P18503   5.560   4.858  10.892  0.1873 -0.2197 -0.6108
  165SOPE   O1318504   5.515   4.996  10.862 -0.5753 -0.1570  0.0307
  165SOPE   O1418505   5.568   4.812  11.035  0.2157 -0.6300  0.5139
  165SOPE   O1218506   5.699   4.839  10.827 -0.2133 -0.8349  0.1525
  165SOPE   O1118507   5.470   4.757  10.818  0.3911  0.3332  0.0491
  165SOPE    C118508   5.538   4.660  10.733  0.2833  0.0755  0.1562
  165SOPE    HA18509   5.514   4.556  10.762 -0.3450 -0.1582 -1.1435
  165SOPE    HB18510   5.647   4.645  10.749  0.8732  2.4335 -1.3219
  165SOPE    C218511   5.516   4.700  10.584  0.8367  0.1634 -0.3190
  165SOPE    HS18512   5.511   4.810  10.571 -1.5239  0.1516  0.1768
  165SOPE   O2118513   5.402   4.627  10.535 -0.2385 -0.0780  0.3323
  165SOPE   C2118514   5.303   4.705  10.506  0.3698 -0.1626  0.0362
  165SOPE   O2218515   5.292   4.824  10.516  0.5476  0.1271  0.0357
  165SOPE   C2218516   5.194   4.614  10.450  0.1837  0.0070 -0.5809
  165SOPE   H2R18517   5.103   4.611  10.514 -0.1952  0.8027 -1.0768
  165SOPE   H2S18518   5.211   4.506  10.470 -0.3272 -0.0707 -0.5540
  165SOPE    C318519   5.643   4.658  10.498  0.2457  0.6559 -0.2480
  165SOPE    HX18520   5.624   4.549  10.490  2.4025  0.2157  0.3416
  165SOPE    HY18521   5.736   4.664  10.559 -0.1614 -0.7749  0.5271
  165SOPE   O3118522   5.649   4.711  10.365  0.2527  0.6503 -0.0197
  165SOPE   C3118523   5.748   4.794  10.345  0.0465  0.6948  0.2397
  165SOPE   O3218524   5.834   4.821  10.420  0.2348 -0.5397 -0.2405
  165SOPE   C3218525   5.730   4.858  10.206 -0.0924  0.3962  0.4092
  165SOPE   H2X18526   5.677   4.954  10.222 -2.9390 -0.7480 -1.6044
  165SOPE   H2Y18527   5.674   4.787  10.140  0.4705  0.3460 -0.0108
  165SOPE   C2318528   5.142   4.642  10.307  0.8622  0.4692  0.0437
  165SOPE   H3R18529   5.118   4.750  10.291  0.6765  0.0328 -2.8812
  165SOPE   H3S18530   5.064   4.570  10.273 -0.4272  2.3260 -1.0143
  165SOPE   C2418531   5.259   4.622  10.210  0.4859 -0.3322  0.3262
  165SOPE   H4R18532   5.353   4.672  10.241  1.8240 -3.5143  1.5829
  165SOPE   H4S18533   5.297   4.517  10.213  0.4028 -0.3353  1.2419
  165SOPE   C2518534   5.223   4.660  10.068 -0.1516  0.2510  0.0828
  165SOPE   H5R18535   5.148   4.584  10.037  0.0553  0.7420 -1.6807
  165SOPE   H5S18536   5.159   4.751  10.073 -0.3355  0.0731  1.0144
  165SOPE   C2618537   5.345   4.676   9.983  0.6304 -1.2320 -0.0297
  165SOPE   H6R18538   5.421   4.746  10.024 -1.8806  1.9523 -0.5906
  165SOPE   H6S18539   5.400   4.580   9.976 -0.0484 -1.7890  1.8229
  165SOPE   C2718540   5.313   4.730   9.843 -0.6734  0.6155  0.3745
  165SOPE   H7R18541   5.249   4.656   9.791  0.1006 -0.3993  0.8515
  165SOPE   H7S18542   5.272   4.832   9.860  1.1028  1.2284  1.1454
  165SOPE   C2818543   5.441   4.724   9.759  0.3262  0.9213 -0.1388
  165SOPE   H8R18544   5.500   4.636   9.792  1.7601  1.6361 -0.7275
  165SOPE   H8S18545   5.411   4.706   9.654  0.2997  1.3460 -0.2071
  165SOPE   C2918546   5.522   4.848   9.777 -0.4159 -0.0845  0.0178
  165SOPE   H9118547   5.554   4.882   9.877 -1.6341  0.5983  0.1928
  165SOPE  C21018548   5.574   4.927   9.682  0.6726 -0.0130 -0.5600
  165SOPE  H10118549   5.643   5.009   9.709 -2.1360  1.7623  1.5163
  165SOPE  C21118550   5.574   4.883   9.537  0.1553  0.2202  0.0063
  165SOPE  H11R18551   5.511   4.795   9.512 -0.7452  0.0114  2.8188
  165SOPE  H11S18552   5.679   4.861   9.509 -0.3615  0.6171 -2.4019
  165SOPE  C21218553   5.548   5.002   9.445 -0.6503 -0.3878 -0.3310
  165SOPE  H12R18554   5.600   5.092   9.485  1.8874 -1.4299 -1.2046
  165SOPE  H12S18555   5.441   5.029   9.438 -0.1294  1.1442 -2.8966
  165SOPE  C21318556   5.592   4.975   9.305  0.2802 -0.8142  0.0911
  165SOPE  H13R18557   5.553   4.877   9.267  1.0321 -2.0063  2.3037
  165SOPE  H13S18558   5.702   4.983   9.293  0.1724  2.3105  1.0370
  165SOPE  C21418559   5.545   5.084   9.208 -0.4052  0.1482 -0.1593
  165SOPE  H14R18560   5.606   5.174   9.232  1.5092 -1.4797  1.2116
  165SOPE  H14S18561   5.440   5.112   9.233  0.5283  1.5737  2.3202
  165SOPE  C21518562   5.572   5.059   9.060  0.3637 -0.1152 -0.4164
  165SOPE  H15R18563   5.540   4.961   9.019  0.6173  0.8549 -3.0617
  165SOPE  H15S18564   5.679   5.067   9.034  0.3241 -0.5493 -0.7230
  165SOPE  C21618565   5.518   5.175   8.978  0.5632  0.3718  0.0268
  165SOPE  H16R18566   5.580   5.266   8.987 -2.2324  2.4101 -0.7075
  165SOPE  H16S18567   5.414   5.197   9.010  0.8205  0.5122  0.7800
  165SOPE  C21718568   5.514   5.144   8.831  0.3576 -0.2215 -0.1926
  165SOPE  H17R18569   5.454   5.050   8.821 -1.9644  0.9112  2.3424
  165SOPE  H17S18570   5.618   5.123   8.797  0.7159  1.1809  0.0256
  165SOPE  C21818571   5.475   5.257   8.744  0.1432 -0.5415  0.1205
  165SOPE  H18R18572   5.540   5.344   8.764 -3.2124  2.3518 -1.1439
  165SOPE  H18S18573   5.374   5.297   8.766 -0.1249 -0.0417 -1.9228
  165SOPE  H18T18574   5.482   5.224   8.638  2.8051  0.6786 -0.1098
  165SOPE   C3318575   5.864   4.899  10.137  0.0462 -1.1347 -0.1608
  165SOPE   H3X18576   5.933   4.813  10.125  0.3304 -0.8002 -0.9893
  165SOPE   H3Y18577   5.914   4.979  10.194 -2.3619  1.3558 -1.4166
  165SOPE   C3418578   5.834   4.951   9.992  0.2525 -0.2159 -0.2952
  165SOPE   H4X18579   5.776   5.044  10.007  0.0219 -0.4137  0.0371
  165SOPE   H4Y18580   5.760   4.876   9.957 -0.4153  0.1337  0.3629
  165SOPE   C3518581   5.955   4.989   9.898 -0.1580  0.0023 -0.4182
  165SOPE   H5X18582   6.018   4.897   9.898  0.4290  0.3798  1.2087
  165SOPE   H5Y18583   6.011   5.071   9.949 -0.1640 -1.1535  1.5264
  165SOPE   C3618584   5.920   5.017   9.754  0.5748  0.1461  0.3661
  165SOPE   H6X18585   5.856   5.106   9.735  2.6176  1.5781  0.0583
  165SOPE   H6Y18586   5.844   4.940   9.729  1.0176  0.4023 -1.8851
  165SOPE   C3718587   6.040   5.026   9.666  0.8267 -0.4652 -0.1865
  165SOPE   H7X18588   6.094   4.930   9.677  0.2326 -0.9037 -1.0578
  165SOPE   H7Y18589   6.109   5.111   9.687  0.3621  0.1000 -0.8987
  165SOPE   C3818590   6.008   5.037   9.522 -0.2675 -0.2559  1.0047
  165SOPE   H8X18591   6.059   5.128   9.483  1.8761 -1.5291  0.8193
  165SOPE   H8Y18592   5.899   5.053   9.507 -0.2563 -0.4128  0.7528
  165SOPE   C3918593   6.057   4.913   9.447  0.4114  0.0137 -0.0774
  165SOPE   H9X18594   6.002   4.822   9.477  0.9850 -0.0930  0.6655
  165SOPE   H9Y18595   6.166   4.904   9.470  0.7831  0.4183 -1.6540
  165SOPE  C31018596   6.055   4.934   9.293 -0.2407 -0.1712  0.3866
  165SOPE  H10X18597   6.102   5.031   9.263 -0.4052 -0.5755 -1.2522
  165SOPE  H10Y18598   5.948   4.942   9.263  0.0103 -1.6941 -0.9401
  165SOPE  C31118599   6.139   4.827   9.221 -0.3318  0.1960  0.4202
  165SOPE  H11X18600   6.075   4.736   9.219 -0.5440  0.3656 -0.9768
  165SOPE  H11Y18601   6.223   4.797   9.287 -0.8803 -2.6540 -0.0782
  165SOPE  C31218602   6.187   4.860   9.082  0.4290 -0.3712  0.5291
  165SOPE  H12X18603   6.251   4.951   9.086 -0.9690  0.5512  3.6175
  165SOPE  H12Y18604   6.102   4.879   9.013  1.9047 -0.9764 -1.5119
  165SOPE  C31318605   6.279   4.742   9.039 -0.0271  0.6415  0.0915
  165SOPE  H13X18606   6.242   4.643   9.072  0.3161  0.5823  0.2969
  165SOPE  H13Y18607   6.378   4.739   9.089  0.0098 -0.9076 -0.0551
  165SOPE  C31418608   6.315   4.743   8.892 -0.2713  0.2688 -0.6285
  165SOPE  H14X18609   6.369   4.837   8.871  2.3954 -0.7000  1.5974
  165SOPE  H14Y18610   6.218   4.729   8.839 -1.1712  3.5863  0.0518
  165SOPE  C31518611   6.421   4.634   8.871  0.5024  0.1200 -0.0581
  165SOPE  H15X18612   6.365   4.538   8.868  1.8729 -0.7134  0.5335
  165SOPE  H15Y18613   6.497   4.628   8.952  0.4758  0.8573  0.0153
  165SOPE  C31618614   6.489   4.630   8.730  0.0809  0.3814  0.0973
  165SOPE  H16X18615   6.552   4.721   8.714  1.1787 -0.6551 -1.6501
  165SOPE  H16Y18616   6.408   4.627   8.654  2.4480 -0.2260 -2.5279
  165SOPE  C31718617   6.582   4.516   8.712 -0.2472 -0.3374  0.0734
  165SOPE  H17X18618   6.537   4.432   8.768  0.6426 -0.8474  0.0364
  165SOPE  H17Y18619   6.676   4.538   8.767 -0.8356  1.2456  0.4603
  165SOPE  C31818620   6.617   4.499   8.565  0.0603 -0.6315  0.4102
  165SOPE  H18X18621   6.664   4.586   8.513 -1.0877 -0.0722  0.2974
  165SOPE  H18Y18622   6.532   4.460   8.506  0.4336  0.2343 -0.7255
  165SOPE  H18Z18623   6.695   4.421   8.554 -0.8210 -1.6228  1.1379
  166SOPE     N18624   1.513   4.502  11.112  0.1908  0.2967 -0.4372
  166SOPE   HN118625   1.442   4.578  11.120  2.2149  2.0996  0.8871
  166SOPE   HN218626   1.482   4.425  11.175 -1.9028  2.0537  0.7376
  166SOPE   HN318627   1.598   4.541  11.155 -0.9246  1.0863  1.1019
  166SOPE   C1218628   1.529   4.451  10.971  0.9234  0.2041  0.4878
  166SOPE  H12A18629   1.431   4.406  10.943  0.9148  0.1320  0.6302
  166SOPE  H12B18630   1.615   4.381  10.974  0.9416  0.2349  0.7204
  166SOPE   C1118631   1.544   4.569  10.862  0.6105 -0.2566 -0.2815
  166SOPE  H11A18632   1.446   4.621  10.857  0.5212 -0.4386 -0.4106
  166SOPE  H11B18633   1.565   4.527  10.761  2.9529 -2.6463  1.1352
  166SOPE     P18634   1.682   4.770  10.807 -0.3987 -0.7079 -0.1349
  166SOPE   O1318635   1.753   4.710  10.694 -0.4522 -0.9220  0.2530
  166SOPE   O1418636   1.756   4.876  10.879 -0.0604 -0.0567 -0.2730
  166SOPE   O1218637   1.649   4.658  10.905  0.6463 -0.3369  0.1924
  166SOPE   O1118638   1.541   4.821  10.755 -0.1065  0.0124 -0.5384
  166SOPE    C118639   1.544   4.934  10.661 -0.0150  0.3892  0.2079
  166SOPE    HA18640   1.607   5.018  10.696  0.2710  0.6149 -0.8477
  166SOPE    HB18641   1.442   4.978  10.663 -0.1251  0.2697 -1.8821
  166SOPE    C218642   1.562   4.892  10.513 -0.4741 -0.0969  0.3711
  166SOPE    HS18643   1.670   4.882  10.490 -0.4132  0.4699  0.3932
  166SOPE   O2118644   1.510   5.000  10.435 -0.4032  0.8287  0.6066
  166SOPE   C2118645   1.596   5.069  10.360 -0.4383 -0.2731  0.2108
  166SOPE   O2218646   1.717   5.056  10.349 -0.1782 -0.2928 -0.1203
  166SOPE   C2218647   1.509   5.173  10.286 -0.0939 -0.4169  0.3445
  166SOPE   H2R18648   1.480   5.259  10.350  2.1744 -1.5350  3.0012
  166SOPE   H2S18649   1.413   5.129  10.253  1.9596 -3.3474 -2.0281
  166SOPE    C318650   1.491   4.755  10.483 -0.0237 -0.4378  1.0563
  166SOPE    HX18651   1.384   4.768  10.510 -0.5239 -2.1186 -0.0234
  166SOPE    HY18652   1.529   4.670  10.544  0.7780 -0.5641  0.3841
  166SOPE   O3118653   1.508   4.727  10.343 -0.3179  0.1453  0.1145
  166SOPE   C3118654   1.608   4.646  10.296  0.6412 -0.0415  0.1253
  166SOPE   O3218655   1.696   4.596  10.361 -0.6867  0.8734  0.5359
  166SOPE   C3218656   1.579   4.615  10.146 -0.2025 -0.5303 -0.7819
  166SOPE   H2X18657   1.496   4.680  10.111  1.2320  1.6514 -0.2040
  166SOPE   H2Y18658   1.552   4.508  10.131 -1.9781 -0.1781 -0.2531
  166SOPE   C2318659   1.565   5.229  10.154 -0.0536  0.4722  0.2762
  166SOPE   H3R18660   1.662   5.279  10.175 -1.0386  2.1730  0.8860
  166SOPE   H3S18661   1.500   5.308  10.111 -1.5280 -1.0219 -0.3193
  166SOPE   C2418662   1.583   5.116  10.047  0.3259  0.7420 -0.3774
  166SOPE   H4R18663   1.625   5.025  10.094  0.8045  0.4667 -1.3152
  166SOPE   H4S18664   1.482   5.078  10.018 -0.1455  0.7114  1.2889
  166SOPE   C2518665   1.659   5.172   9.924  0.3650 -0.0500 -0.1829
  166SOPE   H5R18666   1.627   5.278   9.913 -1.7147 -0.7942 -1.3535
  166SOPE   H5S18667   1.769   5.185   9.939  0.3220 -0.1082  0.1948
  166SOPE   C2618668   1.645   5.084   9.802  0.1359 -0.2156  0.0735
  166SOPE   H6R18669   1.699   4.989   9.825  2.3027  0.7700 -0.7959
  166SOPE   H6S18670   1.538   5.063   9.782 -0.3854  2.1437  0.1906
  166SOPE   C2718671   1.690   5.137   9.661  0.7789  0.5461 -0.1261
  166SOPE   H7R18672   1.656   5.241   9.645  2.2311  0.9996 -0.3295
  166SOPE   H7S18673   1.801   5.151   9.657  0.5410  2.3759 -0.6927
  166SOPE   C2818674   1.653   5.042   9.551  0.8887 -0.0478 -0.1945
  166SOPE   H8R18675   1.624   4.939   9.581  0.3338  0.5710  1.4502
  166SOPE   H8S18676   1.552   5.079   9.521  0.6524 -0.6966 -0.2158
  166SOPE   C2918677   1.745   5.043   9.426  0.1388  0.2618 -0.0779
  166SOPE   H9118678   1.851   5.025   9.446 -0.2215  0.2631  1.8826
  166SOPE  C21018679   1.715   5.050   9.296  0.8823  0.4784  0.5783
  166SOPE  H10118680   1.801   5.036   9.229 -0.8991 -2.9394 -1.1265
  166SOPE  C21118681   1.583   5.075   9.239  0.5320 -0.9221  0.7898
  166SOPE  H11R18682   1.577   5.126   9.140  1.8495 -1.7377  0.2749
  166SOPE  H11S18683   1.526   5.134   9.314  1.8523  2.5910 -0.8471
  166SOPE  C21218684   1.501   4.945   9.224 -0.1743  0.4322 -0.0871
  166SOPE  H12R18685   1.399   4.977   9.193  0.0966  2.1079  0.7028
  166SOPE  H12S18686   1.490   4.885   9.317 -0.2994 -2.5552 -1.9792
  166SOPE  C21318687   1.553   4.850   9.114 -0.3502  0.2366 -0.2275
  166SOPE  H13R18688   1.501   4.752   9.118 -1.2500  0.7489  0.9545
  166SOPE  H13S18689   1.658   4.826   9.142  0.5431  2.8116 -1.1939
  166SOPE  C21418690   1.535   4.906   8.969 -0.6025 -0.1966  0.1946
  166SOPE  H14R18691   1.573   5.010   8.955 -3.5614  0.9869  0.4876
  166SOPE  H14S18692   1.425   4.914   8.955 -0.6952  0.2268  1.1414
  166SOPE  C21518693   1.590   4.813   8.854  0.2596  0.3155 -0.3779
  166SOPE  H15R18694   1.548   4.712   8.870  1.8856 -0.2848  0.1796
  166SOPE  H15S18695   1.700   4.805   8.872  0.3064  0.5018 -0.5690
  166SOPE  C21618696   1.553   4.875   8.720  0.9094  0.0364  0.2402
  166SOPE  H16R18697   1.609   4.824   8.638  1.1495 -0.3495  0.6481
  166SOPE  H16S18698   1.585   4.981   8.724  0.2498  0.3128 -1.2996
  166SOPE  C21718699   1.403   4.867   8.672 -0.9197  0.3245 -0.5004
  166SOPE  H17R18700   1.354   4.912   8.761  1.7477  1.9965  0.1714
  166SOPE  H17S18701   1.373   4.760   8.662 -0.7853  0.4096 -1.8624
  166SOPE  C21818702   1.375   4.932   8.541  0.1361 -0.4605 -0.5261
  166SOPE  H18R18703   1.273   4.972   8.523  1.3491  3.3682  0.7043
  166SOPE  H18S18704   1.406   4.862   8.460 -2.7640 -2.8846  0.3714
  166SOPE  H18T18705   1.440   5.021   8.532 -2.4990  1.5259 -0.6459
  166SOPE   C3318706   1.706   4.646  10.059  0.0428  0.4867 -0.5293
  166SOPE   H3X18707   1.808   4.622  10.098 -0.6380 -0.9586  0.4011
  166SOPE   H3Y18708   1.708   4.757  10.060 -1.1900  0.5159  1.3013
  166SOPE   C3418709   1.689   4.588   9.915 -0.4913 -0.3041  0.0500
  166SOPE   H4X18710   1.615   4.505   9.916  0.1182 -0.8520 -0.1386
  166SOPE   H4Y18711   1.785   4.552   9.873 -1.2578 -2.6476  0.2567
  166SOPE   C3518712   1.626   4.692   9.820 -0.0643  1.2113  0.2434
  166SOPE   H5X18713   1.711   4.757   9.790  0.3796  0.6045  0.1637
  166SOPE   H5Y18714   1.556   4.749   9.884 -0.7486 -0.9177  1.4447
  166SOPE   C3618715   1.560   4.646   9.688  0.1291  0.2437  0.4060
  166SOPE   H6X18716   1.536   4.732   9.621 -0.4808  0.2804  0.6732
  166SOPE   H6Y18717   1.459   4.610   9.716  1.1553 -1.2610  2.2799
  166SOPE   C3718718   1.626   4.538   9.609  0.0231  0.3985  0.1410
  166SOPE   H7X18719   1.609   4.443   9.664  2.0691  0.5481  1.0837
  166SOPE   H7Y18720   1.735   4.555   9.596 -0.2096 -0.2533 -3.1176
  166SOPE   C3818721   1.566   4.516   9.465  0.4373 -0.7336 -0.8966
  166SOPE   H8X18722   1.588   4.607   9.405 -3.8265  0.9739 -0.0412
  166SOPE   H8Y18723   1.458   4.509   9.489  1.1119  1.9164  3.4084
  166SOPE   C3918724   1.621   4.402   9.378 -0.4366 -0.6144 -0.4405
  166SOPE   H9X18725   1.615   4.308   9.436  2.1965 -0.5751 -0.0345
  166SOPE   H9Y18726   1.726   4.425   9.350 -0.8790  0.6530 -1.0722
  166SOPE  C31018727   1.539   4.387   9.248 -0.2357  0.3778  0.5540
  166SOPE  H10X18728   1.541   4.488   9.201 -0.1259 -0.4725 -1.3088
  166SOPE  H10Y18729   1.437   4.358   9.282  0.2248 -1.0709  0.6987
  166SOPE  C31118730   1.598   4.285   9.148  0.3321  0.1978 -0.3439
  166SOPE  H11X18731   1.618   4.194   9.208 -1.6896 -0.7363 -1.0271
  166SOPE  H11Y18732   1.704   4.309   9.124 -0.0172  0.3000 -1.8903
  166SOPE  C31218733   1.525   4.256   9.016  0.3576 -0.6162 -0.0209
  166SOPE  H12X18734   1.418   4.230   9.033  0.9978 -3.7808 -0.4678
  166SOPE  H12Y18735   1.576   4.174   8.961 -0.5840 -0.2709 -1.4167
  166SOPE  C31318736   1.503   4.377   8.920  0.0727 -0.3076  0.1198
  166SOPE  H13X18737   1.602   4.407   8.880  1.0740 -3.8425 -0.1934
  166SOPE  H13Y18738   1.456   4.455   8.984 -1.1645 -0.3874 -0.6867
  166SOPE  C31418739   1.404   4.349   8.811  0.0750  0.3069 -0.5169
  166SOPE  H14X18740   1.367   4.446   8.773 -0.0495  0.0443 -1.0715
  166SOPE  H14Y18741   1.310   4.302   8.847  0.5379 -0.9160 -0.8664
  166SOPE  C31518742   1.461   4.279   8.692  0.2956 -0.6440 -0.2192
  166SOPE  H15X18743   1.493   4.180   8.733  0.2573 -1.0878 -1.2580
  166SOPE  H15Y18744   1.551   4.332   8.656 -0.8713  0.8897 -0.9067
  166SOPE  C31618745   1.365   4.250   8.583  0.8616  0.6858 -0.2229
  166SOPE  H16X18746   1.425   4.210   8.499  0.5112 -2.2030  0.8589
  166SOPE  H16Y18747   1.319   4.346   8.548 -0.0857 -0.7207 -3.0082
  166SOPE  C31718748   1.262   4.142   8.621 -0.3042  0.6696 -0.2529
  166SOPE  H17X18749   1.192   4.189   8.694 -1.5098 -2.1660  0.4729
  166SOPE  H17Y18750   1.328   4.063   8.664 -0.8826  0.2544 -0.1257
  166SOPE  C31818751   1.185   4.071   8.506 -0.1251 -0.3554  0.1052
  166SOPE  H18X18752   1.132   4.153   8.452 -0.1148 -0.0400  0.5678
  166SOPE  H18Y18753   1.116   3.992   8.542 -0.7955  0.3725  0.4530
  166SOPE  H18Z18754   1.253   4.016   8.438 -0.5561  0.3772 -0.9344
  167SOPE     N18755   4.010   3.721   5.994 -0.4406 -0.1229 -0.2311
  167SOPE   HN118756   4.097   3.691   5.946 -1.6197 -1.6403 -1.4600
  167SOPE   HN218757   3.940   3.644   5.993  0.7385 -1.2977  2.1239
  167SOPE   HN318758   3.975   3.810   5.953  1.8605  0.1019 -1.7905
  167SOPE   C1218759   4.034   3.730   6.138 -0.4566 -0.0467 -0.1602
  167SOPE  H12A18760   3.939   3.759   6.188 -0.4592  0.1353 -0.2735
  167SOPE  H12B18761   4.115   3.800   6.165  1.7388 -2.5181 -0.0884
  167SOPE   C1118762   4.064   3.592   6.197 -0.1132 -0.6034  0.2499
  167SOPE  H11A18763   4.053   3.595   6.308  0.6468 -0.2981  0.3194
  167SOPE  H11B18764   4.164   3.558   6.165 -0.3935  1.8993 -3.5644
  167SOPE     P18765   3.969   3.349   6.176  0.0014 -0.2398 -0.0348
  167SOPE   O1318766   4.083   3.313   6.088  0.1788  0.5958 -0.5051
  167SOPE   O1418767   3.836   3.288   6.154  0.0517 -0.0362 -0.1814
  167SOPE   O1218768   3.955   3.506   6.163  0.2257  0.1631 -0.1233
  167SOPE   O1118769   4.002   3.338   6.332 -0.2841 -0.7688 -0.1372
  167SOPE    C118770   4.139   3.316   6.384 -0.0567  0.1117 -0.5365
  167SOPE    HA18771   4.165   3.377   6.473  3.7261 -2.3422  0.1568
  167SOPE    HB18772   4.218   3.350   6.313  0.7700  0.8638  0.7271
  167SOPE    C218773   4.150   3.171   6.447 -0.5908 -0.1988 -0.1442
  167SOPE    HS18774   4.108   3.102   6.372  0.6891  0.0356 -1.0924
  167SOPE   O2118775   4.070   3.156   6.564  0.1525  0.3805 -0.2032
  167SOPE   C2118776   3.937   3.162   6.550 -0.6981  0.1374 -0.3267
  167SOPE   O2218777   3.875   3.147   6.442  0.2680  0.1018  0.1711
  167SOPE   C2218778   3.879   3.160   6.691 -0.2076 -0.7616  0.9093
  167SOPE   H2R18779   3.918   3.253   6.739 -0.7311 -0.1819  0.2303
  167SOPE   H2S18780   3.928   3.091   6.762 -3.0380 -2.4704  1.2869
  167SOPE    C318781   4.304   3.124   6.466  0.0342 -0.2948 -0.0809
  167SOPE    HX18782   4.361   3.188   6.394  1.8622 -1.3887  0.3460
  167SOPE    HY18783   4.295   3.018   6.436  1.5319  0.4474 -3.5305
  167SOPE   O3118784   4.347   3.132   6.607 -0.5810 -0.0730  0.1687
  167SOPE   C3118785   4.390   3.252   6.647  0.7791  0.2909  0.3170
  167SOPE   O3218786   4.401   3.352   6.579 -0.6517 -0.2554 -0.1810
  167SOPE   C3218787   4.410   3.251   6.795 -0.0838 -0.0995 -0.9965
  167SOPE   H2X18788   4.515   3.219   6.816 -1.0639 -2.7180  0.0477
  167SOPE   H2Y18789   4.341   3.182   6.848  1.4126  0.6230  1.9984
  167SOPE   C2318790   3.733   3.136   6.705 -0.4383 -0.7356  0.1031
  167SOPE   H3R18791   3.687   3.084   6.618  0.1982 -0.0602 -0.6474
  167SOPE   H3S18792   3.674   3.231   6.710  1.5766  0.5536 -0.2809
  167SOPE   C2418793   3.691   3.055   6.834  0.1358  0.7339 -0.2499
  167SOPE   H4R18794   3.581   3.041   6.824  0.6922 -3.1932 -2.2268
  167SOPE   H4S18795   3.738   2.955   6.826 -0.0452  0.6063  0.2758
  167SOPE   C2518796   3.721   3.126   6.961 -0.1203 -0.3716 -0.5292
  167SOPE   H5R18797   3.829   3.152   6.959  0.6788 -3.5411 -1.3174
  167SOPE   H5S18798   3.657   3.217   6.967  0.7642  0.2975 -1.1918
  167SOPE   C2618799   3.690   3.034   7.077 -0.2628  0.3955 -0.4641
  167SOPE   H6R18800   3.584   3.000   7.068 -0.0222 -0.8140  0.9892
  167SOPE   H6S18801   3.762   2.950   7.081  0.0469  0.6412 -0.8602
  167SOPE   C2718802   3.692   3.114   7.211  0.2414 -0.4961  0.2105
  167SOPE   H7R18803   3.784   3.088   7.267  0.1766 -2.2945 -0.4924
  167SOPE   H7S18804   3.695   3.222   7.186 -1.3390 -0.3605  0.5616
  167SOPE   C2818805   3.566   3.096   7.297 -0.2216 -0.5438  0.4901
  167SOPE   H8R18806   3.559   3.178   7.372  0.7428  2.5993 -2.6860
  167SOPE   H8S18807   3.473   3.124   7.243  1.0912  2.1988 -0.4716
  167SOPE   C2918808   3.541   2.963   7.366  0.1766  0.1329 -0.0264
  167SOPE   H9118809   3.522   2.890   7.287  3.4771 -1.9694  1.0364
  167SOPE  C21018810   3.562   2.921   7.492  0.1651 -0.1980  0.1359
  167SOPE  H10118811   3.546   2.816   7.521 -0.1639  0.2034  1.4025
  167SOPE  C21118812   3.596   3.017   7.605 -0.2765  0.3464 -0.1943
  167SOPE  H11R18813   3.633   3.115   7.570 -0.0152  0.3487  0.0896
  167SOPE  H11S18814   3.674   2.976   7.673 -0.1204  0.1598 -0.4859
  167SOPE  C21218815   3.473   3.025   7.696  0.3353 -0.2379 -0.7971
  167SOPE  H12R18816   3.371   3.025   7.651 -0.1580 -2.8010  0.2329
  167SOPE  H12S18817   3.479   3.127   7.740 -2.2983  0.2869 -1.5367
  167SOPE  C21318818   3.482   2.920   7.804 -0.4925  0.2375  0.1709
  167SOPE  H13R18819   3.584   2.889   7.835  0.5719 -0.0081 -3.3650
  167SOPE  H13S18820   3.427   2.832   7.764 -1.2907  0.6721  0.3027
  167SOPE  C21418821   3.395   2.962   7.932  0.1683 -0.0716 -0.0566
  167SOPE  H14R18822   3.315   3.035   7.907  1.1575  1.5960  1.5058
  167SOPE  H14S18823   3.466   3.011   8.002  0.5132 -1.2210  0.4232
  167SOPE  C21518824   3.345   2.839   8.006  0.3166 -0.0081  0.1364
  167SOPE  H15R18825   3.421   2.757   8.004 -0.5859 -0.8418 -2.1118
  167SOPE  H15S18826   3.251   2.798   7.962 -1.6345 -1.3434  5.1923
  167SOPE  C21618827   3.317   2.872   8.154 -0.9512 -0.5830 -0.4938
  167SOPE  H16R18828   3.241   2.954   8.156  1.9226  2.1765 -0.4118
  167SOPE  H16S18829   3.414   2.894   8.205 -2.7299  0.7886  2.4776
  167SOPE  C21718830   3.258   2.750   8.219  0.0257 -0.3840  0.0999
  167SOPE  H17R18831   3.306   2.651   8.199  0.6044  0.0267 -0.5567
  167SOPE  H17S18832   3.157   2.734   8.177  0.9285  0.6184 -2.5613
  167SOPE  C21818833   3.233   2.768   8.367  0.0390  0.0370 -0.6413
  167SOPE  H18R18834   3.187   2.868   8.382 -2.1083 -0.9813 -0.2754
  167SOPE  H18S18835   3.318   2.769   8.439  0.1952 -0.9408 -0.7969
  167SOPE  H18T18836   3.165   2.695   8.416  1.3062  1.5321  3.5612
  167SOPE   C3318837   4.392   3.392   6.869  0.0892  0.7205 -0.0555
  167SOPE   H3X18838   4.458   3.468   6.821  1.1456 -1.0682 -1.5241
  167SOPE   H3Y18839   4.435   3.370   6.969  3.3032 -0.4849 -1.6342
  167SOPE   C3418840   4.245   3.439   6.863  1.2007  0.1807 -0.0186
  167SOPE   H4X18841   4.224   3.439   6.754 -0.1965  0.5656  0.2365
  167SOPE   H4Y18842   4.230   3.545   6.893  1.1327 -0.0234  0.6761
  167SOPE   C3518843   4.144   3.353   6.946 -0.4225 -0.0687 -0.5324
  167SOPE   H5X18844   4.173   3.246   6.947 -1.0958 -0.2506  0.1159
  167SOPE   H5Y18845   4.043   3.364   6.901 -0.6431 -1.5934 -0.4215
  167SOPE   C3618846   4.127   3.406   7.091  0.2057 -0.1736 -0.6651
  167SOPE   H6X18847   4.083   3.508   7.084  1.5454  0.4319 -0.4641
  167SOPE   H6Y18848   4.229   3.421   7.133  0.0439 -1.4166  0.1881
  167SOPE   C3718849   4.048   3.314   7.186 -0.6428 -0.2384 -0.3341
  167SOPE   H7X18850   4.078   3.207   7.177  2.4937  0.3250  2.0844
  167SOPE   H7Y18851   3.943   3.313   7.152 -0.8725 -0.8431  0.3837
  167SOPE   C3818852   4.063   3.358   7.335  0.1467 -0.0287  0.8706
  167SOPE   H8X18853   4.016   3.457   7.353 -3.5769 -1.2512 -1.5963
  167SOPE   H8Y18854   4.171   3.371   7.355  1.0776 -2.6210 -2.0799
  167SOPE   C3918855   3.985   3.272   7.435  0.0452  0.0352  0.3995
  167SOPE   H9X18856   4.007   3.165   7.416  1.7188  0.4407 -0.0604
  167SOPE   H9Y18857   3.877   3.292   7.426  0.1020  0.5978  0.9618
  167SOPE  C31018858   4.030   3.318   7.572  0.4719 -0.1424 -0.3508
  167SOPE  H10X18859   4.017   3.428   7.575  0.8630 -0.0909 -0.5500
  167SOPE  H10Y18860   4.130   3.280   7.601  0.5144  0.5049  0.3722
  167SOPE  C31118861   3.937   3.259   7.690 -0.7345  0.1595  0.1291
  167SOPE  H11X18862   3.931   3.150   7.669  2.0663 -0.3928  1.9031
  167SOPE  H11Y18863   3.835   3.304   7.689 -0.1984  1.4048 -2.4283
  167SOPE  C31218864   4.002   3.272   7.832  0.5062  0.7815 -0.1294
  167SOPE  H12X18865   4.013   3.378   7.863  1.2452  0.3875  1.0136
  167SOPE  H12Y18866   4.102   3.224   7.829 -0.1890 -0.9664  2.9174
  167SOPE  C31318867   3.937   3.186   7.936  0.6921 -0.2593 -0.0048
  167SOPE  H13X18868   3.936   3.077   7.919 -1.7214 -0.5195  1.6035
  167SOPE  H13Y18869   3.830   3.216   7.942  0.7128  0.0408 -1.0514
  167SOPE  C31418870   3.991   3.209   8.082 -0.3407  0.4229  0.2885
  167SOPE  H14X18871   4.001   3.319   8.095 -1.8814  0.4401  1.4599
  167SOPE  H14Y18872   4.088   3.163   8.111 -0.3758 -0.1731 -0.5261
  167SOPE  C31518873   3.903   3.165   8.195 -0.3769  0.7632 -0.0325
  167SOPE  H15X18874   3.893   3.056   8.217 -1.1124  1.3456  2.8016
  167SOPE  H15Y18875   3.804   3.207   8.167 -0.9060  0.2928  1.0687
  167SOPE  C31618876   3.918   3.228   8.331 -0.1167 -0.0719 -0.2099
  167SOPE  H16X18877   3.946   3.335   8.327  0.7769 -0.3268 -0.6865
  167SOPE  H16Y18878   4.001   3.169   8.374 -0.4639 -1.1725 -1.0304
  167SOPE  C31718879   3.792   3.198   8.412 -0.2715 -0.5367  0.3435
  167SOPE  H17X18880   3.766   3.090   8.403  0.3853 -0.6120 -0.8045
  167SOPE  H17Y18881   3.705   3.255   8.374 -0.3129 -1.1544 -0.5180
  167SOPE  C31818882   3.825   3.233   8.558  0.1053 -0.0169  0.0772
  167SOPE  H18X18883   3.738   3.220   8.626  1.6512 -1.1225  1.8988
  167SOPE  H18Y18884   3.864   3.336   8.562  0.0982  0.0224 -0.8151
  167SOPE  H18Z18885   3.897   3.162   8.605  1.1490  1.2270  0.3857
  168SOPE     N18886   3.617   0.839   6.173  0.2800  0.1834 -0.0292
  168SOPE   HN118887   3.610   0.843   6.277  0.0989  2.1177 -0.1031
  168SOPE   HN218888   3.720   0.834   6.158  0.1690 -3.7470  0.1096
  168SOPE   HN318889   3.586   0.931   6.136  0.7580 -0.0701 -1.0759
  168SOPE   C1218890   3.544   0.717   6.116 -0.3685 -0.0886  0.3169
  168SOPE  H12A18891   3.590   0.699   6.017 -0.5137 -1.7869  0.5397
  168SOPE  H12B18892   3.433   0.724   6.114 -0.3207  0.6868  0.3701
  168SOPE   C1118893   3.581   0.602   6.209 -0.4626  0.3399 -0.0234
  168SOPE  H11A18894   3.523   0.511   6.184  0.6254 -0.5896  0.7939
  168SOPE  H11B18895   3.541   0.623   6.311 -0.8045  0.9938 -0.2883
  168SOPE     P18896   3.787   0.493   6.308  0.2121  0.0289 -0.1012
  168SOPE   O1318897   3.933   0.525   6.306  0.0839  0.1356 -0.4623
  168SOPE   O1418898   3.748   0.350   6.282 -0.5675  0.1247 -0.3615
  168SOPE   O1218899   3.720   0.583   6.197 -0.9218 -0.2118 -0.0758
  168SOPE   O1118900   3.722   0.542   6.442 -0.7094  0.4709  0.1792
  168SOPE    C118901   3.734   0.460   6.557 -0.6313  0.1823  0.8718
  168SOPE    HA18902   3.834   0.411   6.561 -0.3618  0.6128 -0.2069
  168SOPE    HB18903   3.658   0.379   6.552 -0.9699  0.6080 -2.1875
  168SOPE    C218904   3.709   0.538   6.687 -0.0347 -0.0145  0.7122
  168SOPE    HS18905   3.799   0.595   6.719 -0.7385  0.3545  2.0725
  168SOPE   O2118906   3.666   0.445   6.787 -0.0633  0.1204 -0.4114
  168SOPE   C2118907   3.743   0.351   6.840  0.1780 -0.2763  0.1169
  168SOPE   O2218908   3.860   0.332   6.811  0.6167  0.2944  0.0978
  168SOPE   C2218909   3.658   0.268   6.942  0.5406  0.2548  0.2790
  168SOPE   H2R18910   3.723   0.198   6.999 -1.5935 -0.9989  1.2566
  168SOPE   H2S18911   3.590   0.196   6.890 -2.1093  3.3595 -0.7783
  168SOPE    C318912   3.588   0.637   6.670  1.2280  0.5735  0.4137
  168SOPE    HX18913   3.514   0.573   6.619 -0.4150  0.5365  2.7632
  168SOPE    HY18914   3.614   0.722   6.603 -2.1230  1.2428 -0.1117
  168SOPE   O3118915   3.534   0.685   6.792 -0.4363 -0.2533 -0.4985
  168SOPE   C3118916   3.603   0.759   6.873  0.3003  0.1373  0.0278
  168SOPE   O3218917   3.713   0.800   6.850 -0.2329  0.7153  0.1437
  168SOPE   C3218918   3.524   0.769   7.008  0.0308 -0.3288 -0.9556
  168SOPE   H2X18919   3.500   0.664   7.034  2.1703 -0.6354 -0.0350
  168SOPE   H2Y18920   3.438   0.836   6.990 -0.3676 -0.6869 -0.4095
  168SOPE   C2318921   3.554   0.349   7.028  0.0123 -0.3895  0.1527
  168SOPE   H3R18922   3.480   0.272   7.059 -0.9669  0.7931  0.7893
  168SOPE   H3S18923   3.521   0.441   6.976  0.5356  1.0853  2.3588
  168SOPE   C2418924   3.611   0.395   7.165 -0.0295  0.2093  0.6242
  168SOPE   H4R18925   3.646   0.306   7.222  2.2886  2.0067  2.0700
  168SOPE   H4S18926   3.698   0.463   7.164 -0.4564  0.7541  0.3637
  168SOPE   C2518927   3.508   0.467   7.257 -0.2118  0.0037  0.7143
  168SOPE   H5R18928   3.494   0.574   7.231 -2.6338 -0.2048  1.0327
  168SOPE   H5S18929   3.405   0.426   7.248 -0.4731  0.7300  0.3009
  168SOPE   C2618930   3.539   0.460   7.412  0.1987  0.3052  0.2499
  168SOPE   H6R18931   3.556   0.356   7.446  3.7306  1.0284  0.8163
  168SOPE   H6S18932   3.630   0.516   7.440  0.9624 -0.3612 -0.8945
  168SOPE   C2718933   3.419   0.530   7.491 -0.0321 -0.5050  0.2129
  168SOPE   H7R18934   3.397   0.626   7.438  0.3643  1.9485  4.2566
  168SOPE   H7S18935   3.330   0.464   7.481 -1.0048  0.6052  1.3596
  168SOPE   C2818936   3.434   0.553   7.647 -1.1306 -0.0857  0.1720
  168SOPE   H8R18937   3.505   0.638   7.651 -0.6218 -0.4189 -1.4022
  168SOPE   H8S18938   3.336   0.589   7.686 -1.3715 -0.0715 -0.4360
  168SOPE   C2918939   3.485   0.442   7.726  0.6533  0.0995 -1.5683
  168SOPE   H9118940   3.586   0.404   7.703  1.1173  0.3430 -0.0226
  168SOPE  C21018941   3.426   0.388   7.833  0.8893  0.4473  0.5928
  168SOPE  H10118942   3.476   0.303   7.882 -1.3998 -0.3961  1.5011
  168SOPE  C21118943   3.286   0.417   7.872 -0.1076 -0.5793  0.1881
  168SOPE  H11R18944   3.228   0.329   7.907 -2.2453  0.4524 -0.6775
  168SOPE  H11S18945   3.222   0.451   7.787 -0.5051 -0.5278  0.5077
  168SOPE  C21218946   3.295   0.518   7.991  0.0973  0.0693 -0.0433
  168SOPE  H12R18947   3.194   0.563   8.006 -0.0761 -0.2925 -0.1166
  168SOPE  H12S18948   3.361   0.605   7.973  0.5936 -0.4910 -0.9815
  168SOPE  C21318949   3.356   0.470   8.125  0.0057  0.4410  0.0972
  168SOPE  H13R18950   3.463   0.447   8.110  0.0932  1.7800 -1.4601
  168SOPE  H13S18951   3.290   0.388   8.163  1.7730 -0.7487  0.6328
  168SOPE  C21418952   3.344   0.583   8.234  0.5890 -0.0636 -0.6518
  168SOPE  H14R18953   3.237   0.598   8.260  0.7388 -0.1994  0.0319
  168SOPE  H14S18954   3.393   0.676   8.198 -0.0877  0.3629 -0.4856
  168SOPE  C21518955   3.407   0.554   8.372  0.0437 -0.6668 -0.5203
  168SOPE  H15R18956   3.518   0.566   8.369 -0.0268  0.5247  1.0857
  168SOPE  H15S18957   3.381   0.450   8.401  0.7271 -0.3633  1.2848
  168SOPE  C21618958   3.362   0.646   8.486 -0.4205  0.3233  0.3793
  168SOPE  H16R18959   3.252   0.636   8.496 -0.7027  0.8389 -1.9253
  168SOPE  H16S18960   3.400   0.744   8.451  0.6078 -0.0010  0.5593
  168SOPE  C21718961   3.411   0.597   8.624  0.7063  0.5471  0.3129
  168SOPE  H17R18962   3.397   0.487   8.626  0.0508  0.6326  0.4395
  168SOPE  H17S18963   3.336   0.641   8.694 -1.3170 -1.3451 -0.6204
  168SOPE  C21818964   3.556   0.637   8.661 -0.3382 -0.5556  0.0155
  168SOPE  H18R18965   3.570   0.621   8.770 -1.3696  0.9060  0.3771
  168SOPE  H18S18966   3.552   0.748   8.662 -1.7787 -0.5946  0.1357
  168SOPE  H18T18967   3.639   0.605   8.594 -1.0121 -0.4611 -0.8645
  168SOPE   C3318968   3.605   0.838   7.118 -0.0820 -0.6685 -0.0701
  168SOPE   H3X18969   3.653   0.929   7.075 -0.6099 -0.2778  0.1633
  168SOPE   H3Y18970   3.691   0.774   7.146 -0.4035  0.5289  3.9967
  168SOPE   C3418971   3.535   0.873   7.253 -0.9821  0.3858  0.7522
  168SOPE   H4X18972   3.536   0.784   7.320  2.5087  1.0724  1.7235
  168SOPE   H4Y18973   3.429   0.898   7.234 -1.2524  0.2662  2.0025
  168SOPE   C3518974   3.604   0.994   7.321 -0.2422  0.6062 -0.1734
  168SOPE   H5X18975   3.537   1.011   7.407 -1.3747 -1.4397 -0.6207
  168SOPE   H5Y18976   3.599   1.090   7.265 -1.5932  1.1134  0.8073
  168SOPE   C3618977   3.750   0.945   7.371 -0.2595 -0.3335  0.2163
  168SOPE   H6X18978   3.816   0.962   7.284  1.6862 -1.4228  1.4545
  168SOPE   H6Y18979   3.746   0.838   7.400 -2.7642 -0.0044  1.1948
  168SOPE   C3718980   3.801   1.023   7.494 -0.4950  0.1730  0.2557
  168SOPE   H7X18981   3.792   1.133   7.479  2.1264  0.2555 -0.8417
  168SOPE   H7Y18982   3.907   1.000   7.517  0.8832  3.4228 -2.4094
  168SOPE   C3818983   3.720   0.991   7.630 -0.1016  0.5593 -0.3251
  168SOPE   H8X18984   3.681   0.889   7.611 -1.7213  1.1988 -0.4867
  168SOPE   H8Y18985   3.633   1.059   7.630 -0.8377 -0.3743 -0.6606
  168SOPE   C3918986   3.807   0.984   7.754  0.2759 -0.5191 -0.4239
  168SOPE   H9X18987   3.842   1.088   7.775 -0.0868  0.7109 -5.3756
  168SOPE   H9Y18988   3.893   0.916   7.733  0.7094  0.0574 -0.5384
  168SOPE  C31018989   3.741   0.930   7.882 -0.4885 -0.1778  0.4480
  168SOPE  H10X18990   3.807   0.942   7.970 -1.0148 -0.3517  0.8706
  168SOPE  H10Y18991   3.720   0.822   7.867  0.1383 -0.4751  1.7039
  168SOPE  C31118992   3.606   0.994   7.908 -0.3716  0.1558  0.0739
  168SOPE  H11X18993   3.529   0.975   7.830 -0.3334  0.0372  0.0653
  168SOPE  H11Y18994   3.615   1.105   7.915 -0.4409  0.3831 -2.8364
  168SOPE  C31218995   3.544   0.947   8.042  0.0011 -0.3520  0.0808
  168SOPE  H12X18996   3.517   0.839   8.040 -1.1943 -0.0768  1.0575
  168SOPE  H12Y18997   3.457   1.015   8.055 -0.1204 -0.8358  1.9231
  168SOPE  C31318998   3.635   0.957   8.165  0.2927  0.4719 -0.0715
  168SOPE  H13X18999   3.687   1.055   8.171  2.6272 -0.5421 -2.8664
  168SOPE  H13Y19000   3.715   0.882   8.155 -2.3377 -2.1203 -2.3219
  168SOPE  C31419001   3.556   0.926   8.292  0.1587  0.6902 -0.3488
  168SOPE  H14X19002   3.600   0.828   8.320  1.0002  1.5637  1.4485
  168SOPE  H14Y19003   3.450   0.910   8.265 -0.1472 -1.2723  1.8392
  168SOPE  C31519004   3.575   1.039   8.405  0.2031 -0.2384 -0.0201
  168SOPE  H15X19005   3.572   1.140   8.360  1.0845 -0.0460  0.3421
  168SOPE  H15Y19006   3.675   1.013   8.446  0.5966  1.0791 -0.1363
  168SOPE  C31619007   3.473   1.021   8.513 -0.2250  0.1561 -0.3111
  168SOPE  H16X19008   3.502   0.941   8.584  0.4521  2.3544  2.0078
  168SOPE  H16Y19009   3.369   1.006   8.479 -0.3122 -1.9563  0.8373
  168SOPE  C31719010   3.488   1.143   8.601  0.5655 -0.4696 -0.8762
  168SOPE  H17X19011   3.443   1.230   8.549 -0.7611  1.9298  3.9673
  168SOPE  H17Y19012   3.597   1.160   8.611  0.2469  1.2806 -0.3550
  168SOPE  C31819013   3.411   1.138   8.727  0.6024  0.3867  0.7356
  168SOPE  H18X19014   3.394   1.231   8.786  0.7338  1.5559 -1.0524
  168SOPE  H18Y19015   3.452   1.054   8.786  1.0417 -0.2070 -0.4046
  168SOPE  H18Z19016   3.310   1.101   8.699  0.6343 -0.0981  1.2527
  169SOPE     N19017   5.772   2.451   6.133 -0.1024 -0.3253 -0.6716
  169SOPE   HN119018   5.760   2.509   6.048 -0.8273 -2.3027 -1.9774
  169SOPE   HN219019   5.680   2.436   6.179  0.6202  0.4876  1.0601
  169SOPE   HN319020   5.838   2.495   6.200 -2.3712  0.6800  0.9772
  169SOPE   C1219021   5.827   2.320   6.093  0.0995 -0.3999  0.4511
  169SOPE  H12A19022   5.905   2.326   6.014  1.6183  0.2045  1.9902
  169SOPE  H12B19023   5.741   2.258   6.059 -0.4063  0.2816  0.4853
  169SOPE   C1119024   5.890   2.250   6.220 -0.3897 -0.0664  0.0878
  169SOPE  H11A19025   5.974   2.306   6.267  1.4372 -1.9462 -0.8640
  169SOPE  H11B19026   5.938   2.161   6.176 -0.5427  0.3822 -1.0046
  169SOPE     P19027   5.777   2.102   6.409  0.8270  0.1140 -0.1983
  169SOPE   O1319028   5.847   1.993   6.335  0.0877 -0.0737 -1.2555
  169SOPE   O1419029   5.629   2.074   6.436 -0.0294 -0.4096  0.4371
  169SOPE   O1219030   5.793   2.235   6.322  0.4375 -0.0656  0.0770
  169SOPE   O1119031   5.850   2.147   6.548 -0.0423  0.1771 -0.3265
  169SOPE    C119032   5.964   2.078   6.604 -0.2024  0.6976  0.1000
  169SOPE    HA19033   6.047   2.082   6.530 -0.8220  1.6372 -0.5566
  169SOPE    HB19034   5.936   1.975   6.632 -0.5445 -0.2463 -3.5174
  169SOPE    C219035   6.016   2.156   6.730 -0.1610  0.0984 -0.0811
  169SOPE    HS19036   6.110   2.106   6.763  0.6855  0.9361 -1.1928
  169SOPE   O2119037   5.915   2.157   6.835 -0.2291 -0.2410  1.0160
  169SOPE   C2119038   5.923   2.060   6.920  0.2724  0.4493  0.3103
  169SOPE   O2219039   5.997   1.966   6.914  0.1436 -0.2520  0.4975
  169SOPE   C2219040   5.836   2.083   7.035 -0.1213 -0.4290 -0.3052
  169SOPE   H2R19041   5.887   2.028   7.117 -0.3366 -0.0236  0.0992
  169SOPE   H2S19042   5.734   2.039   7.037  0.1584 -1.0575  0.3188
  169SOPE    C319043   6.047   2.300   6.693  0.1627  0.6225  0.2787
  169SOPE    HX19044   5.948   2.346   6.672  0.8383  3.0381  2.2071
  169SOPE    HY19045   6.096   2.305   6.593  1.0019  0.9394  0.7074
  169SOPE   O3119046   6.099   2.391   6.797 -0.1004  0.1136  0.2892
  169SOPE   C3119047   6.235   2.388   6.804  0.3401 -0.1590 -0.6962
  169SOPE   O3219048   6.309   2.343   6.722 -0.0301 -1.1331 -0.2714
  169SOPE   C3219049   6.287   2.464   6.932 -0.1946  0.7292  0.4199
  169SOPE   H2X19050   6.333   2.558   6.896  2.2009 -0.3239  0.5942
  169SOPE   H2Y19051   6.370   2.399   6.967  0.5768  1.2131 -0.4864
  169SOPE   C2319052   5.837   2.234   7.076 -0.2451 -0.1777  0.1075
  169SOPE   H3R19053   5.823   2.310   6.997  0.8608 -0.7998 -0.7165
  169SOPE   H3S19054   5.942   2.250   7.110  0.7170 -2.6645 -1.4855
  169SOPE   C2419055   5.747   2.258   7.192  0.4673  1.1302  0.2065
  169SOPE   H4R19056   5.648   2.271   7.143 -1.8927 -1.3084  4.0944
  169SOPE   H4S19057   5.727   2.173   7.260  1.7972  0.2168 -0.5081
  169SOPE   C2519058   5.785   2.391   7.267 -0.0550 -0.3799  0.4331
  169SOPE   H5R19059   5.879   2.353   7.313 -0.0800  1.4062  2.0168
  169SOPE   H5S19060   5.822   2.466   7.193  1.3846  0.4299  1.9458
  169SOPE   C2619061   5.713   2.436   7.389  0.1334  0.5108 -0.1090
  169SOPE   H6R19062   5.756   2.532   7.426  0.9062 -0.3729  1.3028
  169SOPE   H6S19063   5.613   2.479   7.367 -0.1758  0.2299  0.7115
  169SOPE   C2719064   5.708   2.335   7.510 -0.1767 -0.0741  0.6615
  169SOPE   H7R19065   5.598   2.334   7.529 -0.0110  1.1131  1.7374
  169SOPE   H7S19066   5.749   2.241   7.467 -0.9419  0.6124 -1.6008
  169SOPE   C2819067   5.772   2.377   7.641  0.8274  0.0141  0.2703
  169SOPE   H8R19068   5.880   2.390   7.617  1.1294  0.3175  1.7237
  169SOPE   H8S19069   5.750   2.481   7.675  0.8188 -0.0862  0.5744
  169SOPE   C2919070   5.748   2.279   7.751 -0.1498 -0.1678  0.7364
  169SOPE   H9119071   5.785   2.175   7.739  1.6214  0.5210 -0.0089
  169SOPE  C21019072   5.685   2.306   7.867 -0.5463  0.8232  0.7276
  169SOPE  H10119073   5.698   2.233   7.949  0.1206 -0.3193 -0.3622
  169SOPE  C21119074   5.621   2.433   7.918  0.7153 -0.0739  0.4245
  169SOPE  H11R19075   5.520   2.439   7.873  0.4530 -1.2796  0.8255
  169SOPE  H11S19076   5.685   2.522   7.898  0.3758 -0.3942 -2.2391
  169SOPE  C21219077   5.599   2.434   8.070 -0.4494  0.5227 -0.6689
  169SOPE  H12R19078   5.536   2.514   8.115 -1.5037 -1.3345  1.2850
  169SOPE  H12S19079   5.696   2.452   8.121 -0.1866 -0.8509 -0.6496
  169SOPE  C21319080   5.533   2.309   8.125 -0.2044  0.1484 -0.1943
  169SOPE  H13R19081   5.609   2.228   8.133 -0.9375 -0.5056  0.1573
  169SOPE  H13S19082   5.457   2.274   8.052 -1.7092  1.1826  0.8632
  169SOPE  C21419083   5.464   2.345   8.256  0.2857  0.0388  0.2971
  169SOPE  H14R19084   5.404   2.261   8.296 -0.0651  0.2291  0.1715
  169SOPE  H14S19085   5.398   2.434   8.252 -0.4985 -0.5031  1.1731
  169SOPE  C21519086   5.567   2.390   8.355  0.0649  0.7765 -0.4051
  169SOPE  H15R19087   5.609   2.491   8.335  0.5925  1.0976  2.1051
  169SOPE  H15S19088   5.661   2.331   8.343  0.0970  0.7090  0.1563
  169SOPE  C21619089   5.523   2.380   8.500  0.6187  0.3962  0.1862
  169SOPE  H16R19090   5.488   2.277   8.525  0.5643  0.4121  0.1756
  169SOPE  H16S19091   5.433   2.443   8.519  0.2332  0.0088 -0.3414
  169SOPE  C21719092   5.633   2.407   8.598 -0.1024  0.2584  0.4779
  169SOPE  H17R19093   5.685   2.504   8.581 -0.2177 -0.0597 -1.8390
  169SOPE  H17S19094   5.716   2.334   8.582 -0.8178 -0.6533  0.9029
  169SOPE  C21819095   5.588   2.397   8.748 -0.1575  0.7254 -0.5366
  169SOPE  H18R19096   5.672   2.419   8.817 -0.5440  1.7433 -0.3700
  169SOPE  H18S19097   5.571   2.289   8.765  2.2545  0.3825 -0.1618
  169SOPE  H18T19098   5.502   2.466   8.762  0.5460  1.4839  0.0977
  169SOPE   C3319099   6.171   2.477   7.028  0.6695 -0.3658 -0.0111
  169SOPE   H3X19100   6.130   2.374   7.038 -1.1823  0.2501 -1.0668
  169SOPE   H3Y19101   6.087   2.543   6.998  2.6631  2.4946  0.5024
  169SOPE   C3419102   6.223   2.529   7.166 -0.0445 -0.0375  0.1119
  169SOPE   H4X19103   6.289   2.615   7.143 -0.9647  0.0149 -2.4733
  169SOPE   H4Y19104   6.281   2.452   7.221  1.2525  1.1144  0.3727
  169SOPE   C3519105   6.104   2.579   7.258  0.4421  0.4405  0.1975
  169SOPE   H5X19106   6.035   2.496   7.283  1.4274 -0.2114  0.7816
  169SOPE   H5Y19107   6.036   2.641   7.196  0.8084 -0.5247 -1.1910
  169SOPE   C3619108   6.147   2.643   7.391 -1.2207 -0.8596 -0.3449
  169SOPE   H6X19109   6.144   2.754   7.386  3.0032 -0.6869 -0.5270
  169SOPE   H6Y19110   6.254   2.623   7.412 -0.6337  0.0621 -2.3685
  169SOPE   C3719111   6.060   2.602   7.509  0.5877 -0.3679  0.9106
  169SOPE   H7X19112   6.065   2.492   7.519 -0.0287 -0.4807  0.0047
  169SOPE   H7Y19113   5.951   2.615   7.489  0.7968  1.6219  0.9704
  169SOPE   C3819114   6.088   2.677   7.639  0.1505 -0.1496  0.0114
  169SOPE   H8X19115   6.195   2.670   7.669  0.0767 -0.0645  0.2978
  169SOPE   H8Y19116   6.065   2.785   7.638  0.2816 -0.0875  1.7422
  169SOPE   C3919117   6.018   2.610   7.764 -0.1094 -0.0851 -0.8966
  169SOPE   H9X19118   6.059   2.507   7.765  0.7604  0.2365 -1.5001
  169SOPE   H9Y19119   5.910   2.608   7.740 -0.5090 -0.2841  0.8542
  169SOPE  C31019120   6.046   2.674   7.901  0.1476  0.3695 -0.3665
  169SOPE  H10X19121   6.034   2.783   7.890 -1.9468 -0.0076 -2.1739
  169SOPE  H10Y19122   6.154   2.652   7.919 -0.1896 -1.8815 -0.9212
  169SOPE  C31119123   5.938   2.639   8.010 -0.2501 -0.8400  0.0777
  169SOPE  H11X19124   5.923   2.529   7.996  0.3306 -0.5695 -3.0381
  169SOPE  H11Y19125   5.843   2.691   7.987 -0.1630 -0.9104 -0.4640
  169SOPE  C31219126   5.990   2.680   8.152 -0.2237 -0.6501 -0.5665
  169SOPE  H12X19127   6.043   2.778   8.146  1.5833 -1.4380  1.5264
  169SOPE  H12Y19128   6.078   2.619   8.184  2.3226  1.0118 -4.1163
  169SOPE  C31319129   5.880   2.684   8.254 -0.0692 -0.0476  0.2573
  169SOPE  H13X19130   5.816   2.593   8.261 -1.7243  1.3059  4.3807
  169SOPE  H13Y19131   5.810   2.761   8.216  0.6423 -0.2482 -1.5010
  169SOPE  C31419132   5.921   2.740   8.399 -0.2819  0.7291 -0.3341
  169SOPE  H14X19133   5.823   2.750   8.451  0.1678  0.0806  0.6428
  169SOPE  H14Y19134   5.974   2.838   8.404 -1.2100  1.2331 -0.2398
  169SOPE  C31519135   6.003   2.642   8.486  0.2698  0.4081  0.2355
  169SOPE  H15X19136   6.104   2.650   8.439 -1.5040 -3.9152 -4.8418
  169SOPE  H15Y19137   5.970   2.542   8.450  1.3824 -0.2174  0.9235
  169SOPE  C31619138   5.994   2.644   8.635  0.0799  0.0071 -0.6059
  169SOPE  H16X19139   5.892   2.662   8.676 -0.0189 -2.0205  0.1429
  169SOPE  H16Y19140   6.068   2.716   8.675  2.1902 -1.7520 -1.2731
  169SOPE  C31719141   6.044   2.510   8.688 -0.7689 -0.1413 -0.4250
  169SOPE  H17X19142   6.153   2.491   8.677 -0.8599 -0.9981  0.1802
  169SOPE  H17Y19143   5.989   2.424   8.645  1.3941 -3.1242  2.6178
  169SOPE  C31819144   6.014   2.495   8.839  0.4494  0.2031  0.0998
  169SOPE  H18X19145   5.909   2.465   8.857 -0.2458  0.9358 -2.5166
  169SOPE  H18Y19146   6.042   2.580   8.905 -1.5527  0.2684  0.8891
  169SOPE  H18Z19147   6.068   2.408   8.883 -0.1685 -0.8558 -1.2167
  170SOPE     N19148   0.092   0.219   6.297  0.1952  0.2970  0.0756
  170SOPE   HN119149   0.176   0.159   6.308  0.1645  0.1371 -0.5671
  170SOPE   HN219150   0.016   0.159   6.260  0.2066  2.0056 -2.9350
  170SOPE   HN319151   0.095   0.296   6.227 -2.3981  0.9544  0.6450
  170SOPE   C1219152   0.065   0.279   6.429 -0.1139 -0.6287 -0.5332
  170SOPE  H12A19153   0.159   0.331   6.458 -0.5265 -0.7499  1.0846
  170SOPE  H12B19154   0.054   0.199   6.505 -2.4468  0.5817  0.4522
  170SOPE   C1119155  -0.055   0.371   6.432 -0.6508  0.0808  0.2191
  170SOPE  H11A19156  -0.070   0.388   6.540 -1.4558  0.2250  0.0885
  170SOPE  H11B19157  -0.140   0.314   6.386 -0.4461 -0.9472  1.0834
  170SOPE     P19158   0.008   0.624   6.408  0.1149  0.0894  0.2384
  170SOPE   O1319159  -0.024   0.736   6.315  0.0202  0.3952 -0.4048
  170SOPE   O1419160   0.144   0.607   6.462 -0.2409  0.2209  0.6748
  170SOPE   O1219161  -0.042   0.489   6.349 -0.6781  0.8159 -0.5075
  170SOPE   O1119162  -0.096   0.645   6.524 -0.2929  0.2936 -0.6820
  170SOPE    C119163  -0.063   0.623   6.663 -1.1438  0.6499  0.3434
  170SOPE    HA19164   0.044   0.611   6.690 -1.0914  0.0625 -0.1065
  170SOPE    HB19165  -0.107   0.530   6.702  2.3172 -0.7720  1.0864
  170SOPE    C219166  -0.115   0.737   6.759  0.8109 -0.0754  0.2373
  170SOPE    HS19167  -0.079   0.832   6.712  0.9337 -1.4452 -2.5632
  170SOPE   O2119168  -0.054   0.717   6.891 -0.0176 -0.8832  0.8424
  170SOPE   C2119169  -0.047   0.820   6.966  0.4904 -0.0118 -0.2189
  170SOPE   O2219170  -0.056   0.934   6.932  0.2989 -0.2194 -0.1595
  170SOPE   C2219171  -0.028   0.768   7.107 -0.2575 -0.6358  0.0251
  170SOPE   H2R19172   0.078   0.753   7.136 -0.4983  1.0432  1.9213
  170SOPE   H2S19173  -0.073   0.668   7.122  0.5796 -0.9265  0.6305
  170SOPE    C319174  -0.271   0.737   6.764  0.1912 -0.2548 -0.1700
  170SOPE    HX19175  -0.307   0.643   6.809 -1.3224 -0.2094 -1.2533
  170SOPE    HY19176  -0.303   0.734   6.658  1.6458  0.8135 -0.6564
  170SOPE   O3119177  -0.327   0.851   6.840  0.3343 -0.3995 -0.0497
  170SOPE   C3119178  -0.331   0.968   6.771 -0.9578  0.8348 -0.6665
  170SOPE   O3219179  -0.305   0.990   6.656 -0.3313  0.0736 -0.2354
  170SOPE   C3219180  -0.381   1.071   6.873 -0.3119  0.4767  0.2374
  170SOPE   H2X19181  -0.478   1.113   6.840 -0.3707 -1.7641 -2.7194
  170SOPE   H2Y19182  -0.304   1.151   6.883 -0.2167  0.1706  2.1153
  170SOPE   C2319183  -0.094   0.855   7.215  0.4252  0.5784 -0.1431
  170SOPE   H3R19184  -0.201   0.845   7.188 -0.0477  2.5882  0.9065
  170SOPE   H3S19185  -0.067   0.961   7.196  0.7086  0.2316 -1.7407
  170SOPE   C2419186  -0.053   0.824   7.364 -0.2166 -0.2307 -0.6351
  170SOPE   H4R19187  -0.101   0.729   7.396 -1.8228  0.7435 -0.0446
  170SOPE   H4S19188   0.057   0.814   7.373 -0.0811 -0.6631 -2.5899
  170SOPE   C2519189  -0.094   0.935   7.460  0.0329 -0.3884 -0.0689
  170SOPE   H5R19190  -0.059   1.034   7.425 -0.2182 -0.5716 -0.8550
  170SOPE   H5S19191  -0.204   0.944   7.470  0.0291 -1.2288  0.7482
  170SOPE   C2619192  -0.034   0.902   7.595 -0.1541  0.5824  0.1355
  170SOPE   H6R19193  -0.078   0.810   7.640  0.2918  0.5421  0.4910
  170SOPE   H6S19194   0.076   0.892   7.598 -0.3435 -1.5019  1.4039
  170SOPE   C2719195  -0.062   1.023   7.691  0.2833  0.2442  0.0695
  170SOPE   H7R19196  -0.083   1.104   7.618 -1.6784 -1.3883 -1.2096
  170SOPE   H7S19197  -0.159   0.996   7.739  1.1251 -3.9117 -0.3782
  170SOPE   C2819198   0.042   1.064   7.784  0.4768 -0.0832 -0.0516
  170SOPE   H8R19199   0.141   1.064   7.734 -0.0507 -0.6141 -1.1038
  170SOPE   H8S19200   0.017   1.169   7.813 -1.6881 -0.0407 -1.9528
  170SOPE   C2919201   0.063   0.970   7.898 -0.2023 -0.5820 -0.2956
  170SOPE   H9119202   0.142   0.898   7.872  1.7421  1.9424 -1.6309
  170SOPE  C21019203   0.004   0.979   8.017 -0.7337 -0.8299  0.4846
  170SOPE  H10119204   0.000   0.896   8.088  0.0076 -0.6713  0.7083
  170SOPE  C21119205  -0.084   1.090   8.047 -0.7039  0.2375  0.1022
  170SOPE  H11R19206  -0.166   1.087   7.971 -0.1849  0.8602 -0.4840
  170SOPE  H11S19207  -0.031   1.186   8.033  0.4999 -0.4756 -0.3487
  170SOPE  C21219208  -0.124   1.082   8.198 -0.3896  0.4861  0.4818
  170SOPE  H12R19209  -0.177   0.986   8.221 -0.8237 -0.2057 -3.1604
  170SOPE  H12S19210  -0.198   1.165   8.197 -0.9733 -0.0334 -0.0950
  170SOPE  C21319211  -0.007   1.098   8.289  0.0917 -0.3130 -0.0958
  170SOPE  H13R19212   0.052   1.190   8.270 -0.0778  0.7321  4.0160
  170SOPE  H13S19213   0.080   1.028   8.279  1.0429  0.7801  0.4192
  170SOPE  C21419214  -0.049   1.096   8.436  0.2871 -0.8918 -0.0152
  170SOPE  H14R19215  -0.107   1.002   8.445  0.4786 -1.1380 -1.2697
  170SOPE  H14S19216  -0.114   1.183   8.460 -0.7037 -1.5090 -0.4191
  170SOPE  C21519217   0.067   1.105   8.538 -0.6257  0.2860  0.0410
  170SOPE  H15R19218   0.131   1.192   8.515 -0.1466  0.1128  0.7014
  170SOPE  H15S19219   0.128   1.013   8.522 -0.3409  0.5228 -0.2300
  170SOPE  C21619220   0.027   1.143   8.676  0.3303 -0.1591 -0.2266
  170SOPE  H16R19221  -0.033   1.060   8.719  1.3749  0.2887  2.1729
  170SOPE  H16S19222  -0.029   1.238   8.693  1.2472  0.0893  1.5310
  170SOPE  C21719223   0.154   1.147   8.759  0.2382  0.1255  0.8597
  170SOPE  H17R19224   0.225   1.214   8.707 -1.3683  1.7609  0.7157
  170SOPE  H17S19225   0.191   1.043   8.748 -3.3656 -1.0199 -1.2142
  170SOPE  C21819226   0.143   1.191   8.901 -0.1856 -0.0670 -0.2084
  170SOPE  H18R19227   0.083   1.284   8.915  0.7302  0.3810  0.8022
  170SOPE  H18S19228   0.238   1.214   8.953 -0.4904 -0.8053  0.6833
  170SOPE  H18T19229   0.094   1.106   8.953  0.1228 -0.5699 -0.7450
  170SOPE   C3319230  -0.406   1.014   7.018  0.1190 -0.7113  0.0364
  170SOPE   H3X19231  -0.315   0.962   7.056  0.4062  0.2175  0.6291
  170SOPE   H3Y19232  -0.485   0.937   7.006 -0.6748 -0.2087  1.8036
  170SOPE   C3419233  -0.445   1.115   7.134 -0.3987 -0.8771  0.6425
  170SOPE   H4X19234  -0.545   1.159   7.114 -0.5679 -1.9518 -0.9884
  170SOPE   H4Y19235  -0.381   1.206   7.140  0.1471 -1.2160 -0.0080
  170SOPE   C3519236  -0.442   1.042   7.268 -0.0030  0.3839  0.3106
  170SOPE   H5X19237  -0.346   0.986   7.272  0.2943  0.9346  1.0470
  170SOPE   H5Y19238  -0.521   0.964   7.264  1.4968 -1.1163 -1.2316
  170SOPE   C3619239  -0.442   1.135   7.389 -0.0457 -0.3758  0.1969
  170SOPE   H6X19240  -0.513   1.218   7.370 -1.6262 -1.3722  1.6278
  170SOPE   H6Y19241  -0.345   1.189   7.390 -0.8681  1.1705 -1.5272
  170SOPE   C3719242  -0.469   1.067   7.521 -0.1113  0.0261 -0.5480
  170SOPE   H7X19243  -0.403   0.978   7.527 -0.7197 -0.3438  1.0553
  170SOPE   H7Y19244  -0.576   1.037   7.524 -0.0684 -0.3339 -2.1410
  170SOPE   C3819245  -0.419   1.150   7.638  0.4475  0.4863  0.1383
  170SOPE   H8X19246  -0.471   1.248   7.648 -0.1766 -0.0157  2.1369
  170SOPE   H8Y19247  -0.314   1.178   7.613  1.2060 -0.9120  1.6228
  170SOPE   C3919248  -0.422   1.079   7.779 -0.2583 -0.5038 -0.2454
  170SOPE   H9X19249  -0.357   1.140   7.844  0.4654 -1.1551 -0.3482
  170SOPE   H9Y19250  -0.377   0.979   7.763 -1.6279 -0.9543 -1.4471
  170SOPE  C31019251  -0.567   1.072   7.828 -0.1525 -1.2882 -0.8656
  170SOPE  H10X19252  -0.623   1.019   7.748 -0.9245  0.7298 -1.6936
  170SOPE  H10Y19253  -0.594   1.180   7.829 -1.5140 -1.6190  0.5961
  170SOPE  C31119254  -0.578   0.995   7.963  0.5073  0.2488 -0.4227
  170SOPE  H11X19255  -0.538   0.893   7.946  3.4660  1.2287  0.4141
  170SOPE  H11Y19256  -0.686   0.971   7.975  1.0672 -3.3460 -1.9706
  170SOPE  C31219257  -0.542   1.079   8.080 -0.0702  0.6181 -0.4572
  170SOPE  H12X19258  -0.583   1.182   8.078 -0.6353  0.3775 -1.4376
  170SOPE  H12Y19259  -0.432   1.076   8.063  0.0698  1.5325  0.2667
  170SOPE  C31319260  -0.578   1.016   8.213  0.6660  0.5804 -0.7567
  170SOPE  H13X19261  -0.688   1.025   8.224  0.6093 -2.5183  1.8398
  170SOPE  H13Y19262  -0.545   1.072   8.304 -0.8647  1.7656 -0.9084
  170SOPE  C31419263  -0.550   0.869   8.220 -0.3528  0.6446  0.2072
  170SOPE  H14X19264  -0.442   0.856   8.197 -0.9284 -0.7246 -1.7999
  170SOPE  H14Y19265  -0.602   0.823   8.134  0.0172 -1.1223  0.8999
  170SOPE  C31519266  -0.566   0.806   8.355  0.0041  0.8202 -0.0576
  170SOPE  H15X19267  -0.646   0.852   8.417  0.9180  0.3522  1.5177
  170SOPE  H15Y19268  -0.468   0.814   8.408 -0.2864  0.4195  0.5494
  170SOPE  C31619269  -0.611   0.651   8.343 -0.0099  0.2400 -0.0603
  170SOPE  H16X19270  -0.532   0.590   8.294  3.4276  3.3985  1.2539
  170SOPE  H16Y19271  -0.705   0.659   8.286 -0.9408 -1.9442  1.1246
  170SOPE  C31719272  -0.618   0.606   8.487  0.3678 -0.3621 -0.8410
  170SOPE  H17X19273  -0.714   0.642   8.531 -0.5991 -0.8409 -2.5360
  170SOPE  H17Y19274  -0.538   0.642   8.556 -1.1297  0.3790  0.5576
  170SOPE  C31819275  -0.610   0.456   8.514 -0.1844 -0.6931 -0.5484
  170SOPE  H18X19276  -0.666   0.388   8.447 -1.5172 -0.5932  0.4504
  170SOPE  H18Y19277  -0.640   0.431   8.617 -0.7295 -0.2896 -0.6104
  170SOPE  H18Z19278  -0.502   0.428   8.512 -0.1982 -0.7186 -1.0767
  171SOPE     N19279   0.269   3.851   6.440  0.1046  0.7286  0.0313
  171SOPE   HN119280   0.370   3.833   6.457  0.3985  2.5931  0.3655
  171SOPE   HN219281   0.249   3.804   6.350 -1.2829  1.4940 -0.0699
  171SOPE   HN319282   0.265   3.952   6.415  1.8177  0.1065 -2.8819
  171SOPE   C1219283   0.179   3.811   6.547  0.5326 -1.2074  0.2386
  171SOPE  H12A19284   0.077   3.837   6.511  1.4341  1.4683 -0.5585
  171SOPE  H12B19285   0.194   3.872   6.639 -1.1872 -2.0396  1.0838
  171SOPE   C1119286   0.186   3.653   6.582 -0.5918 -0.7768  0.2634
  171SOPE  H11A19287   0.107   3.631   6.657  0.3090  1.1672  1.8184
  171SOPE  H11B19288   0.279   3.642   6.641  0.7001 -2.2758 -1.9522
  171SOPE     P19289   0.132   3.424   6.459 -0.0005 -0.3351  0.0714
  171SOPE   O1319290   0.238   3.330   6.495  0.2069  0.2206  0.5758
  171SOPE   O1419291   0.068   3.383   6.330 -0.1611 -0.1520  0.3816
  171SOPE   O1219292   0.191   3.568   6.461  0.3763  0.3700 -0.1662
  171SOPE   O1119293   0.029   3.422   6.580  0.1435 -0.4450  0.2477
  171SOPE    C119294  -0.110   3.444   6.547  0.9560  0.6984  0.1573
  171SOPE    HA19295  -0.146   3.381   6.462 -0.3630  0.5915  0.7802
  171SOPE    HB19296  -0.118   3.549   6.513 -3.3157  0.6056  0.5817
  171SOPE    C219297  -0.195   3.414   6.674 -0.5422  0.2182 -0.2825
  171SOPE    HS19298  -0.299   3.453   6.673 -1.3848 -1.9349 -3.7288
  171SOPE   O2119299  -0.146   3.478   6.795  0.3073  0.3709 -0.0357
  171SOPE   C2119300  -0.128   3.604   6.795  0.7298 -0.2760  0.3832
  171SOPE   O2219301  -0.175   3.684   6.716 -0.1918 -0.0101 -0.2717
  171SOPE   C2219302  -0.049   3.637   6.921 -0.7360  0.3440  0.0581
  171SOPE   H2R19303   0.059   3.643   6.896 -0.9265 -0.1654 -0.8855
  171SOPE   H2S19304  -0.069   3.556   6.994  0.6973  2.2568  2.6803
  171SOPE    C319305  -0.194   3.261   6.698  0.6101 -0.8652  0.4494
  171SOPE    HX19306  -0.089   3.226   6.693  1.4426  1.6815 -0.4381
  171SOPE    HY19307  -0.243   3.205   6.616 -0.2464  2.9538 -1.7721
  171SOPE   O3119308  -0.255   3.234   6.826 -0.0761  0.0406  0.3930
  171SOPE   C3119309  -0.187   3.163   6.912  0.0936  0.7447  0.1893
  171SOPE   O3219310  -0.090   3.091   6.883  0.1778 -0.1408 -0.2000
  171SOPE   C3219311  -0.254   3.159   7.046  0.5561  0.2865  0.4516
  171SOPE   H2X19312  -0.230   3.058   7.088  0.9884  0.4345  0.5610
  171SOPE   H2Y19313  -0.363   3.163   7.026  0.5713  2.4991  0.7229
  171SOPE   C2319314  -0.102   3.760   7.003 -0.4726  0.0897 -0.0380
  171SOPE   H3R19315  -0.208   3.737   7.026 -0.0801 -2.4588 -0.6914
  171SOPE   H3S19316  -0.103   3.843   6.928 -0.9137 -1.8241 -2.1990
  171SOPE   C2419317  -0.022   3.795   7.134 -0.5235  0.6680  0.4606
  171SOPE   H4R19318   0.012   3.711   7.198  0.6393  1.0618  0.3901
  171SOPE   H4S19319   0.068   3.839   7.086 -0.9870 -1.4713 -2.4950
  171SOPE   C2519320  -0.101   3.880   7.226 -0.4223 -0.0814 -0.5337
  171SOPE   H5R19321  -0.143   3.974   7.184  0.1989  0.3304 -0.2395
  171SOPE   H5S19322  -0.187   3.832   7.277 -1.0389  3.7900  2.2420
  171SOPE   C2619323  -0.018   3.925   7.347  0.5305  0.3599 -0.1375
  171SOPE   H6R19324   0.017   3.834   7.400 -2.5828 -1.1032 -0.4672
  171SOPE   H6S19325   0.068   3.990   7.321 -0.0366  0.4170 -1.9157
  171SOPE   C2719326  -0.094   4.007   7.451  0.0043  0.0428 -0.7278
  171SOPE   H7R19327  -0.131   4.103   7.409 -0.0478  1.5869  2.7120
  171SOPE   H7S19328  -0.185   3.950   7.480 -0.5699  1.3347  0.0242
  171SOPE   C2819329  -0.031   4.054   7.577  0.4329 -0.1440  0.4737
  171SOPE   H8R19330  -0.118   4.092   7.636 -0.8447 -0.4815 -1.1436
  171SOPE   H8S19331   0.012   3.964   7.627 -0.2304 -0.5932  0.2416
  171SOPE   C2919332   0.077   4.161   7.568 -0.5550 -0.8901 -0.2433
  171SOPE   H9119333   0.174   4.119   7.537 -0.2223  0.9288 -1.7337
  171SOPE  C21019334   0.052   4.293   7.587 -0.4027 -0.3769 -0.1146
  171SOPE  H10119335   0.132   4.369   7.582 -1.1186  0.5721  2.3823
  171SOPE  C21119336  -0.084   4.356   7.623  0.1683 -0.1406 -0.0915
  171SOPE  H11R19337  -0.163   4.292   7.580  0.2977 -1.1631  1.1710
  171SOPE  H11S19338  -0.104   4.452   7.570  0.7141 -0.4516 -0.8686
  171SOPE  C21219339  -0.097   4.368   7.780  0.1220 -0.5450 -0.0507
  171SOPE  H12R19340  -0.020   4.443   7.808 -1.6464  1.5251 -0.6260
  171SOPE  H12S19341  -0.073   4.270   7.828  2.2530 -0.1133 -0.1930
  171SOPE  C21319342  -0.231   4.426   7.829  0.0182  0.0753 -0.1935
  171SOPE  H13R19343  -0.313   4.351   7.818  0.6739 -0.6688 -0.0927
  171SOPE  H13S19344  -0.259   4.510   7.763  2.0845 -0.8409 -2.3241
  171SOPE  C21419345  -0.225   4.472   7.975 -0.2763 -0.1084  0.0578
  171SOPE  H14R19346  -0.164   4.564   7.991  0.9907 -1.4792  3.5279
  171SOPE  H14S19347  -0.183   4.389   8.036 -1.2673  1.2925  2.7420
  171SOPE  C21519348  -0.364   4.493   8.028  0.5936 -0.9344 -0.3706
  171SOPE  H15R19349  -0.426   4.401   8.035 -0.4415 -0.5402 -3.3519
  171SOPE  H15S19350  -0.415   4.569   7.964  0.1239  0.6445  1.8269
  171SOPE  C21619351  -0.367   4.566   8.169 -0.6953  0.2296  0.5487
  171SOPE  H16R19352  -0.330   4.666   8.141  0.3656 -0.3571 -0.1668
  171SOPE  H16S19353  -0.279   4.534   8.228 -1.1528 -1.2650  0.4530
  171SOPE  C21719354  -0.496   4.555   8.245 -0.3032  0.1938  1.1056
  171SOPE  H17R19355  -0.570   4.590   8.171 -1.8933  0.2249  2.6828
  171SOPE  H17S19356  -0.482   4.625   8.330  2.0356  3.1617 -1.5950
  171SOPE  C21819357  -0.541   4.428   8.303 -0.8628  0.4481  0.3797
  171SOPE  H18R19358  -0.647   4.408   8.276 -1.5307  1.4145  2.1889
  171SOPE  H18S19359  -0.530   4.436   8.413 -0.4605 -1.7036  0.5148
  171SOPE  H18T19360  -0.473   4.346   8.271 -0.6064  0.3249  1.2278
  171SOPE   C3319361  -0.210   3.285   7.128 -0.1699  0.2216  0.0849
  171SOPE   H3X19362  -0.255   3.269   7.228  1.6227 -0.6277  0.7913
  171SOPE   H3Y19363  -0.243   3.386   7.096  1.0486  1.4113  2.4387
  171SOPE   C3419364  -0.058   3.283   7.142 -0.4161 -0.1337 -0.2790
  171SOPE   H4X19365  -0.014   3.305   7.042  2.8885 -0.4362  1.0612
  171SOPE   H4Y19366  -0.024   3.181   7.166  3.4086  0.7172 -1.6719
  171SOPE   C3519367  -0.001   3.373   7.245 -0.0992  0.2499 -0.3926
  171SOPE   H5X19368  -0.035   3.475   7.214 -0.6525  0.1454 -0.1283
  171SOPE   H5Y19369   0.110   3.365   7.242 -0.0088  0.8582  1.1427
  171SOPE   C3619370  -0.060   3.354   7.388 -0.1769  1.1227  0.2610
  171SOPE   H6X19371  -0.024   3.253   7.415 -0.0094  1.8766  3.0008
  171SOPE   H6Y19372  -0.171   3.354   7.386 -0.1697 -0.7182 -2.5071
  171SOPE   C3719373  -0.008   3.462   7.488 -0.4705 -0.2931  0.0244
  171SOPE   H7X19374   0.051   3.544   7.442 -1.7652 -0.5532 -2.1662
  171SOPE   H7Y19375   0.058   3.414   7.564  0.3007  0.1092 -0.3897
  171SOPE   C3819376  -0.122   3.537   7.550 -1.0232  0.5785 -0.0859
  171SOPE   H8X19377  -0.200   3.469   7.592 -1.2111  0.8670  0.0378
  171SOPE   H8Y19378  -0.178   3.593   7.472 -2.0514 -0.1031  0.1332
  171SOPE   C3919379  -0.074   3.635   7.667 -0.0439  0.6185  0.3058
  171SOPE   H9X19380  -0.171   3.685   7.688 -0.9752 -0.8424 -0.4180
  171SOPE   H9Y19381  -0.001   3.711   7.633 -0.3588  0.6816 -0.2325
  171SOPE  C31019382  -0.032   3.562   7.793  0.7076  0.2390 -0.2946
  171SOPE  H10X19383   0.062   3.504   7.777  0.2537 -0.9587  1.2284
  171SOPE  H10Y19384  -0.102   3.476   7.807  0.3415  1.1105  3.8472
  171SOPE  C31119385  -0.016   3.644   7.917  0.3839  0.8365  0.2520
  171SOPE  H11X19386   0.026   3.581   7.999 -0.0517 -1.0553 -0.9437
  171SOPE  H11Y19387  -0.113   3.681   7.954 -1.2592 -0.9990 -2.0725
  171SOPE  C31219388   0.073   3.766   7.891  0.3685 -0.3527 -1.1904
  171SOPE  H12X19389   0.056   3.820   7.796  0.0215  1.4335 -0.1384
  171SOPE  H12Y19390   0.179   3.736   7.910  0.8322  1.1675 -1.2954
  171SOPE  C31319391   0.031   3.880   7.996  0.8293  0.4536  1.1530
  171SOPE  H13X19392  -0.010   3.842   8.091  1.0725 -0.5044  0.8821
  171SOPE  H13Y19393  -0.057   3.939   7.962  0.4938 -0.7309 -0.1006
  171SOPE  C31419394   0.138   3.990   8.027 -0.4641 -0.3491  0.0421
  171SOPE  H14X19395   0.164   4.049   7.936  1.7990 -0.1607  0.7858
  171SOPE  H14Y19396   0.229   3.937   8.061  0.4018  1.1627  0.1023
  171SOPE  C31519397   0.114   4.085   8.154  0.9129 -0.0919 -0.9585
  171SOPE  H15X19398   0.204   4.148   8.166  0.0202  0.6833  2.0846
  171SOPE  H15Y19399   0.093   4.019   8.241 -0.1993 -2.8814 -3.2515
  171SOPE  C31619400  -0.016   4.169   8.140  0.1546 -0.6200  0.5862
  171SOPE  H16X19401  -0.100   4.105   8.106  0.2031  0.4802 -1.7395
  171SOPE  H16Y19402  -0.004   4.236   8.052 -1.5094 -1.0353  0.0192
  171SOPE  C31719403  -0.047   4.257   8.258  0.5922 -0.4149 -0.0698
  171SOPE  H17X19404  -0.062   4.197   8.350 -1.5061 -0.1680 -0.2178
  171SOPE  H17Y19405  -0.151   4.293   8.240  0.4390 -0.1450  1.3348
  171SOPE  C31819406   0.066   4.371   8.279  0.0166  0.5379  0.2643
  171SOPE  H18X19407   0.140   4.331   8.352 -0.0229 -1.2535 -0.6440
  171SOPE  H18Y19408   0.028   4.469   8.315  0.7775  0.5864  0.9638
  171SOPE  H18Z19409   0.113   4.385   8.180  0.5039 -0.9409  0.2783
  172SOPE     N19410   0.980   5.592   6.319 -0.5169  0.3670 -0.0902
  172SOPE   HN119411   1.028   5.575   6.411  0.3173 -0.3658 -0.6453
  172SOPE   HN219412   1.062   5.609   6.257 -0.2604  2.3383  0.7487
  172SOPE   HN319413   0.924   5.678   6.329  0.3421  1.0196 -0.8582
  172SOPE   C1219414   0.895   5.482   6.268  1.0130  0.7327  0.2737
  172SOPE  H12A19415   0.958   5.397   6.236 -0.1993  0.6216 -1.9354
  172SOPE  H12B19416   0.835   5.527   6.186  1.9610 -1.4626 -1.6710
  172SOPE   C1119417   0.795   5.440   6.379 -0.1144  0.5332 -0.2656
  172SOPE  H11A19418   0.851   5.384   6.457 -1.8941 -0.8956  0.0286
  172SOPE  H11B19419   0.719   5.375   6.330  1.7826 -0.1701 -2.3346
  172SOPE     P19420   0.602   5.552   6.514 -0.2186  0.2031 -0.0752
  172SOPE   O1319421   0.504   5.460   6.444 -0.6910 -0.6783 -0.0902
  172SOPE   O1419422   0.552   5.695   6.533 -0.1516 -0.3866  0.2042
  172SOPE   O1219423   0.734   5.549   6.437 -0.4415  0.9736 -0.4254
  172SOPE   O1119424   0.651   5.495   6.655 -0.5551 -0.0045  0.5515
  172SOPE    C119425   0.746   5.566   6.730 -0.0675  0.4574  0.5044
  172SOPE    HA19426   0.760   5.670   6.692 -1.8722  0.9192  1.0229
  172SOPE    HB19427   0.843   5.512   6.728  1.4230  3.0153  1.0409
  172SOPE    C219428   0.711   5.571   6.880  0.0707  0.6681  0.3142
  172SOPE    HS19429   0.783   5.643   6.925 -0.8512  1.3902  0.6734
  172SOPE   O2119430   0.739   5.443   6.944  0.2899  0.2772  0.5576
  172SOPE   C2119431   0.773   5.440   7.074  0.6711 -0.2584  0.3288
  172SOPE   O2219432   0.808   5.537   7.131 -0.1689 -0.0229  0.3774
  172SOPE   C2219433   0.762   5.299   7.122  0.1987 -1.1701 -0.0246
  172SOPE   H2R19434   0.858   5.254   7.088  2.2741  1.9497  1.5179
  172SOPE   H2S19435   0.677   5.242   7.078 -1.5441  1.7746 -0.6320
  172SOPE    C319436   0.559   5.604   6.914 -0.0149 -0.0869 -0.3677
  172SOPE    HX19437   0.494   5.521   6.879 -3.7206  2.3171  0.5453
  172SOPE    HY19438   0.534   5.696   6.857  0.0840 -0.4760 -1.0370
  172SOPE   O3119439   0.541   5.621   7.055 -0.9159  0.5729 -0.5392
  172SOPE   C3119440   0.568   5.734   7.117  0.1534 -0.3991  0.8293
  172SOPE   O3219441   0.608   5.837   7.068 -0.1016  0.0898  0.4561
  172SOPE   C3219442   0.547   5.727   7.269 -0.1163 -0.6792  0.5293
  172SOPE   H2X19443   0.638   5.693   7.322  0.1393  0.0228  0.5578
  172SOPE   H2Y19444   0.468   5.656   7.301 -1.0933  0.8080  1.4649
  172SOPE   C2319445   0.774   5.293   7.274 -0.6681  0.4435  0.0040
  172SOPE   H3R19446   0.845   5.369   7.315 -0.5048 -0.7652  2.0220
  172SOPE   H3S19447   0.825   5.197   7.294  0.5439  0.9630 -0.5301
  172SOPE   C2419448   0.646   5.307   7.341  0.0204 -0.5260  0.2511
  172SOPE   H4R19449   0.618   5.412   7.316  1.7592 -0.3486 -1.0795
  172SOPE   H4S19450   0.563   5.246   7.300 -1.8004  0.5423  2.2310
  172SOPE   C2519451   0.653   5.270   7.493  0.6281  0.0706 -0.4310
  172SOPE   H5R19452   0.548   5.291   7.522 -0.3767 -1.8809 -2.5024
  172SOPE   H5S19453   0.685   5.165   7.510  0.9106  0.0985 -0.7787
  172SOPE   C2619454   0.738   5.366   7.586  0.5101 -0.2175  0.3137
  172SOPE   H6R19455   0.729   5.327   7.690 -0.2910  1.2592  0.8222
  172SOPE   H6S19456   0.847   5.360   7.566  0.4497 -1.4056  0.2951
  172SOPE   C2719457   0.681   5.515   7.582 -0.6270 -0.4175 -0.4362
  172SOPE   H7R19458   0.681   5.553   7.477 -0.2426  2.2836  0.5069
  172SOPE   H7S19459   0.577   5.516   7.620 -1.1030  0.5733 -1.7386
  172SOPE   C2819460   0.765   5.610   7.669 -0.6074  0.7293 -0.0622
  172SOPE   H8R19461   0.867   5.608   7.627  1.0841  0.9910  3.8337
  172SOPE   H8S19462   0.720   5.710   7.650  0.3563  1.8312  3.0942
  172SOPE   C2919463   0.765   5.570   7.818 -0.2914 -0.0492  0.1598
  172SOPE   H9119464   0.768   5.462   7.841  0.3994  0.1609  1.0882
  172SOPE  C21019465   0.752   5.657   7.916 -0.1490 -0.0706 -0.4129
  172SOPE  H10119466   0.754   5.625   8.021  3.8284 -1.0763 -0.7286
  172SOPE  C21119467   0.738   5.807   7.909 -0.5273  0.2105 -0.3915
  172SOPE  H11R19468   0.767   5.846   7.809  0.3041  0.8918  0.1171
  172SOPE  H11S19469   0.820   5.843   7.974  1.1465 -0.9279 -1.8314
  172SOPE  C21219470   0.611   5.864   7.983  0.1009 -0.2019  0.6860
  172SOPE  H12R19471   0.522   5.803   7.955 -0.3634  0.1200  1.4451
  172SOPE  H12S19472   0.606   5.970   7.949  2.5349 -0.4979 -0.6981
  172SOPE  C21319473   0.631   5.861   8.134  0.4823 -0.2763 -0.7831
  172SOPE  H13R19474   0.723   5.910   8.172  0.4213 -0.6777 -0.1115
  172SOPE  H13S19475   0.630   5.757   8.174  1.2664  0.7060  1.8747
  172SOPE  C21419476   0.516   5.941   8.208  0.0666  0.2350  0.2802
  172SOPE  H14R19477   0.416   5.922   8.163  0.4285  2.2328 -1.4417
  172SOPE  H14S19478   0.537   6.048   8.186  3.2705 -0.3263  0.3144
  172SOPE  C21519479   0.511   5.909   8.360 -0.6038 -0.2985  0.3683
  172SOPE  H15R19480   0.453   5.976   8.426  0.3959  1.9788 -1.0113
  172SOPE  H15S19481   0.617   5.903   8.393 -0.1455  0.2870 -0.9703
  172SOPE  C21619482   0.446   5.774   8.393  0.7656  0.2044 -0.9499
  172SOPE  H16R19483   0.485   5.706   8.314  1.0590 -0.5345 -0.1812
  172SOPE  H16S19484   0.335   5.776   8.388  0.6137 -2.7062  0.2224
  172SOPE  C21719485   0.485   5.715   8.531  0.4070 -0.5263 -0.1439
  172SOPE  H17R19486   0.460   5.786   8.613 -2.7419 -0.0411 -1.4698
  172SOPE  H17S19487   0.592   5.691   8.548  0.5660  0.3648  0.1368
  172SOPE  C21819488   0.396   5.595   8.562  0.4743 -0.0973 -0.0679
  172SOPE  H18R19489   0.414   5.507   8.498  0.7460  0.1891 -0.3894
  172SOPE  H18S19490   0.294   5.627   8.531 -0.0737 -0.7497  1.0277
  172SOPE  H18T19491   0.388   5.563   8.668 -0.2003 -0.3271 -0.1853
  172SOPE   C3319492   0.506   5.866   7.324 -0.0113 -0.4489  0.8763
  172SOPE   H3X19493   0.395   5.879   7.317  0.2875  1.5569 -0.6006
  172SOPE   H3Y19494   0.553   5.954   7.275  0.9716 -1.1306  0.5820
  172SOPE   C3419495   0.530   5.875   7.478  0.6138 -0.5715  0.3718
  172SOPE   H4X19496   0.638   5.895   7.498  0.4947  0.9646 -0.3785
  172SOPE   H4Y19497   0.507   5.778   7.527 -3.3433  0.2295  0.2587
  172SOPE   C3519498   0.428   5.974   7.542  0.0642 -0.2883  0.5143
  172SOPE   H5X19499   0.324   5.934   7.536  0.6940 -1.7173 -1.3988
  172SOPE   H5Y19500   0.424   6.067   7.482 -1.0282 -0.1417  0.7986
  172SOPE   C3619501   0.458   6.007   7.684  0.4446  0.1687  0.4722
  172SOPE   H6X19502   0.564   6.029   7.710 -0.0365  0.8815  1.9476
  172SOPE   H6Y19503   0.436   5.909   7.731  2.5169 -0.1452  0.8604
  172SOPE   C3719504   0.344   6.092   7.746  0.5638  0.2509  0.1956
  172SOPE   H7X19505   0.270   6.115   7.666  0.5039  1.8257  0.6830
  172SOPE   H7Y19506   0.398   6.186   7.771 -1.5972  1.3868  0.7007
  172SOPE   C3819507   0.282   6.038   7.875 -0.3309  0.2702 -0.5629
  172SOPE   H8X19508   0.360   6.010   7.949 -2.2979 -0.1656  1.4488
  172SOPE   H8Y19509   0.217   5.948   7.861 -0.7457  0.0236  2.5078
  172SOPE   C3919510   0.190   6.136   7.942  0.6862  0.4217  0.8769
  172SOPE   H9X19511   0.101   6.160   7.880  0.7494 -1.9049 -0.1365
  172SOPE   H9Y19512   0.244   6.233   7.953  1.4490 -0.1296  2.1007
  172SOPE  C31019513   0.152   6.091   8.084 -1.3316 -0.2759 -0.8897
  172SOPE  H10X19514   0.085   6.159   8.142 -1.0657 -2.6303  2.3176
  172SOPE  H10Y19515   0.246   6.093   8.144 -2.9833 -0.8462  1.7982
  172SOPE  C31119516   0.120   5.942   8.097  0.2778  0.0962  0.2021
  172SOPE  H11X19517   0.212   5.880   8.107  0.6636  0.0659 -2.9239
  172SOPE  H11Y19518   0.068   5.923   8.001  2.2657  1.0945 -1.1099
  172SOPE  C31219519   0.028   5.897   8.214  0.3747  0.2349 -0.0363
  172SOPE  H12X19520  -0.064   5.956   8.192  0.4544  0.1910 -0.4861
  172SOPE  H12Y19521   0.078   5.927   8.308  3.0816 -0.2762 -1.2549
  172SOPE  C31319522   0.004   5.747   8.232  0.3312 -1.4988  0.4017
  172SOPE  H13X19523   0.092   5.679   8.226  0.2669 -1.5326 -0.1356
  172SOPE  H13Y19524  -0.051   5.719   8.140 -0.7852 -0.0540  0.6072
  172SOPE  C31419525  -0.091   5.714   8.354 -0.2151 -0.0998  0.0014
  172SOPE  H14X19526  -0.098   5.603   8.348 -2.5961  0.0809 -1.2276
  172SOPE  H14Y19527  -0.187   5.760   8.320  0.3367 -0.9986 -2.9581
  172SOPE  C31519528  -0.068   5.770   8.496 -0.3544  0.4260 -0.0784
  172SOPE  H15X19529  -0.080   5.880   8.491  1.4503  0.7202  1.5062
  172SOPE  H15Y19530   0.040   5.756   8.519 -0.1866  0.8447 -0.6114
  172SOPE  C31619531  -0.154   5.705   8.606  0.4610  0.0249 -0.0726
  172SOPE  H16X19532  -0.174   5.598   8.581  1.7393 -0.9724  2.8790
  172SOPE  H16Y19533  -0.249   5.759   8.586  0.9042  0.8772  0.1266
  172SOPE  C31719534  -0.109   5.724   8.749 -0.4121 -0.5060  0.9232
  172SOPE  H17X19535  -0.090   5.834   8.755 -0.5753 -0.2782 -2.0413
  172SOPE  H17Y19536  -0.010   5.674   8.760  0.1081  0.0449 -0.9553
  172SOPE  C31819537  -0.210   5.684   8.849 -0.1690  0.2031 -0.7254
  172SOPE  H18X19538  -0.167   5.696   8.950 -2.4195  1.8017  0.0792
  172SOPE  H18Y19539  -0.244   5.579   8.838  0.1777  0.0512 -0.3399
  172SOPE  H18Z19540  -0.300   5.748   8.865  0.0021  0.0791  0.7272
  173SAPI   C1219541   2.312   2.789  11.026  0.5487 -0.9312 -0.1443
  173SAPI    H219542   2.346   2.688  11.057 -0.1356 -0.1927  3.1794
  173SAPI    O219543   2.250   2.845  11.140 -0.0616 -0.1399 -0.2284
  173SAPI   HO219544   2.160   2.869  11.117  0.3147  1.7886  0.2342
  173SAPI   C1319545   2.435   2.869  10.981  0.4382  0.3537 -0.0936
  173SAPI    H319546   2.489   2.818  10.898  1.7206 -2.1261  2.1905
  173SAPI    O319547   2.529   2.870  11.092 -0.0902  0.4749  0.0240
  173SAPI   HO319548   2.480   2.901  11.169  0.8894  0.3221  0.7210
  173SAPI   C1419549   2.395   3.006  10.923 -0.1689 -0.0882 -0.4770
  173SAPI    H419550   2.333   3.061  10.997  0.9429 -0.9991  1.1568
  173SAPI    O419551   2.508   3.086  10.893 -0.2495  0.0805  0.3906
  173SAPI   HO419552   2.572   3.026  10.854  0.5971  0.7948  0.6473
  173SAPI   C1519553   2.288   2.977  10.810  0.5523 -0.4867 -0.5229
  173SAPI    H519554   2.342   2.919  10.731  1.8390  0.8029 -0.6140
  173SAPI    O519555   2.248   3.100  10.742  0.2527 -0.7061 -0.1327
  173SAPI   HO519556   2.239   3.087  10.647 -0.3209  0.4521 -0.2450
  173SAPI   C1619557   2.170   2.905  10.859  0.4357  0.1238  0.3317
  173SAPI    H619558   2.123   2.970  10.936 -2.2471  2.0584 -2.8432
  173SAPI    O619559   2.071   2.888  10.756  0.0302  0.5864 -0.0660
  173SAPI   HO619560   2.035   2.800  10.772  1.0188  0.0651 -0.6150
  173SAPI   C1119561   2.212   2.771  10.917 -0.4102  0.2800 -0.6246
  173SAPI    H119562   2.260   2.722  10.830  0.2201 -2.4079  1.1797
  173SAPI     P19563   2.065   2.550  10.894 -0.1282 -0.3168  0.0935
  173SAPI   O1319564   2.001   2.461  10.990  0.3022  0.1643 -0.5876
  173SAPI   O1419565   2.192   2.489  10.846 -0.4420 -0.1136  0.2906
  173SAPI   O1219566   2.093   2.700  10.961 -0.3589 -0.2080  0.5418
  173SAPI   O1119567   1.977   2.585  10.771 -0.5644 -0.7258  0.4906
  173SAPI    C119568   1.901   2.487  10.699 -1.1561 -0.1869  0.4813
  173SAPI    HA19569   1.943   2.385  10.713 -0.4121 -0.1264 -1.1255
  173SAPI    HB19570   1.797   2.488  10.738 -1.6702  0.8135 -0.8749
  173SAPI    C219571   1.906   2.502  10.545  0.0756 -0.7286 -0.4401
  173SAPI    HS19572   1.950   2.409  10.504  0.0261 -1.2895  0.7539
  173SAPI   O2119573   1.971   2.623  10.507 -0.1353  0.2271 -0.2594
  173SAPI   C2119574   2.100   2.604  10.475  0.5577 -0.3628 -0.0634
  173SAPI   O2219575   2.153   2.497  10.485  0.1318  0.0739 -0.5407
  173SAPI   C2219576   2.162   2.724  10.412 -0.1444 -0.0307 -0.2831
  173SAPI   H2R19577   2.106   2.812  10.452  0.3192  0.0238  0.2486
  173SAPI   H2S19578   2.268   2.732  10.444 -0.6436  1.4476  1.0623
  173SAPI    C319579   1.763   2.501  10.483 -0.0303  0.1160 -0.8557
  173SAPI    HX19580   1.695   2.570  10.537  0.2938  0.0795 -0.3890
  173SAPI    HY19581   1.722   2.404  10.519 -0.6187  0.7610  0.2502
  173SAPI   O3119582   1.758   2.524  10.341 -0.3056 -0.6535  0.1944
  173SAPI   C3119583   1.827   2.446  10.256  1.2312  0.8185  0.8299
  173SAPI   O3219584   1.910   2.364  10.295 -0.1517  0.0481 -0.2594
  173SAPI   C3219585   1.796   2.485  10.113  0.1065 -0.6254  0.3694
  173SAPI   H2X19586   1.773   2.593  10.114  0.9603 -0.4485  1.0728
  173SAPI   H2Y19587   1.714   2.420  10.074  0.7684 -0.7591 -0.8248
  173SAPI   C2319588   2.141   2.732  10.254 -0.4684 -0.0501 -0.4552
  173SAPI   H3R19589   2.030   2.737  10.250 -0.5743 -0.9233  1.0574
  173SAPI   H3S19590   2.170   2.636  10.206 -0.1154 -0.5727  0.7984
  173SAPI   C2419591   2.207   2.857  10.187  0.1215  0.2189  0.3623
  173SAPI   H4R19592   2.176   2.948  10.242  0.8667  0.0994  0.9921
  173SAPI   H4S19593   2.159   2.861  10.087  1.2244  0.0309 -0.1805
  173SAPI   C2519594   2.354   2.851  10.188 -0.3251 -0.0839  0.3361
  173SAPI   H5R19595   2.397   2.839  10.288  0.9295  0.7029 -0.0896
  173SAPI   C2619596   2.438   2.843  10.079  0.2019  0.2555 -0.1130
  173SAPI   H6R19597   2.547   2.830  10.087  0.4277  2.3436  0.4373
  173SAPI   C2719598   2.392   2.850   9.934  0.3706 -0.4107 -0.1889
  173SAPI   H7R19599   2.481   2.859   9.868  0.0064  2.1929 -0.3439
  173SAPI   H7S19600   2.347   2.950   9.917 -0.8569 -0.8535  0.3503
  173SAPI   C2819601   2.294   2.750   9.882  0.7027 -0.2473 -0.2127
  173SAPI   H8R19602   2.231   2.704   9.960  1.6739  1.2660  1.4864
  173SAPI   C2919603   2.273   2.728   9.748 -0.0055  0.4805 -0.4361
  173SAPI   H9R19604   2.190   2.661   9.719  2.2705 -3.3136  1.4534
  173SAPI  C21019605   2.347   2.791   9.630 -0.2784 -0.7786 -0.0519
  173SAPI  H10R19606   2.423   2.714   9.606 -0.7610 -1.6115  1.0508
  173SAPI  H10S19607   2.397   2.885   9.663  1.2756 -1.2007 -1.1353
  173SAPI  C21119608   2.269   2.822   9.505 -0.3794  0.1123  0.2041
  173SAPI  H11R19609   2.159   2.815   9.506 -0.2654 -2.7388 -1.3833
  173SAPI  C21219610   2.329   2.867   9.396 -0.0993  0.3455 -0.1160
  173SAPI  H12R19611   2.272   2.888   9.304  2.9528 -0.5699 -2.2949
  173SAPI  C21319612   2.475   2.885   9.377  0.2547 -0.3859  0.0653
  173SAPI  H13R19613   2.499   2.897   9.269  2.2687  2.3075  0.7472
  173SAPI  H13S19614   2.525   2.797   9.423 -1.8698 -1.7552 -0.1932
  173SAPI  C21419615   2.513   3.005   9.463 -0.3673 -0.3633  0.1752
  173SAPI  H14R19616   2.587   2.990   9.544 -0.6392 -1.1858  0.2776
  173SAPI  C21519617   2.472   3.141   9.444 -0.0714 -0.2723  0.2829
  173SAPI  H15R19618   2.492   3.211   9.526  1.9558 -0.6109  0.1126
  173SAPI  C21619619   2.379   3.199   9.344  0.0214 -0.8832  0.5853
  173SAPI  H16R19620   2.291   3.237   9.400  2.3141  2.7873  1.8951
  173SAPI  H16S19621   2.331   3.120   9.283  1.0771 -0.8592 -0.3010
  173SAPI  C21719622   2.443   3.298   9.250 -0.6817  0.3184  0.0335
  173SAPI  H17R19623   2.520   3.357   9.305 -2.7221  0.2508  3.0403
  173SAPI  H17S19624   2.376   3.378   9.210  0.2204  1.7114  1.2493
  173SAPI  C21819625   2.510   3.227   9.132  0.1789  0.2444 -0.0235
  173SAPI  H18R19626   2.420   3.177   9.089 -1.8243  0.5106  3.6938
  173SAPI  H18S19627   2.578   3.153   9.181 -2.9221 -0.7209  2.9884
  173SAPI  C21919628   2.586   3.325   9.044 -0.3150 -0.5240 -0.5187
  173SAPI  H19R19629   2.665   3.278   8.982  1.1156 -2.3658  2.5968
  173SAPI  H19S19630   2.654   3.384   9.109 -1.8584 -0.7967  1.3930
  173SAPI  C22019631   2.503   3.425   8.962 -0.0420 -0.0341 -0.3893
  173SAPI  H20R19632   2.460   3.503   9.029  0.6588 -0.0167  0.0342
  173SAPI  H20S19633   2.429   3.381   8.892  0.8766  0.5888 -1.7669
  173SAPI  H20T19634   2.582   3.476   8.903 -2.3395  0.8726 -2.8337
  173SAPI   C3319635   1.932   2.466  10.030 -0.0378 -0.3292 -0.1412
  173SAPI   H3X19636   1.961   2.359  10.025  2.6394  0.4152 -1.6935
  173SAPI   H3Y19637   2.015   2.528  10.071  0.8524 -1.4464 -0.2505
  173SAPI   C3419638   1.919   2.501   9.880 -0.2331  0.4128 -0.0316
  173SAPI   H4X19639   1.920   2.612   9.869 -1.2645  0.4588  0.2773
  173SAPI   H4Y19640   1.824   2.450   9.856 -1.0451  1.2337  1.3635
  173SAPI   C3519641   2.027   2.447   9.791  0.0566  0.2148 -0.1076
  173SAPI   H5X19642   2.027   2.337   9.809  1.9742 -0.0069 -1.2407
  173SAPI   H5Y19643   2.128   2.486   9.819  0.0901 -0.6758  1.0622
  173SAPI   C3619644   2.012   2.471   9.637  0.3562 -0.3168  0.4179
  173SAPI   H6X19645   2.083   2.416   9.572 -1.1303 -0.5237 -1.0703
  173SAPI   H6Y19646   2.043   2.575   9.615  1.2990 -0.4986  0.8519
  173SAPI   C3719647   1.873   2.470   9.586  0.0042 -0.3436 -1.0434
  173SAPI   H7X19648   1.796   2.514   9.654 -0.3762 -0.8261 -1.1581
  173SAPI   H7Y19649   1.839   2.367   9.564 -1.3605 -0.0636 -0.3544
  173SAPI   C3819650   1.864   2.557   9.465 -0.2207  0.1417  0.0797
  173SAPI   H8X19651   1.880   2.666   9.480 -1.0724  0.2551  0.2040
  173SAPI   H8Y19652   1.763   2.549   9.418 -0.8427  1.5434  1.1377
  173SAPI   C3919653   1.968   2.516   9.357  0.1272  0.0414  0.1274
  173SAPI   H9X19654   1.980   2.405   9.362 -3.0202 -0.2948  0.9488
  173SAPI   H9Y19655   2.068   2.563   9.365 -0.1509  1.0887 -2.2992
  173SAPI  C31019656   1.931   2.558   9.215  0.0066  0.0067  0.3917
  173SAPI  H10X19657   1.924   2.668   9.210 -2.0268 -0.1392 -0.2610
  173SAPI  H10Y19658   1.829   2.523   9.187  0.7326 -1.3240 -0.6915
  173SAPI  C31119659   2.022   2.526   9.095 -0.3640 -0.6344  0.3177
  173SAPI  H11X19660   2.047   2.418   9.095  2.2976 -0.0633 -0.3232
  173SAPI  H11Y19661   2.109   2.594   9.103 -0.1792 -0.4421 -2.7950
  173SAPI  C31219662   1.965   2.543   8.954 -0.0373  0.1719  0.0343
  173SAPI  H12X19663   1.916   2.642   8.954  2.2976  1.3868 -1.6407
  173SAPI  H12Y19664   1.875   2.480   8.938  1.6436 -1.8417 -2.0825
  173SAPI  C31319665   2.050   2.533   8.823  0.4832  0.1283 -0.5609
  173SAPI  H13X19666   2.083   2.428   8.813  1.0807  0.4036 -1.5454
  173SAPI  H13Y19667   2.138   2.601   8.832  0.9470 -0.6801  1.1825
  173SAPI  C31419668   1.975   2.584   8.700 -0.0548  0.2944 -1.0761
  173SAPI  H14X19669   1.954   2.692   8.710  2.7570  0.7778  0.2296
  173SAPI  H14Y19670   1.875   2.536   8.701  1.0066 -1.9552 -0.0046
  173SAPI  C31519671   2.051   2.553   8.571 -0.4826 -0.1373 -0.2232
  173SAPI  H15X19672   1.975   2.572   8.491 -0.0912 -4.7622 -1.8480
  173SAPI  H15Y19673   2.086   2.448   8.571 -1.0420 -0.3233 -0.2410
  173SAPI  C31619674   2.178   2.639   8.552  0.0213  0.0309  0.3075
  173SAPI  H16X19675   2.244   2.613   8.638 -0.8310 -0.1454  0.9187
  173SAPI  H16Y19676   2.172   2.749   8.561  3.1175  0.3851 -1.4596
  173SAPI  C31719677   2.259   2.626   8.424  0.7101  0.3382  0.1427
  173SAPI  H17X19678   2.177   2.624   8.348 -0.5416 -0.5824  1.4832
  173SAPI  H17Y19679   2.321   2.534   8.426  0.9158  0.5021  2.7128
  173SAPI  C31819680   2.346   2.738   8.381 -0.2341  0.5019  0.2352
  173SAPI  H18X19681   2.430   2.746   8.454 -0.4924  0.4818  0.5354
  173SAPI  H18Y19682   2.296   2.837   8.385 -0.1224  0.7631 -3.6153
  173SAPI  H18Z19683   2.381   2.729   8.276 -0.4254  2.3495 -0.0021
  174SAPI   C1219684   5.536   4.365  11.123  0.1815  0.4485 -0.7132
  174SAPI    H219685   5.641   4.330  11.112  0.2344  0.6704 -0.9009
  174SAPI    O219686   5.485   4.304  11.242 -0.8975  0.2144  0.2718
  174SAPI   HO219687   5.538   4.229  11.267 -0.2800  0.5554 -0.0094
  174SAPI   C1319688   5.546   4.517  11.134  0.6542 -0.1581 -0.2307
  174SAPI    H319689   5.578   4.559  11.036 -0.1431  0.6452 -0.1539
  174SAPI    O319690   5.637   4.559  11.233  0.4151 -0.3827  0.4466
  174SAPI   HO319691   5.726   4.579  11.203  1.1393 -0.9208  2.1380
  174SAPI   C1419692   5.404   4.568  11.161 -0.7416 -0.4783 -0.2860
  174SAPI    H419693   5.370   4.527  11.258  2.3880 -1.4567  0.4450
  174SAPI    O419694   5.394   4.706  11.193  0.8296 -0.1336 -0.7439
  174SAPI   HO419695   5.457   4.747  11.133  0.5497  0.5974 -0.5470
  174SAPI   C1519696   5.311   4.538  11.051  0.6032  0.1788 -0.2910
  174SAPI    H519697   5.360   4.592  10.967  1.7387 -1.6918 -0.8598
  174SAPI    O519698   5.179   4.597  11.079 -0.6246  0.3429 -0.8242
  174SAPI   HO519699   5.171   4.628  11.169  0.9184 -2.6294  0.3955
  174SAPI   C1619700   5.310   4.395  11.029 -0.4784  0.0611 -0.6403
  174SAPI    H619701   5.265   4.341  11.115 -0.5029  0.7376 -0.2321
  174SAPI    O619702   5.223   4.365  10.918  0.3205 -0.2717  0.0859
  174SAPI   HO619703   5.186   4.277  10.926 -2.6003  0.9456  0.5193
  174SAPI   C1119704   5.447   4.332  11.009 -0.0639  0.0475  0.6161
  174SAPI    H119705   5.482   4.374  10.912  1.0024 -1.3657  0.3824
  174SAPI     P19706   5.562   4.117  10.898 -0.0265 -0.1554  0.0765
  174SAPI   O1319707   5.551   3.971  10.904 -0.2851  0.0594  0.7690
  174SAPI   O1419708   5.697   4.175  10.932  0.1397 -0.0707  0.8132
  174SAPI   O1219709   5.443   4.187  10.992 -0.0044 -0.3893 -0.4121
  174SAPI   O1119710   5.528   4.171  10.751 -0.1231 -0.1810 -0.0319
  174SAPI    C119711   5.401   4.140  10.684  0.6669 -0.0702 -0.4810
  174SAPI    HA19712   5.357   4.042  10.711 -0.3334  0.5769  0.2467
  174SAPI    HB19713   5.315   4.200  10.719  0.9083 -0.7556  1.3268
  174SAPI    C219714   5.407   4.158  10.527  0.1463 -0.4311 -0.1520
  174SAPI    HS19715   5.304   4.137  10.490  0.3744 -1.8811  0.0144
  174SAPI   O2119716   5.509   4.077  10.471 -0.0449  0.0635  0.1072
  174SAPI   C2119717   5.475   3.947  10.468 -0.1740  0.5120  0.1575
  174SAPI   O2219718   5.380   3.895  10.519  0.3108  0.4998 -0.0468
  174SAPI   C2219719   5.584   3.868  10.387  0.1065 -0.2467 -0.1426
  174SAPI   H2R19720   5.656   3.937  10.338  0.1460 -0.6045 -0.5881
  174SAPI   H2S19721   5.643   3.802  10.455  0.5595 -2.0682 -2.2776
  174SAPI    C319722   5.452   4.298  10.492  0.0320 -0.1837 -0.2767
  174SAPI    HX19723   5.553   4.315  10.536 -0.2889 -0.7998  0.7322
  174SAPI    HY19724   5.385   4.370  10.544 -0.6188 -0.7916 -0.2677
  174SAPI   O3119725   5.446   4.319  10.345 -0.2447  0.0237 -0.7030
  174SAPI   C3119726   5.558   4.342  10.284  0.0971  0.2225 -0.1243
  174SAPI   O3219727   5.670   4.333  10.323 -0.4579  0.1560  0.6282
  174SAPI   C3219728   5.510   4.366  10.141  0.1406  0.3014  0.7624
  174SAPI   H2X19729   5.505   4.475  10.122  0.2098  0.1293 -0.2811
  174SAPI   H2Y19730   5.406   4.327  10.136  0.0372  0.5025  1.3135
  174SAPI   C2319731   5.514   3.788  10.275  0.1122  0.3433  0.0688
  174SAPI   H3R19732   5.463   3.862  10.210 -0.0744  1.2929  1.2771
  174SAPI   H3S19733   5.439   3.719  10.322  1.4370  0.7500  2.8812
  174SAPI   C2419734   5.607   3.703  10.194 -0.3484  0.3897 -0.0556
  174SAPI   H4R19735   5.553   3.624  10.138 -1.6792  2.1363 -1.2997
  174SAPI   H4S19736   5.678   3.644  10.255 -0.5654  1.2423  1.0336
  174SAPI   C2519737   5.695   3.781  10.093 -0.1849 -0.1857 -0.2202
  174SAPI   H5R19738   5.758   3.854  10.145 -0.8189  1.0224 -1.1406
  174SAPI   C2619739   5.697   3.782   9.959 -0.4062 -0.2411  0.1605
  174SAPI   H6R19740   5.777   3.839   9.910 -1.5575  0.2432 -1.2150
  174SAPI   C2719741   5.609   3.695   9.874 -0.0882  0.9947  0.1749
  174SAPI   H7R19742   5.560   3.758   9.796 -3.4887 -0.3424  1.1561
  174SAPI   H7S19743   5.519   3.665   9.932  0.4966 -0.6439  0.2440
  174SAPI   C2819744   5.678   3.585   9.793  0.5277 -1.2993  0.6610
  174SAPI   H8R19745   5.721   3.506   9.856  0.3419 -1.8921  0.0535
  174SAPI   C2919746   5.700   3.577   9.660  0.0985 -0.1384  0.3545
  174SAPI   H9R19747   5.724   3.475   9.624 -0.2898 -0.8368  2.0066
  174SAPI  C21019748   5.663   3.684   9.559  0.6162  0.1530  0.0917
  174SAPI  H10R19749   5.613   3.773   9.601  0.5547 -0.9126  2.3280
  174SAPI  H10S19750   5.601   3.647   9.474  1.3207  2.2520 -1.3703
  174SAPI  C21119751   5.797   3.734   9.501  0.3553 -0.0905 -0.2449
  174SAPI  H11R19752   5.860   3.782   9.577  0.1612  0.1945 -0.2613
  174SAPI  C21219753   5.854   3.719   9.381 -0.7274  0.3302 -0.7403
  174SAPI  H12R19754   5.948   3.774   9.361  1.1934 -1.4657  2.8125
  174SAPI  C21319755   5.802   3.650   9.259  0.4270 -0.1520  0.3179
  174SAPI  H13R19756   5.801   3.718   9.171  1.8457 -0.2280  0.2247
  174SAPI  H13S19757   5.693   3.634   9.273  0.4016 -0.3394 -0.0904
  174SAPI  C21419758   5.883   3.528   9.222 -1.1186  0.3085  0.5582
  174SAPI  H14R19759   5.988   3.534   9.252 -1.1019  1.2712  0.3207
  174SAPI  C21519760   5.836   3.427   9.151  0.3085 -0.5664  0.7028
  174SAPI  H15R19761   5.906   3.346   9.126  0.3056 -0.4428  0.3026
  174SAPI  C21619762   5.697   3.392   9.096  0.1438  0.1909  0.1145
  174SAPI  H16R19763   5.640   3.483   9.069  1.2569  1.8712  3.2349
  174SAPI  H16S19764   5.638   3.364   9.185  0.2145 -0.0257  0.0957
  174SAPI  C21719765   5.700   3.287   8.990  0.3672  0.6067  0.8812
  174SAPI  H17R19766   5.597   3.265   8.954  1.0956  0.5471 -1.2233
  174SAPI  H17S19767   5.754   3.197   9.028 -1.8951 -0.1232  2.4933
  174SAPI  C21819768   5.767   3.329   8.857  0.1426  0.0987 -0.5119
  174SAPI  H18R19769   5.875   3.349   8.867  0.7811 -2.3933 -2.0083
  174SAPI  H18S19770   5.720   3.427   8.831 -1.6393 -0.5378  0.1861
  174SAPI  C21919771   5.733   3.240   8.738 -0.0353  0.3588  0.8756
  174SAPI  H19R19772   5.753   3.296   8.645  0.5861  0.7348  1.2289
  174SAPI  H19S19773   5.622   3.235   8.734  0.0459  0.1127 -2.4536
  174SAPI  C22019774   5.807   3.110   8.733  0.1453  0.2520 -0.0152
  174SAPI  H20R19775   5.773   3.051   8.645  3.1083  1.3726 -1.9929
  174SAPI  H20S19776   5.795   3.053   8.827 -0.3818  2.2529  1.1618
  174SAPI  H20T19777   5.915   3.136   8.720  0.1244 -0.7406 -2.5581
  174SAPI   C3319778   5.590   4.275  10.042  0.4049 -0.0056 -0.3283
  174SAPI   H3X19779   5.594   4.169  10.072  1.9880  0.0020 -0.4579
  174SAPI   H3Y19780   5.697   4.304  10.040  0.9016 -1.6619  1.2233
  174SAPI   C3419781   5.529   4.285   9.903 -0.5028 -0.2562 -0.1918
  174SAPI   H4X19782   5.525   4.390   9.866 -1.7079 -0.8857 -1.9669
  174SAPI   H4Y19783   5.427   4.241   9.900  0.4991 -2.6725  0.3244
  174SAPI   C3519784   5.612   4.208   9.801 -0.0034  0.3986  0.0600
  174SAPI   H5X19785   5.592   4.101   9.820 -0.1271  0.4632  0.2921
  174SAPI   H5Y19786   5.720   4.231   9.802  0.7300 -2.7678 -0.7076
  174SAPI   C3619787   5.581   4.248   9.663  0.7083 -0.2840 -0.1964
  174SAPI   H6X19788   5.646   4.330   9.628 -1.7575  1.5748 -0.5823
  174SAPI   H6Y19789   5.478   4.288   9.649 -0.1316 -2.0802  0.6793
  174SAPI   C3719790   5.578   4.115   9.582  0.4110 -0.3483 -0.2172
  174SAPI   H7X19791   5.509   4.037   9.622 -1.3989  0.3917 -1.7889
  174SAPI   H7Y19792   5.675   4.061   9.576 -1.0445 -3.3164  2.0328
  174SAPI   C3819793   5.528   4.148   9.438 -0.6460 -0.1177  0.1144
  174SAPI   H8X19794   5.573   4.243   9.401 -0.0286  0.6284  2.6872
  174SAPI   H8Y19795   5.417   4.163   9.436 -0.5860  0.2854 -0.3951
  174SAPI   C3919796   5.576   4.046   9.331  0.3086 -0.1153 -0.2106
  174SAPI   H9X19797   5.528   3.949   9.358  0.6839 -0.2099  0.1061
  174SAPI   H9Y19798   5.686   4.030   9.335  0.2688 -0.1262  0.7255
  174SAPI  C31019799   5.545   4.077   9.184  0.0946  0.4188 -0.4102
  174SAPI  H10X19800   5.596   4.175   9.167  0.2560  0.4571  0.2591
  174SAPI  H10Y19801   5.435   4.084   9.170 -0.3105 -1.1107  1.6858
  174SAPI  C31119802   5.595   3.961   9.089  0.2447  0.8025  0.6144
  174SAPI  H11X19803   5.547   3.865   9.116 -2.0131  1.6405 -0.3207
  174SAPI  H11Y19804   5.705   3.950   9.106  0.3768  1.1160 -0.0369
  174SAPI  C31219805   5.591   3.987   8.933 -0.8277 -0.4584 -0.4150
  174SAPI  H12X19806   5.652   4.076   8.907 -0.8483  0.3047  1.9903
  174SAPI  H12Y19807   5.485   4.011   8.908 -0.2598  1.2208 -1.2479
  174SAPI  C31319808   5.629   3.865   8.842 -0.2145 -0.1721  0.3191
  174SAPI  H13X19809   5.563   3.776   8.850  0.7753 -1.2592 -2.8323
  174SAPI  H13Y19810   5.727   3.829   8.882 -0.4225 -1.1221 -0.0161
  174SAPI  C31419811   5.652   3.904   8.696  0.3960  0.0878 -0.6066
  174SAPI  H14X19812   5.744   3.966   8.696  0.5784 -0.1840  0.0081
  174SAPI  H14Y19813   5.562   3.961   8.662 -1.0949 -1.4335  0.6793
  174SAPI  C31519814   5.679   3.788   8.597 -0.8968  0.3574 -0.0190
  174SAPI  H15X19815   5.613   3.700   8.612  1.2441 -1.4747 -1.0812
  174SAPI  H15Y19816   5.786   3.762   8.610 -1.3961 -1.4259  0.5865
  174SAPI  C31619817   5.683   3.842   8.448 -0.0862 -0.1513 -0.7298
  174SAPI  H16X19818   5.746   3.933   8.440  2.7985 -2.0985 -0.7955
  174SAPI  H16Y19819   5.582   3.878   8.421  0.6643  1.5155 -1.3884
  174SAPI  C31719820   5.740   3.747   8.344 -0.2332 -0.5334  0.3773
  174SAPI  H17X19821   5.850   3.732   8.352 -0.1714 -0.1814  0.2087
  174SAPI  H17Y19822   5.715   3.790   8.244  0.8894 -1.0892 -0.1489
  174SAPI  C31819823   5.663   3.619   8.332  0.4833 -0.2083  0.6811
  174SAPI  H18X19824   5.711   3.541   8.269  1.5869  0.5164  0.6228
  174SAPI  H18Y19825   5.556   3.642   8.311  0.7957 -0.5410 -1.4054
  174SAPI  H18Z19826   5.660   3.583   8.437 -0.1608  1.9974  1.4334
  175SAPI   C1219827   2.043   2.426   5.960 -0.4100  0.0514 -0.0833
  175SAPI    H219828   1.987   2.335   5.989 -0.2277 -0.1342 -0.3107
  175SAPI    O219829   2.179   2.392   5.927 -0.0426  0.2075  0.0414
  175SAPI   HO219830   2.220   2.400   6.014 -1.3781  0.3119  0.6746
  175SAPI   C1319831   1.971   2.491   5.835 -0.1767  0.3659 -0.1313
  175SAPI    H319832   1.867   2.518   5.863  0.1251 -0.9406  2.4256
  175SAPI    O319833   1.967   2.397   5.730  0.3255  0.2955 -0.3391
  175SAPI   HO319834   2.043   2.409   5.672  0.5267 -0.0551 -0.1452
  175SAPI   C1419835   2.027   2.631   5.803  0.1254 -0.1600 -0.4419
  175SAPI    H419836   2.136   2.608   5.797  0.2692  0.0421  1.3947
  175SAPI    O419837   1.974   2.688   5.678 -0.6942 -0.3990 -0.1398
  175SAPI   HO419838   2.032   2.688   5.602 -0.1024  0.4195  0.3148
  175SAPI   C1519839   2.005   2.722   5.926 -1.1996  0.0252 -0.1383
  175SAPI    H519840   1.895   2.714   5.940 -1.0019  2.6218  3.3342
  175SAPI    O519841   2.036   2.854   5.897  0.5111  0.0805  0.6625
  175SAPI   HO519842   1.986   2.905   5.961  0.7009  2.1886 -0.7947
  175SAPI   C1619843   2.083   2.656   6.045  0.0688  0.7873  0.8801
  175SAPI    H619844   2.191   2.638   6.026 -0.3802 -1.8954  0.5776
  175SAPI    O619845   2.063   2.742   6.155 -0.2050  0.2014  0.0513
  175SAPI   HO619846   2.151   2.757   6.190  0.3364  0.2677 -1.2982
  175SAPI   C1119847   2.028   2.517   6.077 -0.0544  0.4098 -0.1133
  175SAPI    H119848   1.918   2.526   6.092 -0.2106 -0.3547 -0.7402
  175SAPI     P19849   2.024   2.439   6.332  0.3536  0.0625  0.5102
  175SAPI   O1319850   2.101   2.339   6.401 -0.1090  0.6186  0.0343
  175SAPI   O1419851   1.878   2.426   6.319 -0.8311  0.5195 -0.5019
  175SAPI   O1219852   2.101   2.469   6.187 -0.1732 -0.3516  0.0917
  175SAPI   O1119853   2.045   2.576   6.406  0.2844  0.4440 -0.1148
  175SAPI    C119854   2.159   2.597   6.485 -0.3606 -1.3541 -0.9753
  175SAPI    HA19855   2.254   2.560   6.440  1.0311  1.4958 -0.4755
  175SAPI    HB19856   2.172   2.707   6.495  0.2275 -1.2874 -2.3355
  175SAPI    C219857   2.150   2.551   6.632 -0.0939  0.2392  0.3230
  175SAPI    HS19858   2.136   2.441   6.622 -2.6096  0.7391 -2.5285
  175SAPI   O2119859   2.037   2.608   6.695 -0.2475 -0.6303  0.0770
  175SAPI   C2119860   1.936   2.536   6.728 -0.4404 -0.7945  0.4696
  175SAPI   O2219861   1.917   2.422   6.692  0.3804  0.6050  0.0664
  175SAPI   C2219862   1.848   2.609   6.836 -0.0560 -0.0417  0.4374
  175SAPI   H2R19863   1.852   2.718   6.816 -2.4128  0.5646  2.9045
  175SAPI   H2S19864   1.750   2.567   6.803  1.0464 -1.3404 -1.2923
  175SAPI    C319865   2.285   2.580   6.699 -0.3010  0.4054 -0.2326
  175SAPI    HX19866   2.306   2.688   6.688 -0.5123  0.6319  1.4354
  175SAPI    HY19867   2.355   2.524   6.633 -1.8375 -0.2695 -1.3368
  175SAPI   O3119868   2.293   2.525   6.835  0.1358 -0.1061  0.6182
  175SAPI   C3119869   2.267   2.625   6.925 -0.2125  0.8075 -0.7767
  175SAPI   O3219870   2.251   2.741   6.898 -0.0067  0.4591  0.3143
  175SAPI   C3219871   2.267   2.570   7.068  0.2391 -0.0564 -0.0220
  175SAPI   H2X19872   2.318   2.471   7.061 -0.6649 -0.3984 -2.0544
  175SAPI   H2Y19873   2.163   2.548   7.101 -0.0799  1.9405  0.3240
  175SAPI   C2319874   1.912   2.580   6.977  0.0650  0.6423 -0.4394
  175SAPI   H3R19875   2.011   2.629   6.968 -0.2056  1.1394 -0.7099
  175SAPI   H3S19876   1.944   2.474   6.991  1.1182  1.2294  1.8170
  175SAPI   C2419877   1.817   2.629   7.079 -0.4450 -1.3115 -0.2991
  175SAPI   H4R19878   1.729   2.564   7.097 -1.3409  0.0515  0.4116
  175SAPI   H4S19879   1.783   2.731   7.051  2.3904  0.0677  1.0928
  175SAPI   C2519880   1.910   2.632   7.203 -0.4594 -0.2868  0.4607
  175SAPI   H5R19881   2.016   2.656   7.184 -0.0083 -0.6543  2.4202
  175SAPI   C2619882   1.879   2.607   7.332  0.1689  0.6005 -0.3635
  175SAPI   H6R19883   1.960   2.616   7.405 -0.8100  0.5183  0.7310
  175SAPI   C2719884   1.741   2.572   7.382 -0.6465  0.0798  0.4368
  175SAPI   H7R19885   1.668   2.536   7.306 -1.2808  1.5217  0.3427
  175SAPI   H7S19886   1.701   2.665   7.426 -2.7418 -0.2570 -0.6986
  175SAPI   C2819887   1.750   2.463   7.482  0.0477  0.3293  0.2095
  175SAPI   H8R19888   1.727   2.363   7.443 -2.4796  1.0835 -0.3154
  175SAPI   C2919889   1.789   2.476   7.613 -0.2966 -0.0408 -0.1667
  175SAPI   H9R19890   1.809   2.384   7.671 -0.6569  0.4129  0.6773
  175SAPI  C21019891   1.832   2.605   7.677 -0.4790 -0.1403 -1.0920
  175SAPI  H10R19892   1.857   2.675   7.595  2.6321 -1.8165 -1.6442
  175SAPI  H10S19893   1.927   2.597   7.735 -0.7960  0.7178 -0.4380
  175SAPI  C21119894   1.720   2.654   7.773  0.1843  0.0269  0.1477
  175SAPI  H11R19895   1.648   2.713   7.715  2.1544 -0.7693 -3.2493
  175SAPI  C21219896   1.709   2.635   7.907  0.0415 -0.6338  0.2743
  175SAPI  H12R19897   1.629   2.686   7.962 -1.7701 -3.2689  0.2326
  175SAPI  C21319898   1.803   2.556   8.002  0.0049 -0.4458 -1.0181
  175SAPI  H13R19899   1.861   2.629   8.063 -2.0383  0.3134  0.0932
  175SAPI  H13S19900   1.872   2.496   7.940  0.8275  1.0279 -1.5428
  175SAPI  C21419901   1.735   2.464   8.103  0.1206 -0.3766  0.1905
  175SAPI  H14R19902   1.768   2.360   8.093  1.6393  0.1426 -0.2347
  175SAPI  C21519903   1.663   2.498   8.215 -0.3338  0.8571  0.4574
  175SAPI  H15R19904   1.608   2.417   8.266 -0.3956  1.3415  1.1759
  175SAPI  C21619905   1.633   2.629   8.275 -0.5446 -0.2223 -0.1492
  175SAPI  H16R19906   1.522   2.629   8.276 -0.6054 -4.9461  2.1509
  175SAPI  H16S19907   1.651   2.711   8.201 -0.4902  0.8974  1.0755
  175SAPI  C21719908   1.686   2.664   8.413  0.0782 -0.1238 -0.1876
  175SAPI  H17R19909   1.790   2.697   8.397  0.1970  0.1495  1.0452
  175SAPI  H17S19910   1.675   2.581   8.487 -1.3833  0.2998  0.1038
  175SAPI  C21819911   1.604   2.783   8.477  0.4987 -0.4261  0.1139
  175SAPI  H18R19912   1.623   2.861   8.400  0.4203  1.6159  2.1289
  175SAPI  H18S19913   1.649   2.834   8.564  1.9394 -0.6181 -0.5038
  175SAPI  C21919914   1.449   2.763   8.498  0.1566  0.0511  0.0348
  175SAPI  H19R19915   1.399   2.718   8.410  1.5690 -1.7373  0.1160
  175SAPI  H19S19916   1.407   2.866   8.503  0.7556  0.3014 -0.0387
  175SAPI  C22019917   1.404   2.687   8.626 -0.1406 -0.5734  0.2188
  175SAPI  H20R19918   1.294   2.678   8.631 -0.1963 -1.3292 -1.8117
  175SAPI  H20S19919   1.446   2.729   8.720  2.0273 -1.9718 -0.0705
  175SAPI  H20T19920   1.438   2.582   8.611  0.5668 -0.2603 -0.4241
  175SAPI   C3319921   2.345   2.659   7.178  0.0619  0.5770  0.0427
  175SAPI   H3X19922   2.294   2.756   7.194  1.3042  1.2601 -0.0821
  175SAPI   H3Y19923   2.446   2.669   7.132  0.7285 -1.9322  0.8726
  175SAPI   C3419924   2.363   2.590   7.312  0.0168 -0.3792 -0.1197
  175SAPI   H4X19925   2.387   2.675   7.379  0.3947 -2.4354  2.4393
  175SAPI   H4Y19926   2.440   2.510   7.313  0.4697  0.0478  1.9078
  175SAPI   C3519927   2.236   2.529   7.360 -0.3389 -0.3893  0.7526
  175SAPI   H5X19928   2.224   2.438   7.297  1.2826 -0.0262 -0.1158
  175SAPI   H5Y19929   2.155   2.604   7.353  0.2047  0.3027  1.6901
  175SAPI   C3619930   2.254   2.475   7.507 -0.0110  0.4617 -0.4723
  175SAPI   H6X19931   2.358   2.446   7.531 -0.8371 -1.6272  0.7452
  175SAPI   H6Y19932   2.194   2.381   7.512  0.8694  0.0039  2.1569
  175SAPI   C3719933   2.206   2.578   7.603  0.1111  0.0496 -0.5899
  175SAPI   H7X19934   2.097   2.589   7.583  0.2774  0.4720 -1.2525
  175SAPI   H7Y19935   2.251   2.677   7.581  0.6708 -0.4089 -1.5003
  175SAPI   C3819936   2.230   2.555   7.756 -0.1865 -0.0426 -0.6118
  175SAPI   H8X19937   2.199   2.651   7.803  0.0590  0.0584 -0.6579
  175SAPI   H8Y19938   2.338   2.540   7.774 -0.4654  0.5039  1.6673
  175SAPI   C3919939   2.156   2.436   7.819 -0.3855 -0.4471  0.2412
  175SAPI   H9X19940   2.218   2.349   7.787 -1.3071 -0.2721 -2.0747
  175SAPI   H9Y19941   2.053   2.419   7.782 -0.3887 -2.6566  1.1747
  175SAPI  C31019942   2.161   2.444   7.972  0.2685  0.4428 -0.9982
  175SAPI  H10X19943   2.094   2.526   8.005 -1.5110 -1.0289 -0.8677
  175SAPI  H10Y19944   2.263   2.481   7.997 -0.0830 -0.2088  1.4868
  175SAPI  C31119945   2.132   2.308   8.041  0.1548  0.4855  0.0519
  175SAPI  H11X19946   2.229   2.254   8.031  0.2945  1.3585 -4.1514
  175SAPI  H11Y19947   2.056   2.244   7.991  0.9199 -0.3744 -0.0345
  175SAPI  C31219948   2.097   2.333   8.182  0.1005  0.1398  0.0413
  175SAPI  H12X19949   2.005   2.395   8.178 -0.3152 -0.5585 -1.9004
  175SAPI  H12Y19950   2.171   2.400   8.230 -0.6510 -0.7056  2.4203
  175SAPI  C31319951   2.086   2.207   8.259 -0.6065 -0.0239 -0.6659
  175SAPI  H13X19952   2.187   2.160   8.266 -0.4696  0.1808 -1.3119
  175SAPI  H13Y19953   2.011   2.130   8.231 -0.0040 -1.5951  1.8002
  175SAPI  C31419954   2.044   2.229   8.404  0.0903  0.1429 -0.2525
  175SAPI  H14X19955   1.955   2.296   8.408  0.4790  0.7835 -2.0129
  175SAPI  H14Y19956   2.127   2.284   8.453 -0.3251  0.5410  0.0131
  175SAPI  C31519957   2.031   2.101   8.484 -0.0127  0.3848 -0.8424
  175SAPI  H15X19958   2.121   2.047   8.448  0.0102  0.6038 -1.1124
  175SAPI  H15Y19959   1.933   2.048   8.480  0.0867  0.0811  0.5249
  175SAPI  C31619960   2.040   2.120   8.636  0.1404  0.4185  0.2033
  175SAPI  H16X19961   2.116   2.201   8.640 -0.8972  1.3477  1.7417
  175SAPI  H16Y19962   2.066   2.025   8.688  1.7575  0.0807 -1.1716
  175SAPI  C31719963   1.907   2.172   8.694  0.0755  0.6616 -0.1649
  175SAPI  H17X19964   1.853   2.248   8.633  1.5792  2.1628  0.3204
  175SAPI  H17Y19965   1.939   2.237   8.778  0.2835  2.8525 -1.8894
  175SAPI  C31819966   1.814   2.062   8.739 -0.7225  0.5993 -0.4539
  175SAPI  H18X19967   1.716   2.098   8.777  0.3029 -0.8282  3.7674
  175SAPI  H18Y19968   1.849   2.004   8.827 -3.0903 -0.8614 -0.4352
  175SAPI  H18Z19969   1.807   1.987   8.657  1.2825 -1.3692  1.1159
  176SAPI   C1219970   1.290   0.843   6.218 -0.6611  0.8252 -0.3657
  176SAPI    H219971   1.329   0.808   6.315 -0.1397 -1.6481 -1.4289
  176SAPI    O219972   1.389   0.941   6.170 -0.5399  0.2336  0.0130
  176SAPI   HO219973   1.464   0.953   6.227 -0.9893 -1.0339  0.8987
  176SAPI   C1319974   1.287   0.719   6.117 -0.0867 -0.3903 -0.2396
  176SAPI    H319975   1.209   0.653   6.158 -0.4425  1.1399  1.6513
  176SAPI    O319976   1.406   0.646   6.112  0.2435  0.0284 -0.2748
  176SAPI   HO319977   1.409   0.594   6.192 -3.1196 -0.3597 -0.3485
  176SAPI   C1419978   1.246   0.760   5.975  0.8524 -1.2268  0.1902
  176SAPI    H419979   1.325   0.830   5.943 -0.6940 -0.1166 -1.2694
  176SAPI    O419980   1.244   0.648   5.886 -0.7258  0.2066  0.3621
  176SAPI   HO419981   1.211   0.669   5.798  0.4857  0.6358  0.0038
  176SAPI   C1519982   1.112   0.832   5.978 -0.0266  0.2338  0.0630
  176SAPI    H519983   1.042   0.758   6.023  1.4859 -0.6335  1.0345
  176SAPI    O519984   1.064   0.856   5.846  0.2786 -0.4440  0.1925
  176SAPI   HO519985   1.120   0.910   5.790  0.7802 -0.9099  0.2288
  176SAPI   C1619986   1.110   0.952   6.077 -0.0161  0.0603  0.0741
  176SAPI    H619987   1.185   1.022   6.035  0.9080 -1.5484 -1.0424
  176SAPI    O619988   0.983   1.014   6.083 -0.4781  0.1301  0.1464
  176SAPI   HO619989   0.995   1.078   6.154  4.2116 -2.3611  1.8270
  176SAPI   C1119990   1.149   0.905   6.213  0.3944 -0.2605 -0.8114
  176SAPI    H119991   1.075   0.825   6.235 -1.5021  1.4113 -0.8857
  176SAPI     P19992   1.071   0.987   6.461  0.4091 -0.0498  0.4347
  176SAPI   O1319993   0.948   0.911   6.437 -0.6739 -0.3280 -0.4212
  176SAPI   O1419994   1.051   1.116   6.533 -0.1288 -0.2477 -0.3673
  176SAPI   O1219995   1.146   1.014   6.311 -0.1951 -0.7670  0.7113
  176SAPI   O1119996   1.173   0.893   6.548  0.0869  0.2349  0.0608
  176SAPI    C119997   1.166   0.748   6.560  0.1652 -0.4756  0.1677
  176SAPI    HA19998   1.064   0.712   6.537  0.9330 -1.5839 -1.6142
  176SAPI    HB19999   1.230   0.697   6.486 -0.9617 -1.4456 -0.1379
  176SAPI    C220000   1.207   0.696   6.705  0.6521 -0.8771 -0.1554
  176SAPI    HS20001   1.214   0.586   6.690  1.1720 -0.9385  0.4945
  176SAPI   O2120002   1.118   0.742   6.810  0.2984  0.8399 -0.1493
  176SAPI   C2120003   0.993   0.711   6.803 -0.4216  0.5874 -0.5081
  176SAPI   O2220004   0.939   0.634   6.725  0.0945  0.0626 -0.0786
  176SAPI   C2220005   0.918   0.784   6.915 -0.1177  0.3782 -0.2338
  176SAPI   H2R20006   0.975   0.878   6.925  1.1234 -0.1998 -1.7531
  176SAPI   H2S20007   0.816   0.807   6.877 -0.2285 -1.9574 -1.4769
  176SAPI    C320008   1.347   0.756   6.752  0.4229  0.3828  0.2581
  176SAPI    HX20009   1.338   0.845   6.818 -1.9458  0.1470  0.2989
  176SAPI    HY20010   1.398   0.797   6.663  1.1078 -0.1033  0.4271
  176SAPI   O3120011   1.425   0.649   6.807  0.2494  0.0797  0.3155
  176SAPI   C3120012   1.538   0.694   6.856  0.4228  0.1367 -0.5931
  176SAPI   O3220013   1.577   0.813   6.846 -0.5634 -0.5923 -0.3329
  176SAPI   C3220014   1.609   0.588   6.941  0.6977 -0.1965 -0.3837
  176SAPI   H2X20015   1.699   0.570   6.879  0.8074  0.1188 -0.3136
  176SAPI   H2Y20016   1.557   0.489   6.947 -0.5499  0.5329  1.4369
  176SAPI   C2320017   0.889   0.691   7.035  0.0730  0.3989 -0.1773
  176SAPI   H3R20018   0.980   0.666   7.093 -0.3706 -1.1572 -0.1225
  176SAPI   H3S20019   0.856   0.593   6.995  3.4704 -0.4823 -0.9949
  176SAPI   C2420020   0.786   0.746   7.129  0.0611  0.1551  0.0210
  176SAPI   H4R20021   0.774   0.674   7.213 -0.2713 -1.6130 -1.5099
  176SAPI   H4S20022   0.686   0.753   7.081  0.5722  0.1865 -1.0388
  176SAPI   C2520023   0.821   0.873   7.194  0.8672  0.1736 -0.1242
  176SAPI   H5R20024   0.803   0.959   7.127  0.3017  0.2484  0.1272
  176SAPI   C2620025   0.883   0.892   7.317  0.6211  0.1828  0.8209
  176SAPI   H6R20026   0.897   0.987   7.370 -1.4308  1.0383 -0.1215
  176SAPI   C2720027   0.925   0.780   7.411 -0.7346 -0.0771 -0.2225
  176SAPI   H7R20028   0.923   0.673   7.383 -0.5727  0.2914 -1.6463
  176SAPI   H7S20029   0.866   0.791   7.505  0.2856  2.8964  0.1395
  176SAPI   C2820030   1.071   0.797   7.440 -0.5404  0.2487  0.1269
  176SAPI   H8R20031   1.136   0.791   7.351  0.6129 -0.4186  0.9926
  176SAPI   C2920032   1.122   0.794   7.566  0.5339  0.5826 -0.1458
  176SAPI   H9R20033   1.229   0.818   7.572  1.4035 -2.5765 -1.6218
  176SAPI  C21020034   1.050   0.791   7.695 -0.2001  0.3463  1.2075
  176SAPI  H10R20035   0.969   0.715   7.703 -1.3370  1.5648  1.5359
  176SAPI  H10S20036   1.007   0.884   7.739 -2.3533  0.6701 -1.4837
  176SAPI  C21120037   1.145   0.732   7.803  0.2701  0.0487 -0.4114
  176SAPI  H11R20038   1.253   0.723   7.782  0.4321 -2.2250  1.2253
  176SAPI  C21220039   1.111   0.694   7.927  1.3394 -0.9041 -0.3279
  176SAPI  H12R20040   1.182   0.644   7.994  0.5339  1.1451  2.1228
  176SAPI  C21320041   0.975   0.707   7.995 -0.2727 -0.1949 -0.2596
  176SAPI  H13R20042   0.985   0.639   8.082  0.8068 -0.8358 -0.8670
  176SAPI  H13S20043   0.903   0.660   7.925 -0.9851  1.2562 -0.5191
  176SAPI  C21420044   0.922   0.844   8.025  0.7084 -0.3959  0.4144
  176SAPI  H14R20045   0.871   0.893   7.941  1.5634  1.8381  1.1380
  176SAPI  C21520046   0.933   0.913   8.139  0.1556  0.3514 -1.3433
  176SAPI  H15R20047   0.863   0.998   8.147  0.9824  1.0996 -1.9978
  176SAPI  C21620048   0.990   0.868   8.265 -0.3859  0.1866  0.4267
  176SAPI  H16R20049   1.027   0.962   8.312 -2.1130  2.0224 -1.7516
  176SAPI  H16S20050   1.073   0.796   8.249 -0.8837  0.1344 -2.1181
  176SAPI  C21720051   0.882   0.799   8.353  0.4122 -0.5365 -0.0664
  176SAPI  H17R20052   0.844   0.716   8.290  0.0847 -0.0462 -0.5236
  176SAPI  H17S20053   0.794   0.864   8.371  2.2387  1.5583  1.5062
  176SAPI  C21820054   0.933   0.739   8.484  0.2994 -0.1224  0.4800
  176SAPI  H18R20055   0.925   0.810   8.569 -1.0073  1.6205 -1.0550
  176SAPI  H18S20056   1.043   0.741   8.472  0.2917 -0.9910  0.2583
  176SAPI  C21920057   0.895   0.595   8.530  0.2767 -0.5409  0.0830
  176SAPI  H19R20058   0.786   0.591   8.549  0.3958 -2.5157  0.4090
  176SAPI  H19S20059   0.936   0.575   8.632 -0.6152  0.7204  0.7055
  176SAPI  C22020060   0.950   0.482   8.439 -1.1233  0.1342 -0.1121
  176SAPI  H20R20061   0.917   0.379   8.466 -0.3887  0.3197  1.4979
  176SAPI  H20S20062   1.061   0.484   8.430 -0.9520 -0.8374  1.5940
  176SAPI  H20T20063   0.907   0.497   8.337  0.3870 -1.2513 -0.9854
  176SAPI   C3320064   1.661   0.621   7.084  0.4307  0.1340 -0.0549
  176SAPI   H3X20065   1.714   0.719   7.094  0.9620 -0.3644  2.4694
  176SAPI   H3Y20066   1.741   0.551   7.114  1.7635  1.1967 -1.0722
  176SAPI   C3420067   1.553   0.617   7.187 -0.0682 -0.3980  1.2142
  176SAPI   H4X20068   1.503   0.518   7.193  2.3025 -1.8258 -1.7099
  176SAPI   H4Y20069   1.476   0.689   7.150  1.3698 -1.4045 -4.1250
  176SAPI   C3520070   1.615   0.662   7.321  0.3742 -0.0652 -0.7201
  176SAPI   H5X20071   1.635   0.771   7.323  0.7955 -0.1623  1.6824
  176SAPI   H5Y20072   1.709   0.603   7.330  0.5075  0.2362 -0.0931
  176SAPI   C3620073   1.536   0.631   7.452 -0.0165 -0.6781 -0.2182
  176SAPI   H6X20074   1.537   0.522   7.471  1.1889 -0.1843  2.8903
  176SAPI   H6Y20075   1.431   0.666   7.449 -0.0724 -0.8111  0.1587
  176SAPI   C3720076   1.602   0.695   7.580  0.0425 -0.0913  0.4132
  176SAPI   H7X20077   1.634   0.789   7.532  0.7373 -0.7471 -0.4216
  176SAPI   H7Y20078   1.699   0.643   7.599  0.0948 -0.5670 -1.0896
  176SAPI   C3820079   1.505   0.722   7.692 -0.2872 -0.3624  0.4306
  176SAPI   H8X20080   1.467   0.624   7.730 -2.7905 -0.1643 -1.4295
  176SAPI   H8Y20081   1.425   0.790   7.656 -0.9344 -0.2362  2.0526
  176SAPI   C3920082   1.568   0.802   7.813  0.2392  0.3431  0.5874
  176SAPI   H9X20083   1.586   0.903   7.771  0.7854 -0.6311 -1.6023
  176SAPI   H9Y20084   1.661   0.751   7.846 -0.1323 -0.8968 -0.2297
  176SAPI  C31020085   1.469   0.821   7.927 -0.3707  0.2967  0.5194
  176SAPI  H10X20086   1.431   0.724   7.967 -1.6284  1.3012  1.7940
  176SAPI  H10Y20087   1.373   0.861   7.887  1.2439  4.5768  0.7388
  176SAPI  C31120088   1.519   0.910   8.043 -0.3802  0.0065 -1.0852
  176SAPI  H11X20089   1.558   1.005   8.000 -0.6596  0.6447  0.0567
  176SAPI  H11Y20090   1.611   0.871   8.092  0.6606 -0.3567 -3.2487
  176SAPI  C31220091   1.404   0.922   8.143 -0.3167 -0.4721 -0.0943
  176SAPI  H12X20092   1.364   0.822   8.169  1.2466 -0.4277  2.6429
  176SAPI  H12Y20093   1.320   0.973   8.091  0.0337 -0.1673 -0.3680
  176SAPI  C31320094   1.439   1.015   8.269  0.2028 -0.2930  0.2246
  176SAPI  H13X20095   1.472   1.114   8.233  1.0136 -0.9454 -0.8456
  176SAPI  H13Y20096   1.525   0.967   8.320  0.6226 -0.1703 -0.3677
  176SAPI  C31420097   1.316   1.007   8.354 -0.9386 -0.5218 -0.2819
  176SAPI  H14X20098   1.293   0.898   8.366  2.2012 -1.1948  0.1427
  176SAPI  H14Y20099   1.232   1.066   8.312 -0.5842  0.6492  0.6416
  176SAPI  C31520100   1.346   1.056   8.496  0.2189  0.0985 -0.4707
  176SAPI  H15X20101   1.375   1.162   8.481  0.2429  0.2361  0.4870
  176SAPI  H15Y20102   1.438   1.003   8.528  1.0877  0.1521 -2.7839
  176SAPI  C31620103   1.222   1.038   8.588 -0.8748  0.4262 -0.0846
  176SAPI  H16X20104   1.266   1.056   8.688 -2.0399 -0.2264  0.5569
  176SAPI  H16Y20105   1.182   0.935   8.581  1.7018 -0.4880 -1.9893
  176SAPI  C31720106   1.099   1.133   8.566  0.2593 -0.2183 -0.0585
  176SAPI  H17X20107   1.024   1.097   8.640  1.0794 -0.7266  0.5406
  176SAPI  H17Y20108   1.059   1.113   8.464  1.0415 -2.2280  0.0116
  176SAPI  C31820109   1.147   1.277   8.593 -0.3980 -0.1180  0.0313
  176SAPI  H18X20110   1.224   1.306   8.518  2.6969  0.5087  3.3152
  176SAPI  H18Y20111   1.186   1.287   8.696 -1.7641 -1.6921  0.7191
  176SAPI  H18Z20112   1.065   1.350   8.580  2.2542  3.4272  2.4614
  177SLPC     N20113   0.856   4.323  11.170 -0.4079 -0.8186 -0.0437
  177SLPC   C1320114   0.845   4.414  11.286  0.3064 -0.1449 -0.7364
  177SLPC  H13A20115   0.801   4.370  11.374  0.4799  3.3450  1.2054
  177SLPC  H13B20116   0.937   4.456  11.322 -0.5800  3.2411 -2.1376
  177SLPC  H13C20117   0.778   4.497  11.269  1.4257  0.5286 -1.9649
  177SLPC   C1420118   0.952   4.218  11.221  0.4146  0.6640  0.1729
  177SLPC  H14A20119   1.051   4.254  11.244 -0.0593  1.0190  1.7622
  177SLPC  H14B20120   0.898   4.167  11.300 -0.6104 -0.7073 -1.3852
  177SLPC  H14C20121   0.975   4.141  11.150  0.1141  1.1980 -0.5126
  177SLPC   C1520122   0.917   4.401  11.058  0.3048  0.5060  0.1707
  177SLPC  H15A20123   1.005   4.447  11.103  1.4629 -1.3605 -0.1319
  177SLPC  H15B20124   0.943   4.339  10.974 -0.4898 -0.5038  0.6724
  177SLPC  H15C20125   0.848   4.472  11.014 -0.4015  0.9688  1.9870
  177SLPC   C1220126   0.716   4.270  11.133 -0.2893 -0.2146  0.3177
  177SLPC  H12A20127   0.692   4.194  11.206  0.5333 -0.4153  0.3830
  177SLPC  H12B20128   0.724   4.229  11.034  2.0884 -0.3441  0.5322
  177SLPC   C1120129   0.595   4.358  11.139  0.5761  0.3217  0.1913
  177SLPC  H11A20130   0.580   4.428  11.223 -2.1949 -0.3264  0.2793
  177SLPC  H11B20131   0.503   4.296  11.129  0.2423  0.7776  0.4265
  177SLPC     P20132   0.498   4.553  10.974  0.0893 -0.3225  0.2383
  177SLPC   O1320133   0.356   4.515  10.989  0.1579 -0.7115 -0.0994
  177SLPC   O1420134   0.528   4.681  11.043 -0.2564  0.6960 -0.2782
  177SLPC   O1220135   0.597   4.436  11.017  0.6104  0.0684  0.5434
  177SLPC   O1120136   0.535   4.574  10.823 -0.0521 -0.1682  0.3181
  177SLPC    C120137   0.655   4.542  10.772  0.6169  0.6618 -0.0805
  177SLPC    HA20138   0.736   4.614  10.797  0.4810  0.4290  1.0205
  177SLPC    HB20139   0.688   4.444  10.812  0.2305 -0.3528 -2.1696
  177SLPC    C220140   0.651   4.521  10.616  0.2287  0.8059 -0.1296
  177SLPC    HS20141   0.753   4.509  10.574  1.4321 -1.0015  3.1663
  177SLPC   O2120142   0.583   4.633  10.550 -0.6036 -0.3507 -1.3580
  177SLPC   C2120143   0.656   4.749  10.560 -0.3786 -0.7359  0.1291
  177SLPC   O2220144   0.772   4.751  10.602  0.1751 -0.0866 -0.3388
  177SLPC   C2220145   0.568   4.863  10.521 -0.0380 -0.2637  0.6757
  177SLPC   H2R20146   0.462   4.831  10.535  0.3348 -1.5495  0.6224
  177SLPC   H2S20147   0.581   4.950  10.589 -0.2872 -0.8149  1.4402
  177SLPC    C320148   0.584   4.390  10.573  0.6021  0.3638 -0.4780
  177SLPC    HX20149   0.484   4.376  10.621  1.0705  0.1234  0.4385
  177SLPC    HY20150   0.644   4.307  10.616  2.1897  1.3603 -0.7410
  177SLPC   O3120151   0.566   4.387  10.424  0.0712 -0.4792 -0.7800
  177SLPC   C3120152   0.453   4.414  10.369 -0.3007  0.2536 -0.3321
  177SLPC   O3220153   0.353   4.452  10.427  0.1253  0.2308  0.4492
  177SLPC   C3220154   0.468   4.421  10.221  0.4211  0.8629  0.7786
  177SLPC   H2X20155   0.389   4.355  10.179  1.5007 -0.4010  0.7222
  177SLPC   H2Y20156   0.563   4.369  10.196  0.6246  0.9454  1.3671
  177SLPC   C2320157   0.572   4.904  10.369  0.4291  0.3811 -0.6170
  177SLPC   H3R20158   0.491   4.975  10.340  0.6255  0.8117 -0.1052
  177SLPC   H3S20159   0.557   4.815  10.305  1.6645 -0.2782 -0.0077
  177SLPC   C2420160   0.706   4.966  10.334 -0.5930  0.1582 -0.3521
  177SLPC   H4R20161   0.779   4.882  10.338 -1.5456 -0.7252 -1.0344
  177SLPC   H4S20162   0.746   5.049  10.395  0.8546  1.7153 -3.3078
  177SLPC   C2520163   0.706   5.007  10.183 -0.5102 -0.4306  0.2542
  177SLPC   H5R20164   0.806   5.046  10.156 -0.2120  0.2941  2.3646
  177SLPC   H5S20165   0.635   5.091  10.174 -2.0554 -1.8655 -1.2748
  177SLPC   C2620166   0.677   4.891  10.087  0.2687  0.3699  0.6186
  177SLPC   H6R20167   0.569   4.886  10.062  0.5841 -2.1953 -0.4186
  177SLPC   H6S20168   0.705   4.791  10.127 -0.9074 -0.0544  0.3980
  177SLPC   C2720169   0.752   4.918   9.954 -0.0135 -0.4072 -0.1445
  177SLPC   H7R20170   0.740   4.841   9.875  1.1653 -1.4926  0.7219
  177SLPC   H7S20171   0.858   4.916   9.987 -0.8700 -1.3737  2.6418
  177SLPC   C2820172   0.734   5.058   9.878  0.1163 -0.3398 -0.4625
  177SLPC   H8R20173   0.803   5.059   9.791  0.9054 -1.9995  0.1324
  177SLPC   H8S20174   0.757   5.145   9.943 -3.1044  0.8897 -0.8328
  177SLPC   C2920175   0.597   5.060   9.822 -0.0361  0.1862  0.0482
  177SLPC   H9R20176   0.526   5.032   9.901  1.5786 -2.8277  0.5277
  177SLPC  C21020177   0.565   5.081   9.697  0.5752  0.1973 -0.6470
  177SLPC  H10R20178   0.457   5.078   9.676  0.2003 -0.4281  1.2238
  177SLPC  C21120179   0.656   5.109   9.575  0.5092 -0.3046 -1.1270
  177SLPC  H11R20180   0.733   5.181   9.608  0.0582  1.1447 -3.1073
  177SLPC  H11S20181   0.721   5.027   9.539 -0.1604 -0.9384 -0.9204
  177SLPC  C21220182   0.576   5.162   9.460  0.1887 -0.4057 -0.5101
  177SLPC  H12R20183   0.473   5.124   9.452 -0.4500  1.3900 -1.1191
  177SLPC  C21320184   0.614   5.252   9.368  0.2443 -0.1115 -0.1086
  177SLPC  H13R20185   0.531   5.283   9.303  1.2851  0.3079 -1.2536
  177SLPC  C21420186   0.735   5.335   9.365  0.4115 -0.7006 -0.8043
  177SLPC  H14R20187   0.786   5.330   9.267 -0.4204  0.9628 -1.3317
  177SLPC  H14S20188   0.807   5.295   9.440 -0.4980  0.8589  0.9592
  177SLPC  C21520189   0.704   5.486   9.393  0.5098 -0.4889 -0.0011
  177SLPC  H15R20190   0.794   5.548   9.378 -0.2211  0.6374  0.1752
  177SLPC  H15S20191   0.665   5.504   9.496 -3.5771  1.5922 -1.7770
  177SLPC  C21620192   0.583   5.550   9.321  0.0986 -0.7347  0.3405
  177SLPC  H16R20193   0.487   5.502   9.353 -0.3726 -0.5191 -0.7235
  177SLPC  H16S20194   0.595   5.550   9.210 -0.2660 -0.2356  0.2991
  177SLPC  C21720195   0.563   5.694   9.363  0.3960  0.6656  0.2122
  177SLPC  H17R20196   0.652   5.755   9.339  1.8529 -0.8433  1.6108
  177SLPC  H17S20197   0.555   5.690   9.474 -0.7443  0.7917  0.1419
  177SLPC  C21820198   0.441   5.762   9.301  1.0393 -0.0207  0.0371
  177SLPC  H18R20199   0.424   5.863   9.343  1.2594  0.8304 -1.9155
  177SLPC  H18S20200   0.348   5.708   9.330 -0.2685  1.6028 -1.0355
  177SLPC  H18T20201   0.440   5.773   9.191 -0.6740  1.5622  0.1890
  177SLPC   C3320202   0.471   4.572  10.179 -0.3827  0.0194 -0.0716
  177SLPC   H3X20203   0.578   4.601  10.188 -0.4537  0.1448  0.3928
  177SLPC   H3Y20204   0.408   4.633  10.248 -0.5602 -0.4085  0.1516
  177SLPC   C3420205   0.422   4.590  10.038  0.7028 -0.0801 -0.2179
  177SLPC   H4X20206   0.393   4.694  10.010 -1.0345 -0.7191 -0.8370
  177SLPC   H4Y20207   0.333   4.525  10.026  0.8406 -0.2985 -0.0577
  177SLPC   C3520208   0.527   4.553   9.937 -0.1419 -1.1299  0.6737
  177SLPC   H5X20209   0.539   4.443   9.936  5.1085 -0.6943  2.2900
  177SLPC   H5Y20210   0.619   4.603   9.973 -0.4820  0.3919 -0.4794
  177SLPC   C3620211   0.498   4.611   9.802  0.1249 -0.0678 -0.1843
  177SLPC   H6X20212   0.490   4.722   9.798 -0.3531 -0.1305 -1.2863
  177SLPC   H6Y20213   0.400   4.565   9.777  0.6547 -1.0157 -0.5199
  177SLPC   C3720214   0.607   4.576   9.700  0.0843  0.1225  0.0780
  177SLPC   H7X20215   0.623   4.466   9.690 -0.2343  0.2009 -1.3970
  177SLPC   H7Y20216   0.702   4.615   9.742  1.0701 -2.5839  0.4688
  177SLPC   C3820217   0.581   4.647   9.571 -0.1073 -0.3535  0.5098
  177SLPC   H8X20218   0.580   4.758   9.576 -1.8050 -0.3706  0.6058
  177SLPC   H8Y20219   0.481   4.613   9.538 -0.4391  2.4366 -1.5764
  177SLPC   C3920220   0.684   4.618   9.463 -0.5603 -0.5331  0.8168
  177SLPC   H9X20221   0.693   4.508   9.445  2.5273  0.0344 -1.6573
  177SLPC   H9Y20222   0.782   4.665   9.487 -0.7882 -0.0236  0.7457
  177SLPC  C31020223   0.636   4.667   9.327 -0.3561  0.2990 -0.0392
  177SLPC  H10X20224   0.637   4.778   9.325 -1.7995  0.3496  1.3708
  177SLPC  H10Y20225   0.541   4.616   9.303 -1.5371  1.5463  1.8125
  177SLPC  C31120226   0.734   4.606   9.223 -0.0264 -0.0484 -0.1643
  177SLPC  H11X20227   0.707   4.498   9.216  0.3935 -0.0685 -1.7141
  177SLPC  H11Y20228   0.833   4.622   9.270  0.1574 -0.9020 -0.2529
  177SLPC  C31220229   0.732   4.665   9.086  0.3065 -0.9988  0.8742
  177SLPC  H12X20230   0.642   4.649   9.024  1.0022 -1.2321 -0.0917
  177SLPC  H12Y20231   0.822   4.619   9.039 -0.3846 -0.6689 -0.8073
  177SLPC  C31320232   0.747   4.821   9.077  0.6792  0.2882  0.4144
  177SLPC  H13X20233   0.670   4.861   9.145  0.1650  0.2411 -0.1363
  177SLPC  H13Y20234   0.722   4.852   8.973 -1.1061  0.4243  0.8792
  177SLPC  C31420235   0.890   4.872   9.088 -0.3503  0.5981  0.1392
  177SLPC  H14X20236   0.946   4.852   8.994 -1.4543 -0.3360 -0.3291
  177SLPC  H14Y20237   0.949   4.837   9.176  0.8606  2.8510  0.2433
  177SLPC  C31520238   0.888   5.036   9.089 -0.6120  0.8134 -0.2260
  177SLPC  H15X20239   0.826   5.067   9.176 -1.8283 -1.2556 -0.3133
  177SLPC  H15Y20240   0.843   5.081   8.997 -1.1522  0.8153  0.0346
  177SLPC  C31620241   1.032   5.090   9.110  0.0394 -0.1372 -0.5332
  177SLPC  H16X20242   1.093   5.040   9.190 -0.8359  0.7932  0.7253
  177SLPC  H16Y20243   1.036   5.195   9.144  2.4243  0.0826 -1.3526
  177SLPC  C31720244   1.119   5.098   8.985  0.4405  0.5721 -0.3647
  177SLPC  H17X20245   1.139   4.996   8.945 -1.8206 -0.5513  1.2808
  177SLPC  H17Y20246   1.222   5.136   9.006  0.3020  1.9150 -1.9567
  177SLPC  C31820247   1.071   5.196   8.878 -0.3704 -0.5311  0.1707
  177SLPC  H18X20248   1.061   5.299   8.918 -2.6395 -0.5481 -0.2960
  177SLPC  H18Y20249   0.969   5.164   8.847  0.0600 -1.7894  0.0032
  177SLPC  H18Z20250   1.138   5.193   8.790  1.7712 -2.3158  1.8091
  178SLPC     N20251   2.194   0.228  11.120  0.6237  0.0362 -0.4125
  178SLPC   C1320252   2.063   0.174  11.171 -0.6371 -0.8642  0.4652
  178SLPC  H13A20253   2.070   0.127  11.268  1.8130 -0.2165  0.6306
  178SLPC  H13B20254   1.987   0.251  11.171 -0.3936 -0.6241  0.3248
  178SLPC  H13C20255   2.035   0.094  11.103 -1.5427  0.6413 -0.9668
  178SLPC   C1420256   2.309   0.138  11.154  0.3333  0.0563 -0.3060
  178SLPC  H14A20257   2.321   0.052  11.090  1.6427  0.1443 -0.1779
  178SLPC  H14B20258   2.392   0.198  11.120  0.1462  0.6477  0.2765
  178SLPC  H14C20259   2.312   0.114  11.259  1.4131 -0.8242 -0.5307
  178SLPC   C1520260   2.210   0.362  11.188  0.0283  0.5178 -0.4780
  178SLPC  H15A20261   2.313   0.394  11.182  0.4677 -1.1440 -2.3379
  178SLPC  H15B20262   2.150   0.439  11.142  1.1357  0.4758 -2.0450
  178SLPC  H15C20263   2.187   0.349  11.292  0.0480  2.4419 -0.2304
  178SLPC   C1220264   2.179   0.245  10.971  0.1427  0.0729 -0.4743
  178SLPC  H12A20265   2.284   0.246  10.943  1.1065  0.6620  2.9688
  178SLPC  H12B20266   2.137   0.340  10.944 -0.2363 -0.5971 -2.3453
  178SLPC   C1120267   2.102   0.137  10.888 -0.7960 -0.3145  0.0029
  178SLPC  H11A20268   2.102   0.169  10.781  1.2017 -1.8700 -0.4958
  178SLPC  H11B20269   1.993   0.133  10.909 -0.6388 -0.1149  0.8713
  178SLPC     P20270   2.085  -0.129  10.871  0.0273 -0.1393  0.3789
  178SLPC   O1320271   2.183  -0.240  10.886 -0.4313 -0.5926 -0.5053
  178SLPC   O1420272   1.955  -0.150  10.940 -0.1313 -0.8125 -0.1454
  178SLPC   O1220273   2.153   0.007  10.908 -0.3484 -0.1528  0.0250
  178SLPC   O1120274   2.068  -0.114  10.712 -0.0150  0.3186  0.4041
  178SLPC    C120275   2.184  -0.113  10.626 -0.1046 -0.1976 -0.6568
  178SLPC    HA20276   2.162  -0.061  10.531  2.1030  0.7714 -0.6615
  178SLPC    HB20277   2.266  -0.054  10.672 -1.2005  1.7846 -1.2040
  178SLPC    C220278   2.223  -0.254  10.577  0.5344  0.4707  0.1768
  178SLPC    HS20279   2.277  -0.297  10.664  0.1533 -1.8695 -0.7175
  178SLPC   O2120280   2.300  -0.253  10.456 -0.1347  0.1497 -0.4325
  178SLPC   C2120281   2.390  -0.350  10.449 -0.0332 -1.2035  0.1418
  178SLPC   O2220282   2.426  -0.421  10.543  0.0789  0.0769 -0.2295
  178SLPC   C2220283   2.441  -0.353  10.301  0.3998  0.2839  0.6571
  178SLPC   H2R20284   2.499  -0.261  10.279  0.6937 -0.0479  0.0263
  178SLPC   H2S20285   2.495  -0.449  10.283 -2.4759 -1.1359 -0.8384
  178SLPC    C320286   2.101  -0.340  10.548 -0.1348  0.0854  0.0520
  178SLPC    HX20287   2.030  -0.263  10.512 -0.0880 -0.4279 -1.1747
  178SLPC    HY20288   2.062  -0.373  10.647  1.0451 -0.0871  0.4588
  178SLPC   O3120289   2.109  -0.441  10.444 -0.0596 -0.4215 -0.1573
  178SLPC   C3120290   2.009  -0.534  10.463 -0.2429  0.2539 -0.0648
  178SLPC   O3220291   1.916  -0.513  10.539 -0.6765 -1.0875  0.2188
  178SLPC   C3220292   2.040  -0.658  10.385  0.0313  0.0893 -0.2808
  178SLPC   H2X20293   2.073  -0.725  10.467  3.2947 -0.1874 -1.7304
  178SLPC   H2Y20294   2.116  -0.647  10.304 -0.5288  1.5682 -0.6192
  178SLPC   C2320295   2.331  -0.362  10.198  0.5477  0.0137  0.2583
  178SLPC   H3R20296   2.267  -0.274  10.221  0.5261 -0.4200  1.8964
  178SLPC   H3S20297   2.267  -0.453  10.198 -0.4008  0.6339  2.7220
  178SLPC   C2420298   2.386  -0.345  10.055  0.2383  0.1097  0.2432
  178SLPC   H4R20299   2.460  -0.423  10.028  1.4719  1.6965 -1.0715
  178SLPC   H4S20300   2.432  -0.244  10.047 -0.9604  0.5505 -1.4423
  178SLPC   C2520301   2.273  -0.362   9.943  0.0382 -0.5541 -0.3998
  178SLPC   H5R20302   2.202  -0.280   9.967  2.0238  0.9872  0.3617
  178SLPC   H5S20303   2.226  -0.460   9.965  0.9176 -1.5901 -2.9013
  178SLPC   C2620304   2.326  -0.347   9.806  0.4334  0.4847 -0.0037
  178SLPC   H6R20305   2.372  -0.443   9.776  1.9983  0.1536  3.2292
  178SLPC   H6S20306   2.397  -0.261   9.807  0.4350  0.5532 -3.1771
  178SLPC   C2720307   2.216  -0.320   9.695 -0.5290 -0.0275 -0.5044
  178SLPC   H7R20308   2.178  -0.216   9.706 -1.0633 -0.3993  1.2437
  178SLPC   H7S20309   2.136  -0.396   9.698  0.9356 -1.6434 -1.4952
  178SLPC   C2820310   2.279  -0.354   9.556 -0.1685 -0.5009 -0.0557
  178SLPC   H8R20311   2.188  -0.348   9.492 -1.5825 -0.3906  1.9101
  178SLPC   H8S20312   2.310  -0.461   9.547 -0.9020 -0.5815 -1.8832
  178SLPC   C2920313   2.388  -0.267   9.497 -0.0492  0.5210  0.1012
  178SLPC   H9R20314   2.484  -0.284   9.549 -0.2317 -1.3706 -0.1547
  178SLPC  C21020315   2.382  -0.176   9.396  0.2499 -0.0924  0.6461
  178SLPC  H10R20316   2.470  -0.111   9.386  0.4742 -0.2026  1.7649
  178SLPC  C21120317   2.250  -0.144   9.318 -0.0737  0.5576 -0.4675
  178SLPC  H11R20318   2.167  -0.218   9.321  2.2123 -2.0644  0.3749
  178SLPC  H11S20319   2.290  -0.143   9.214 -1.2081  1.2015 -0.9164
  178SLPC  C21220320   2.193  -0.012   9.358 -0.1082  0.6436  0.3841
  178SLPC  H12R20321   2.190   0.006   9.466  1.1883 -1.0902  0.7221
  178SLPC  C21320322   2.155   0.086   9.278  0.1146  0.3479 -0.1135
  178SLPC  H13R20323   2.121   0.178   9.328 -0.9504  0.3401 -0.7876
  178SLPC  C21420324   2.158   0.086   9.126  0.0602 -0.4337 -0.6188
  178SLPC  H14R20325   2.068   0.138   9.085 -0.3676 -1.6618 -1.2528
  178SLPC  H14S20326   2.155  -0.021   9.098 -0.8665 -1.2704  2.4797
  178SLPC  C21520327   2.285   0.142   9.066 -0.2486  0.2251  0.1359
  178SLPC  H15R20328   2.364   0.097   9.130 -0.3668 -2.5261 -1.5816
  178SLPC  H15S20329   2.285   0.252   9.055  0.4606  0.0112 -2.2096
  178SLPC  C21620330   2.294   0.102   8.913  0.4754  0.1825 -0.7096
  178SLPC  H16R20331   2.285  -0.009   8.908  3.9864 -0.2530  1.1758
  178SLPC  H16S20332   2.398   0.121   8.880  1.0057 -1.0385  0.2201
  178SLPC  C21720333   2.198   0.181   8.819  0.3964  0.4414  0.6586
  178SLPC  H17R20334   2.194   0.288   8.848  1.0748  0.7417 -0.3363
  178SLPC  H17S20335   2.096   0.136   8.829  0.9326 -0.5247  1.9732
  178SLPC  C21820336   2.230   0.180   8.669  0.4255  1.2944 -0.3532
  178SLPC  H18R20337   2.209   0.082   8.620 -1.3929  0.8397  1.2442
  178SLPC  H18S20338   2.334   0.212   8.649  1.4724 -1.4095  0.4795
  178SLPC  H18T20339   2.166   0.260   8.626 -0.3480  1.4885  1.1074
  178SLPC   C3320340   1.919  -0.729  10.319  0.2757  0.4232  0.6133
  178SLPC   H3X20341   1.833  -0.714  10.388 -1.0686  0.2066 -0.9911
  178SLPC   H3Y20342   1.938  -0.838  10.310 -0.3774  0.3409  0.2074
  178SLPC   C3420343   1.878  -0.652  10.194  0.2208 -0.8798  0.4134
  178SLPC   H4X20344   1.868  -0.542  10.206 -0.1788 -0.4915 -3.0332
  178SLPC   H4Y20345   1.783  -0.699  10.161 -0.5285  2.1626 -1.9855
  178SLPC   C3520346   1.967  -0.676  10.073  0.0469 -0.2824  0.5953
  178SLPC   H5X20347   2.074  -0.654  10.092  0.2081 -1.1701  0.7403
  178SLPC   H5Y20348   1.947  -0.602   9.992  2.3440  0.5871  0.7895
  178SLPC   C3620349   1.952  -0.818  10.022  0.1292 -0.3333  0.4441
  178SLPC   H6X20350   1.845  -0.835   9.998  0.5789  0.1327 -2.0348
  178SLPC   H6Y20351   1.996  -0.889  10.095 -0.9853  1.1153  2.5711
  178SLPC   C3720352   2.029  -0.849   9.892 -0.0472  0.5079 -0.1714
  178SLPC   H7X20353   2.001  -0.953   9.865 -1.4613  1.2207 -1.5185
  178SLPC   H7Y20354   2.135  -0.854   9.924  0.0062  1.5164 -0.1676
  178SLPC   C3820355   2.003  -0.746   9.783  0.0661  0.5692  0.0636
  178SLPC   H8X20356   2.006  -0.639   9.812  1.2216  0.3066  0.9442
  178SLPC   H8Y20357   1.899  -0.760   9.748  0.2734  0.0335 -0.3617
  178SLPC   C3920358   2.106  -0.754   9.673 -0.3219  0.2245  0.6399
  178SLPC   H9X20359   2.091  -0.854   9.629 -1.1162  0.4774  0.3405
  178SLPC   H9Y20360   2.207  -0.736   9.716 -0.9057 -0.3242  2.3065
  178SLPC  C31020361   2.076  -0.661   9.551 -0.1053 -0.1097 -0.6414
  178SLPC  H10X20362   2.102  -0.556   9.576 -0.5456 -0.8343  3.1133
  178SLPC  H10Y20363   1.966  -0.663   9.537 -0.3401 -1.5271  1.2594
  178SLPC  C31120364   2.138  -0.706   9.416 -0.2944 -0.1936 -0.0112
  178SLPC  H11X20365   2.115  -0.814   9.400  2.2777 -0.5209 -1.8691
  178SLPC  H11Y20366   2.248  -0.693   9.417 -0.2684 -0.1479 -2.0445
  178SLPC  C31220367   2.090  -0.630   9.292  0.2288  0.3672  1.2760
  178SLPC  H12X20368   2.143  -0.534   9.309  2.6300 -0.6743 -0.1455
  178SLPC  H12Y20369   1.981  -0.609   9.294  0.1061 -0.1306  0.1364
  178SLPC  C31320370   2.116  -0.688   9.158 -0.0373 -0.1120 -0.0212
  178SLPC  H13X20371   2.067  -0.788   9.158  0.9835 -0.6190 -0.2680
  178SLPC  H13Y20372   2.226  -0.701   9.152  0.2856  2.7792 -1.2994
  178SLPC  C31420373   2.060  -0.613   9.033 -0.0228  0.5232  0.3527
  178SLPC  H14X20374   1.950  -0.605   9.042  0.1565  1.9258  1.7154
  178SLPC  H14Y20375   2.065  -0.670   8.938 -0.6000 -1.8871  1.7301
  178SLPC  C31520376   2.117  -0.473   9.022  0.2723  0.5340  0.2290
  178SLPC  H15X20377   2.096  -0.423   9.119 -0.4939  1.9584 -0.6594
  178SLPC  H15Y20378   2.224  -0.470   8.991  0.4177  1.4264  0.7817
  178SLPC  C31620379   2.063  -0.382   8.906  0.6301 -0.4774  0.1530
  178SLPC  H16X20380   1.958  -0.412   8.885  1.4523 -2.7947 -0.7964
  178SLPC  H16Y20381   2.116  -0.410   8.813 -0.3751 -1.7604 -0.0530
  178SLPC  C31720382   2.079  -0.231   8.938  0.0810 -0.0762  0.9168
  178SLPC  H17X20383   2.087  -0.174   8.843  3.6289 -1.9080  0.0269
  178SLPC  H17Y20384   2.175  -0.218   8.992  1.1334 -1.7645 -0.4959
  178SLPC  C31820385   1.955  -0.182   9.004  0.2600 -0.3469  0.1556
  178SLPC  H18X20386   1.947  -0.071   9.003 -1.2000 -0.4432  1.0914
  178SLPC  H18Y20387   1.928  -0.222   9.103  0.9859 -1.9127 -0.2716
  178SLPC  H18Z20388   1.872  -0.219   8.940 -0.3150 -0.3401  0.9043
  179SLPC     N20389   3.994   2.907  10.722  0.6671 -0.4234  0.0919
  179SLPC   C1320390   3.997   2.811  10.599 -0.1868  0.3601  0.2057
  179SLPC  H13A20391   3.913   2.745  10.587 -0.5883  1.1238 -1.2033
  179SLPC  H13B20392   3.991   2.873  10.511  0.0599 -0.6341 -0.5256
  179SLPC  H13C20393   4.082   2.746  10.615 -0.3622  0.2078  0.5299
  179SLPC   C1420394   4.131   2.947  10.746 -0.0793 -0.0180  0.0603
  179SLPC  H14A20395   4.140   2.990  10.844 -2.9579 -2.4015  1.4577
  179SLPC  H14B20396   4.190   2.856  10.753 -0.8402 -0.4118  1.5586
  179SLPC  H14C20397   4.175   3.022  10.682  0.9408 -0.1950  0.5402
  179SLPC   C1520398   3.951   2.819  10.836  0.3259  0.5507 -0.6455
  179SLPC  H15A20399   3.937   2.879  10.924 -1.0065 -0.2929 -0.2677
  179SLPC  H15B20400   3.852   2.783  10.816 -0.0586  0.6781  1.0099
  179SLPC  H15C20401   4.024   2.740  10.847  0.6680  0.7465 -1.4511
  179SLPC   C1220402   3.899   3.025  10.701  0.1445 -1.1864  0.5630
  179SLPC  H12A20403   3.892   3.092  10.786  2.1672  1.2757 -1.1181
  179SLPC  H12B20404   3.798   2.989  10.686 -0.1414  0.0969 -0.7730
  179SLPC   C1120405   3.931   3.124  10.578  0.0673  0.5995  0.2152
  179SLPC  H11A20406   4.037   3.159  10.585  0.5046  0.1269 -3.1558
  179SLPC  H11B20407   3.857   3.207  10.579 -2.3477 -1.5058  0.0775
  179SLPC     P20408   3.782   3.016  10.396  0.2415  0.3605  0.0042
  179SLPC   O1320409   3.795   2.963  10.260 -0.4156  0.4001  0.0979
  179SLPC   O1420410   3.712   2.936  10.492  0.0564 -0.0378  0.1733
  179SLPC   O1220411   3.921   3.048  10.453 -0.0342 -0.0364 -0.2625
  179SLPC   O1120412   3.709   3.154  10.391 -0.0638  0.5164 -0.3837
  179SLPC    C120413   3.711   3.236  10.283  0.6370  0.2839 -0.2395
  179SLPC    HA20414   3.703   3.341  10.321  1.8175 -0.3406  1.7866
  179SLPC    HB20415   3.800   3.234  10.217  1.9581 -0.0385  1.5191
  179SLPC    C220416   3.592   3.206  10.187 -0.6438  0.2882  0.2663
  179SLPC    HS20417   3.610   3.099  10.165  2.8699  0.5134  1.8649
  179SLPC   O2120418   3.609   3.299  10.071  0.2906  0.2408  0.1010
  179SLPC   C2120419   3.591   3.234   9.960 -0.9145 -0.1831 -0.3747
  179SLPC   O2220420   3.565   3.115   9.958  0.0973 -0.2618 -0.2211
  179SLPC   C2220421   3.615   3.327   9.842  0.1086 -0.1268 -0.1385
  179SLPC   H2R20422   3.514   3.353   9.805  0.4944 -0.4596 -1.4913
  179SLPC   H2S20423   3.670   3.415   9.882  1.6594 -0.1808 -2.0187
  179SLPC    C320424   3.456   3.229  10.254  0.3551 -0.1446 -0.9499
  179SLPC    HX20425   3.446   3.339  10.268  0.0070 -0.2584 -0.2722
  179SLPC    HY20426   3.467   3.194  10.359 -1.6405 -0.0352 -0.6807
  179SLPC   O3120427   3.339   3.176  10.192  0.2406  0.0405  0.2753
  179SLPC   C3120428   3.317   3.044  10.195  0.1023  0.6241 -0.6967
  179SLPC   O3220429   3.377   2.970  10.274  0.4154 -0.0394  1.0878
  179SLPC   C3220430   3.184   3.008  10.126 -0.2944 -0.1091 -0.0707
  179SLPC   H2X20431   3.153   3.095  10.065  0.5400 -0.5797 -1.1917
  179SLPC   H2Y20432   3.106   2.999  10.205 -0.7191 -1.9508 -0.6725
  179SLPC   C2320433   3.718   3.271   9.739  0.4007 -0.7121  0.2955
  179SLPC   H3R20434   3.683   3.168   9.716 -0.2604  0.0356 -2.2366
  179SLPC   H3S20435   3.820   3.261   9.781  0.9014 -3.1395 -1.4248
  179SLPC   C2420436   3.720   3.365   9.611 -1.0249  0.0356 -0.0828
  179SLPC   H4R20437   3.746   3.470   9.639 -1.9911  0.7567 -1.8233
  179SLPC   H4S20438   3.622   3.368   9.561 -0.4017  0.3065 -1.3042
  179SLPC   C2520439   3.813   3.309   9.508  0.1172  0.0618  0.5698
  179SLPC   H5R20440   3.815   3.199   9.498 -0.0336  0.0340  0.8410
  179SLPC   H5S20441   3.916   3.341   9.538  0.0949  0.9253 -0.2292
  179SLPC   C2620442   3.767   3.365   9.374 -0.3812  0.2957 -0.5919
  179SLPC   H6R20443   3.657   3.352   9.362 -0.3184 -1.1358  0.2159
  179SLPC   H6S20444   3.813   3.307   9.291 -0.8438 -1.7870  0.5778
  179SLPC   C2720445   3.806   3.510   9.353  0.6274  0.1309 -0.3292
  179SLPC   H7R20446   3.916   3.523   9.350  0.6701 -0.4152 -1.5560
  179SLPC   H7S20447   3.769   3.558   9.446  1.0942 -1.7101  0.8453
  179SLPC   C2820448   3.739   3.575   9.234  0.1281 -0.3100  0.5214
  179SLPC   H8R20449   3.629   3.569   9.249  0.0281  0.1017 -0.0053
  179SLPC   H8S20450   3.742   3.500   9.152  1.0268  0.3821 -0.0853
  179SLPC   C2920451   3.780   3.715   9.191 -0.2132 -0.3908 -0.3797
  179SLPC   H9R20452   3.865   3.759   9.244  0.2866 -3.3854  1.3922
  179SLPC  C21020453   3.720   3.796   9.101 -0.0255  0.2099  0.3979
  179SLPC  H10R20454   3.768   3.889   9.069 -1.6647  1.4356  1.4163
  179SLPC  C21120455   3.598   3.774   9.009  0.0033  0.4273  0.0974
  179SLPC  H11R20456   3.508   3.820   9.055 -0.0749 -0.9639  1.3467
  179SLPC  H11S20457   3.577   3.666   9.002 -0.7713  0.3994  2.3515
  179SLPC  C21220458   3.621   3.844   8.875 -0.3366 -1.0324 -0.3176
  179SLPC  H12R20459   3.726   3.842   8.840 -0.0995 -1.3249  0.3959
  179SLPC  C21320460   3.527   3.898   8.794 -0.1608 -0.0510 -0.1508
  179SLPC  H13R20461   3.561   3.950   8.703  2.4769  0.9988  1.4056
  179SLPC  C21420462   3.390   3.909   8.835  0.8791 -0.2529  0.2277
  179SLPC  H14R20463   3.374   3.959   8.933 -2.0228 -1.4842  0.4308
  179SLPC  H14S20464   3.349   3.807   8.847 -0.3961  0.1312 -0.6560
  179SLPC  C21520465   3.296   3.993   8.746 -0.1305 -0.1321  0.3923
  179SLPC  H15R20466   3.336   4.094   8.725 -1.3253 -0.0898 -1.8397
  179SLPC  H15S20467   3.194   4.014   8.784 -0.7177 -3.2825  0.7173
  179SLPC  C21620468   3.270   3.927   8.607 -0.0317  0.3334  0.0529
  179SLPC  H16R20469   3.364   3.911   8.550 -0.4482 -0.9833 -0.2724
  179SLPC  H16S20470   3.220   4.000   8.540 -0.4306 -1.8413 -2.0934
  179SLPC  C21720471   3.194   3.788   8.610  0.3417  0.1713  0.8146
  179SLPC  H17R20472   3.117   3.790   8.691  0.5242 -0.6470  1.0100
  179SLPC  H17S20473   3.265   3.706   8.636 -0.5860 -1.3835 -1.3956
  179SLPC  C21820474   3.124   3.768   8.473 -0.0973  0.2802 -0.6682
  179SLPC  H18R20475   3.196   3.783   8.390 -1.6015 -0.0016 -2.0552
  179SLPC  H18S20476   3.045   3.847   8.473  0.9039  1.3296 -3.0607
  179SLPC  H18T20477   3.083   3.666   8.456 -2.3788  1.0626 -0.0409
  179SLPC   C3320478   3.180   2.890  10.026  0.0093  0.4855 -0.1884
  179SLPC   H3X20479   3.073   2.864  10.005  0.6767 -1.6368 -1.1646
  179SLPC   H3Y20480   3.219   2.798  10.074 -0.2805 -0.0251 -0.9230
  179SLPC   C3420481   3.272   2.914   9.903  1.1296 -0.6538  0.2078
  179SLPC   H4X20482   3.249   2.825   9.840 -0.1583  0.4665 -0.9493
  179SLPC   H4Y20483   3.379   2.903   9.928  0.8031  2.6489  3.4182
  179SLPC   C3520484   3.236   3.043   9.826  0.3087  0.3158 -0.3184
  179SLPC   H5X20485   3.256   3.136   9.883  1.1575 -0.2833  0.3692
  179SLPC   H5Y20486   3.126   3.054   9.814  0.4995  2.3998 -0.4351
  179SLPC   C3620487   3.309   3.050   9.697  0.3223 -1.3177  0.1034
  179SLPC   H6X20488   3.289   2.956   9.642 -0.9838 -2.5992  2.6708
  179SLPC   H6Y20489   3.420   3.043   9.710  0.2631 -1.8467  0.3645
  179SLPC   C3720490   3.273   3.169   9.619  0.1290  0.4096 -0.1250
  179SLPC   H7X20491   3.300   3.258   9.679  0.6338 -0.2805  0.6911
  179SLPC   H7Y20492   3.163   3.175   9.603  0.1990  1.2632 -0.2715
  179SLPC   C3820493   3.349   3.189   9.490 -0.4950  0.0222  0.2488
  179SLPC   H8X20494   3.356   3.082   9.461  0.3305 -0.1569  1.0764
  179SLPC   H8Y20495   3.453   3.222   9.508  0.2352  0.2098 -3.8321
  179SLPC   C3920496   3.288   3.284   9.393 -0.0897 -0.4935  0.5333
  179SLPC   H9X20497   3.274   3.388   9.431 -1.4313 -0.5383  0.2048
  179SLPC   H9Y20498   3.185   3.250   9.368 -0.2231  1.2002 -1.3190
  179SLPC  C31020499   3.360   3.278   9.262 -0.2776 -0.5839 -0.1817
  179SLPC  H10X20500   3.389   3.174   9.236 -0.4660 -0.7620  0.3381
  179SLPC  H10Y20501   3.445   3.349   9.251 -0.5858 -0.3567 -1.1738
  179SLPC  C31120502   3.276   3.320   9.136  0.0720 -0.1905 -0.0839
  179SLPC  H11X20503   3.245   3.426   9.147  0.8097  0.3090 -2.5184
  179SLPC  H11Y20504   3.176   3.271   9.133 -0.2594  0.2821  2.4448
  179SLPC  C31220505   3.344   3.296   9.003 -1.3740  0.1079  0.2801
  179SLPC  H12X20506   3.260   3.259   8.942  0.1384 -1.2217 -1.0369
  179SLPC  H12Y20507   3.410   3.207   9.013  0.0050  0.9459 -1.0811
  179SLPC  C31320508   3.427   3.407   8.941 -0.3858  0.4274  0.4296
  179SLPC  H13X20509   3.515   3.425   9.007  0.0583 -1.2546  0.3099
  179SLPC  H13Y20510   3.359   3.495   8.937 -1.5634 -0.5519 -3.7272
  179SLPC  C31420511   3.470   3.369   8.802  0.5797 -0.0081 -1.0640
  179SLPC  H14X20512   3.376   3.345   8.747 -0.0868  0.0757  0.0064
  179SLPC  H14Y20513   3.540   3.284   8.804  2.5803  1.6138 -0.7688
  179SLPC  C31520514   3.550   3.475   8.729 -0.2480  0.8726  0.2644
  179SLPC  H15X20515   3.658   3.450   8.741 -0.8615 -2.4890 -0.7142
  179SLPC  H15Y20516   3.521   3.575   8.766 -0.8084  1.6250 -2.1050
  179SLPC  C31620517   3.523   3.488   8.584 -0.6609 -0.3194  0.1100
  179SLPC  H16X20518   3.422   3.475   8.539  0.6079 -2.9909 -2.0986
  179SLPC  H16Y20519   3.574   3.399   8.542 -0.0531 -0.5803  1.3613
  179SLPC  C31720520   3.587   3.609   8.515  0.1120  0.2154  0.2247
  179SLPC  H17X20521   3.540   3.696   8.566  2.1153  0.1431  2.2800
  179SLPC  H17Y20522   3.549   3.600   8.411 -0.7745  3.8746  0.1718
  179SLPC  C31820523   3.739   3.609   8.518 -0.7244  0.3566  0.6524
  179SLPC  H18X20524   3.788   3.707   8.500  1.5461 -0.1850  3.4035
  179SLPC  H18Y20525   3.771   3.540   8.438 -0.0252 -1.3527  2.3688
  179SLPC  H18Z20526   3.789   3.571   8.610 -0.0020 -1.8661 -0.6464
  180SLPC     N20527   5.540   1.368  11.191  0.1753 -0.9697 -0.0582
  180SLPC   C1320528   5.612   1.462  11.274 -0.1479  0.0092  0.5080
  180SLPC  H13A20529   5.718   1.465  11.254 -0.1295 -0.1208  0.5848
  180SLPC  H13B20530   5.576   1.563  11.262 -2.9734 -1.1226 -1.0947
  180SLPC  H13C20531   5.593   1.452  11.380  1.9170  0.8448  0.9701
  180SLPC   C1420532   5.393   1.372  11.232 -0.5704 -0.5368 -0.3478
  180SLPC  H14A20533   5.321   1.311  11.179 -1.4325  0.1225  0.0412
  180SLPC  H14B20534   5.379   1.340  11.334 -3.2344  1.7816  0.0884
  180SLPC  H14C20535   5.371   1.478  11.228  0.1999 -0.2984  1.2450
  180SLPC   C1520536   5.589   1.227  11.214  0.2577 -0.4793 -0.5552
  180SLPC  H15A20537   5.601   1.204  11.319  0.2893  0.2714 -0.3954
  180SLPC  H15B20538   5.521   1.153  11.174 -2.7587  1.7947  0.1966
  180SLPC  H15C20539   5.681   1.205  11.161 -0.0263 -0.4392 -1.0685
  180SLPC   C1220540   5.568   1.383  11.043  0.1804 -0.1507 -0.2075
  180SLPC  H12A20541   5.672   1.359  11.023  0.0550 -1.7445  0.9696
  180SLPC  H12B20542   5.555   1.488  11.019 -0.1587  0.1439  1.2450
  180SLPC   C1120543   5.494   1.291  10.946  0.3219 -0.2022  0.4132
  180SLPC  H11A20544   5.522   1.190  10.983 -0.0916 -0.7128 -0.6600
  180SLPC  H11B20545   5.545   1.299  10.848  2.4293 -3.4147  1.1965
  180SLPC     P20546   5.241   1.208  10.910 -0.2654 -0.1545 -0.0782
  180SLPC   O1320547   5.238   1.117  11.025  0.2891 -0.3285 -0.5819
  180SLPC   O1420548   5.112   1.275  10.881 -0.6089 -0.3804 -0.2146
  180SLPC   O1220549   5.350   1.325  10.941 -0.0551  0.4434  0.3283
  180SLPC   O1120550   5.305   1.133  10.783  0.1506 -0.1971  0.0422
  180SLPC    C120551   5.292   1.195  10.654  0.0226  0.2743  0.8505
  180SLPC    HA20552   5.206   1.264  10.641  0.4573  0.5567 -0.5336
  180SLPC    HB20553   5.384   1.257  10.645 -0.0724  0.2072 -0.6422
  180SLPC    C220554   5.288   1.085  10.545  0.5966  0.9102  0.1229
  180SLPC    HS20555   5.390   1.039  10.550 -0.2773 -1.5315 -2.7903
  180SLPC   O2120556   5.258   1.149  10.419  0.0132  0.2239 -0.2620
  180SLPC   C2120557   5.308   1.091  10.309 -0.2945 -0.2489 -0.7174
  180SLPC   O2220558   5.370   0.986  10.301 -0.0208 -0.0481 -0.1362
  180SLPC   C2220559   5.249   1.166  10.187  1.0220 -0.4778 -1.2954
  180SLPC   H2R20560   5.288   1.270  10.186  1.3922 -0.5991  0.2008
  180SLPC   H2S20561   5.291   1.114  10.098 -0.2976 -2.4344 -0.7979
  180SLPC    C320562   5.190   0.969  10.576  0.0854 -0.3022  0.5294
  180SLPC    HX20563   5.096   1.026  10.594  0.8546  0.8617  0.9173
  180SLPC    HY20564   5.226   0.933  10.675 -0.4742 -0.1331  0.7985
  180SLPC   O3120565   5.173   0.878  10.468  0.2662  0.4120 -0.0702
  180SLPC   C3120566   5.245   0.764  10.476  0.4038  0.2258 -0.1565
  180SLPC   O3220567   5.321   0.736  10.566 -0.2879  0.3084 -0.2045
  180SLPC   C3220568   5.225   0.676  10.358  0.4404  0.3975  0.0205
  180SLPC   H2X20569   5.228   0.742  10.268  0.3212  1.7608  0.9936
  180SLPC   H2Y20570   5.127   0.624  10.368  0.5888  0.2261  0.6180
  180SLPC   C2320571   5.095   1.158  10.169 -0.3536 -0.0702 -0.5402
  180SLPC   H3R20572   5.052   1.241  10.229  0.1777 -0.8625  0.9790
  180SLPC   H3S20573   5.048   1.059  10.186  1.1882 -0.9953 -1.5696
  180SLPC   C2420574   5.068   1.190  10.015  0.0445  0.4144 -1.0831
  180SLPC   H4R20575   4.970   1.144   9.990 -0.7043  0.6212  1.3112
  180SLPC   H4S20576   5.145   1.142   9.951  0.0155  0.5832 -1.2471
  180SLPC   C2520577   5.058   1.343   9.985 -0.1866  0.8273 -0.0876
  180SLPC   H5R20578   5.158   1.390   9.993  0.1614 -0.1720  1.5629
  180SLPC   H5S20579   5.003   1.397  10.065  2.4012  1.2354  1.4881
  180SLPC   C2620580   4.990   1.363   9.855  0.0576 -0.5805 -0.1575
  180SLPC   H6R20581   4.890   1.314   9.862 -1.1002  1.4409 -1.7829
  180SLPC   H6S20582   5.051   1.308   9.781  0.2569  0.5083 -0.8105
  180SLPC   C2720583   4.988   1.508   9.804  0.2443  0.7172 -0.2374
  180SLPC   H7R20584   5.087   1.555   9.819  0.9577 -0.5967 -0.7846
  180SLPC   H7S20585   4.918   1.571   9.863 -1.3003  2.1922 -3.4877
  180SLPC   C2820586   4.953   1.521   9.658 -1.1152  0.0789  0.3326
  180SLPC   H8R20587   4.859   1.466   9.636  0.4833 -2.4336 -0.4178
  180SLPC   H8S20588   5.018   1.457   9.594  0.7923  0.4251  1.8677
  180SLPC   C2920589   4.930   1.665   9.625 -0.8768 -0.3258  0.3509
  180SLPC   H9R20590   4.896   1.731   9.707  0.1995  2.7287 -1.5732
  180SLPC  C21020591   4.953   1.720   9.503 -0.2805 -0.1570  0.2642
  180SLPC  H10R20592   4.933   1.828   9.494 -1.1405 -0.2100  1.3130
  180SLPC  C21120593   5.014   1.651   9.383  0.8017  0.6853  0.3255
  180SLPC  H11R20594   4.942   1.574   9.346 -0.2396  2.2483 -0.9403
  180SLPC  H11S20595   5.110   1.606   9.416  1.5391  2.7373  1.0204
  180SLPC  C21220596   5.058   1.744   9.270 -0.0392 -0.3826 -0.2340
  180SLPC  H12R20597   5.095   1.845   9.295 -2.1143  0.1129  0.9684
  180SLPC  C21320598   5.060   1.712   9.139 -0.4149 -0.4283  0.3714
  180SLPC  H13R20599   5.094   1.785   9.065 -0.8345 -1.0679 -0.4664
  180SLPC  C21420600   5.018   1.581   9.072 -0.3152  0.6180  0.4176
  180SLPC  H14R20601   4.909   1.591   9.051 -0.0572 -0.3713 -1.4986
  180SLPC  H14S20602   5.028   1.498   9.146  0.7939 -0.4664 -0.9214
  180SLPC  C21520603   5.085   1.549   8.937  1.1166 -0.1016 -0.5206
  180SLPC  H15R20604   5.063   1.443   8.912  0.7851 -0.2686  0.4371
  180SLPC  H15S20605   5.196   1.545   8.947  1.0718 -1.5645 -0.4811
  180SLPC  C21620606   5.020   1.631   8.819  0.4961 -0.3407 -0.3722
  180SLPC  H16R20607   5.049   1.737   8.835  0.0447 -0.3567  0.6214
  180SLPC  H16S20608   4.909   1.626   8.828  0.5998 -0.9511  0.6523
  180SLPC  C21720609   5.058   1.588   8.680 -0.5142  0.6564  0.1605
  180SLPC  H17R20610   5.006   1.492   8.662  1.2729 -0.6926  2.0355
  180SLPC  H17S20611   5.167   1.578   8.662 -0.5743  0.4537 -0.0893
  180SLPC  C21820612   5.021   1.691   8.570  0.4033 -0.7282 -0.4593
  180SLPC  H18R20613   5.077   1.786   8.578  0.0689 -0.3704 -2.2084
  180SLPC  H18S20614   4.913   1.720   8.567  0.4973 -0.3000  0.2551
  180SLPC  H18T20615   5.036   1.645   8.470  0.1393  0.2407 -0.9535
  180SLPC   C3320616   5.334   0.564  10.326  0.4274 -0.2705 -0.0899
  180SLPC   H3X20617   5.281   0.472  10.292  0.5583 -0.5758  0.5172
  180SLPC   H3Y20618   5.387   0.544  10.421  0.1041  0.3976  0.2408
  180SLPC   C3420619   5.435   0.615  10.216  0.3328  0.4679 -0.5838
  180SLPC   H4X20620   5.519   0.543  10.225 -0.7638 -0.4791  2.8021
  180SLPC   H4Y20621   5.474   0.716  10.238 -0.0082  0.4042  0.3412
  180SLPC   C3520622   5.382   0.589  10.075  0.3062  0.3124 -0.1512
  180SLPC   H5X20623   5.294   0.651  10.048  0.0947  0.1904  0.2556
  180SLPC   H5Y20624   5.366   0.480  10.064 -0.7847  0.3638  0.8574
  180SLPC   C3620625   5.499   0.615   9.977  0.2591 -0.7681 -0.2797
  180SLPC   H6X20626   5.584   0.544   9.984 -2.2051 -4.0112 -2.1758
  180SLPC   H6Y20627   5.545   0.713  10.002  1.4108 -1.6881  1.2761
  180SLPC   C3720628   5.442   0.620   9.840 -0.4045  0.3961  0.3477
  180SLPC   H7X20629   5.376   0.709   9.831 -0.3760  0.3619 -0.1962
  180SLPC   H7Y20630   5.392   0.522   9.819 -1.3810  0.4625  2.1897
  180SLPC   C3820631   5.551   0.637   9.735 -0.4765  0.6228 -0.2006
  180SLPC   H8X20632   5.628   0.558   9.751 -0.1906  1.1263  0.9389
  180SLPC   H8Y20633   5.592   0.740   9.743 -0.1684  0.4620  0.2986
  180SLPC   C3920634   5.504   0.613   9.588 -0.0201 -0.2821  0.1769
  180SLPC   H9X20635   5.410   0.670   9.571 -1.4684 -2.2228  1.5084
  180SLPC   H9Y20636   5.464   0.509   9.582 -0.8716  0.0626 -0.2871
  180SLPC  C31020637   5.620   0.647   9.492  0.2414  0.2316  0.5933
  180SLPC  H10X20638   5.686   0.559   9.500  2.2844  1.8950  2.7064
  180SLPC  H10Y20639   5.667   0.739   9.533 -0.6702  1.2459 -0.5952
  180SLPC  C31120640   5.571   0.683   9.354 -0.4359  0.1287  0.5465
  180SLPC  H11X20641   5.534   0.787   9.353  0.1836  0.3489  0.5081
  180SLPC  H11Y20642   5.491   0.610   9.328 -2.1236  1.8380  0.8474
  180SLPC  C31220643   5.681   0.675   9.245  0.0360  0.4235  0.0082
  180SLPC  H12X20644   5.731   0.576   9.256 -0.1292  0.2790 -0.4790
  180SLPC  H12Y20645   5.759   0.752   9.258 -0.5320  1.2448 -1.2680
  180SLPC  C31320646   5.638   0.685   9.095 -0.6866  0.2795  0.0734
  180SLPC  H13X20647   5.578   0.778   9.084  0.5800  1.0525 -0.4473
  180SLPC  H13Y20648   5.573   0.596   9.081  0.4796 -0.6853  0.7773
  180SLPC  C31420649   5.739   0.668   8.987 -0.8597  0.3527  0.1894
  180SLPC  H14X20650   5.679   0.671   8.894  1.8951  1.0030 -1.6273
  180SLPC  H14Y20651   5.800   0.576   9.000  0.8889  1.9138  3.5602
  180SLPC  C31520652   5.834   0.788   8.972  0.3120 -0.2442 -0.2050
  180SLPC  H15X20653   5.907   0.804   9.055  0.4182  2.5985 -0.7975
  180SLPC  H15Y20654   5.771   0.879   8.970  0.0106 -0.4362  0.2792
  180SLPC  C31620655   5.920   0.799   8.841  0.9159 -0.1635 -0.5513
  180SLPC  H16X20656   5.949   0.906   8.850 -0.6374  0.2441 -0.2617
  180SLPC  H16Y20657   5.851   0.790   8.754  0.5813  2.4639 -0.6163
  180SLPC  C31720658   6.051   0.721   8.839 -0.1986  0.0579 -0.0344
  180SLPC  H17X20659   6.109   0.741   8.931  1.2420  2.1718 -1.3555
  180SLPC  H17Y20660   6.100   0.767   8.751 -1.4431 -0.4246 -0.9977
  180SLPC  C31820661   6.050   0.572   8.816  0.4039 -0.0202 -0.4230
  180SLPC  H18X20662   6.154   0.535   8.804  0.5775  0.4971 -0.5162
  180SLPC  H18Y20663   6.004   0.547   8.718 -0.0341  1.6495 -0.6629
  180SLPC  H18Z20664   6.007   0.510   8.898 -1.2618 -0.3009 -1.5069
  181SLPC     N20665   0.245   4.871  11.109 -0.7435  1.0579 -0.4049
  181SLPC   C1320666   0.331   4.876  11.234  0.0310  0.2331 -0.8648
  181SLPC  H13A20667   0.271   4.875  11.324  0.0616  1.1663 -0.8332
  181SLPC  H13B20668   0.392   4.789  11.252  0.8725  1.0087  0.1395
  181SLPC  H13C20669   0.405   4.953  11.220  1.0034 -0.3140  1.0421
  181SLPC   C1420670   0.132   4.965  11.124 -0.1075 -0.2171 -0.0048
  181SLPC  H14A20671   0.055   4.958  11.048 -3.3527  0.4402  3.1198
  181SLPC  H14B20672   0.091   4.955  11.223  2.2506  2.2289  1.2478
  181SLPC  H14C20673   0.162   5.068  11.112 -3.6933  0.7678 -1.2835
  181SLPC   C1520674   0.192   4.722  11.112  0.4731  0.3832 -0.0410
  181SLPC  H15A20675   0.273   4.654  11.090  0.2316  0.5160 -1.3969
  181SLPC  H15B20676   0.162   4.696  11.213 -1.6146 -0.3112 -0.8219
  181SLPC  H15C20677   0.111   4.702  11.043  1.5134  1.5903 -1.6488
  181SLPC   C1220678   0.331   4.892  10.984 -0.0125  0.0842  0.3400
  181SLPC  H12A20679   0.261   4.892  10.902  0.0454 -1.8952  0.2737
  181SLPC  H12B20680   0.407   4.816  10.973 -0.6982 -0.3856 -1.3844
  181SLPC   C1120681   0.411   5.028  10.985  0.2406 -0.6340  0.4748
  181SLPC  H11A20682   0.338   5.102  11.026 -1.2287 -0.7661 -1.7590
  181SLPC  H11B20683   0.444   5.053  10.882  0.9796  1.1954  1.1263
  181SLPC     P20684   0.581   5.159  11.125 -0.3190 -0.1573  0.0066
  181SLPC   O1320685   0.497   5.198  11.241  0.2511 -0.1882 -0.2255
  181SLPC   O1420686   0.728   5.145  11.149  0.4544 -0.5501 -0.1512
  181SLPC   O1220687   0.526   5.018  11.069  0.2641 -0.1389 -0.0516
  181SLPC   O1120688   0.564   5.254  11.005  0.2145 -0.2100  0.1778
  181SLPC    C120689   0.616   5.231  10.877  0.1708 -0.0510 -0.2907
  181SLPC    HA20690   0.691   5.150  10.876 -0.2256 -0.4288  0.6950
  181SLPC    HB20691   0.530   5.211  10.810  2.3194 -1.7065 -2.6481
  181SLPC    C220692   0.691   5.358  10.828  0.0593  0.0149  0.2143
  181SLPC    HS20693   0.626   5.446  10.849 -1.1124 -0.8830  0.3747
  181SLPC   O2120694   0.737   5.353  10.687  0.0514 -0.1441 -0.2237
  181SLPC   C2120695   0.652   5.403  10.591 -0.1476  0.2136  0.0940
  181SLPC   O2220696   0.535   5.432  10.609 -0.2047  0.3963  0.3901
  181SLPC   C2220697   0.725   5.400  10.460 -0.5694  0.9595  0.3956
  181SLPC   H2R20698   0.831   5.428  10.477 -0.5074  1.1002 -0.1871
  181SLPC   H2S20699   0.724   5.292  10.433 -2.8508  1.0777 -0.1518
  181SLPC    C320700   0.819   5.360  10.914 -0.1928 -0.2878  0.5384
  181SLPC    HX20701   0.788   5.368  11.020  0.0899 -1.1435  0.6878
  181SLPC    HY20702   0.856   5.460  10.882  1.8340 -0.9097  0.8802
  181SLPC   O3120703   0.906   5.248  10.882 -0.3479 -0.1001  0.4932
  181SLPC   C3120704   1.007   5.272  10.797  0.4962  0.2740 -0.3682
  181SLPC   O3220705   1.048   5.382  10.766 -0.5285  0.0690 -0.1352
  181SLPC   C3220706   1.055   5.135  10.745 -0.5050  0.5200 -0.1437
  181SLPC   H2X20707   0.961   5.081  10.719 -0.3155 -0.6428  1.4992
  181SLPC   H2Y20708   1.098   5.073  10.826 -3.4660 -4.8048 -2.4048
  181SLPC   C2320709   0.664   5.486  10.350 -0.7796  0.7222  0.3139
  181SLPC   H3R20710   0.640   5.587  10.390  0.9523  1.5673 -0.7169
  181SLPC   H3S20711   0.569   5.438  10.320 -0.7178  2.0752 -2.1077
  181SLPC   C2420712   0.750   5.507  10.229  1.1311 -0.0631 -0.0070
  181SLPC   H4R20713   0.792   5.408  10.205  2.6461  0.5547  0.0341
  181SLPC   H4S20714   0.837   5.558  10.276  0.2437 -1.6969  3.5439
  181SLPC   C2520715   0.688   5.581  10.116  0.0219  0.5375 -0.3501
  181SLPC   H5R20716   0.673   5.690  10.126 -0.1899  0.4714  0.0881
  181SLPC   H5S20717   0.588   5.533  10.115  0.6970 -0.9181  0.2133
  181SLPC   C2620718   0.756   5.545   9.981  0.7436  0.7526 -0.8794
  181SLPC   H6R20719   0.732   5.440   9.954  0.2416  0.6541 -0.0883
  181SLPC   H6S20720   0.865   5.541  10.003  0.5099  1.8188  0.6129
  181SLPC   C2720721   0.723   5.622   9.852  0.4087  0.1835  0.1746
  181SLPC   H7R20722   0.750   5.725   9.882  0.3380  0.2777 -0.0861
  181SLPC   H7S20723   0.615   5.622   9.826 -0.4313  1.6938  3.4327
  181SLPC   C2820724   0.800   5.583   9.725  0.1993  0.2078 -0.0774
  181SLPC   H8R20725   0.746   5.627   9.639  0.6800 -3.3194 -2.2731
  181SLPC   H8S20726   0.791   5.474   9.703  0.0687  0.4509 -1.2532
  181SLPC   C2920727   0.948   5.618   9.729  0.0933  0.2742  0.6124
  181SLPC   H9R20728   1.007   5.578   9.813 -0.5907 -4.1900 -0.8592
  181SLPC  C21020729   1.016   5.707   9.649  0.0579 -1.0077  0.0973
  181SLPC  H10R20730   1.120   5.734   9.676 -0.7343  0.8358  1.3973
  181SLPC  C21120731   0.961   5.786   9.537  0.6969  0.3196 -0.2862
  181SLPC  H11R20732   0.872   5.840   9.577 -0.1794 -0.6297 -0.9296
  181SLPC  H11S20733   0.937   5.710   9.459  1.2766  1.9506 -2.0902
  181SLPC  C21220734   1.054   5.886   9.470  0.1346  0.2762 -0.1518
  181SLPC  H12R20735   1.158   5.884   9.505  0.4634 -1.1334 -1.1854
  181SLPC  C21320736   1.029   5.972   9.376 -0.7412 -0.5135 -0.3347
  181SLPC  H13R20737   1.105   6.039   9.333 -0.0826  0.5737  2.3858
  181SLPC  C21420738   0.892   5.977   9.305  0.6570  0.5532 -0.0026
  181SLPC  H14R20739   0.811   6.012   9.373  1.5184 -0.4420  1.5783
  181SLPC  H14S20740   0.856   5.879   9.267  1.8185  0.9613 -2.2655
  181SLPC  C21520741   0.893   6.079   9.195 -0.4152  0.1524 -0.3973
  181SLPC  H15R20742   0.969   6.056   9.117  1.2648 -0.5732  1.4141
  181SLPC  H15S20743   0.911   6.180   9.239 -2.6389  0.2179  0.4339
  181SLPC  C21620744   0.757   6.087   9.124 -0.7061 -0.0205  0.2938
  181SLPC  H16R20745   0.714   5.986   9.110 -0.5965 -0.1691  0.9918
  181SLPC  H16S20746   0.767   6.148   9.032 -0.2262  0.4826  0.6755
  181SLPC  C21720747   0.651   6.166   9.198  1.0173  0.2513 -0.9912
  181SLPC  H17R20748   0.701   6.260   9.229 -2.7177  1.5931  1.2931
  181SLPC  H17S20749   0.608   6.113   9.286 -1.1114  0.7153 -1.7326
  181SLPC  C21820750   0.523   6.209   9.115  0.0327  0.2467  0.7478
  181SLPC  H18R20751   0.488   6.128   9.048 -0.3471  0.6423  0.4687
  181SLPC  H18S20752   0.539   6.301   9.056 -0.9517  1.3254  2.1260
  181SLPC  H18T20753   0.442   6.236   9.186  0.0450 -1.7936  1.5805
  181SLPC   C3320754   1.152   5.143  10.622 -0.0676  0.1900 -0.0996
  181SLPC   H3X20755   1.248   5.182  10.660  0.1865 -0.6576  0.1506
  181SLPC   H3Y20756   1.117   5.224  10.555 -0.3025  0.9685  0.9686
  181SLPC   C3420757   1.173   5.005  10.552 -0.2366 -0.0687 -0.5670
  181SLPC   H4X20758   1.199   4.933  10.632  2.8971  0.2432 -1.2557
  181SLPC   H4Y20759   1.263   5.015  10.488  0.8430 -2.5120  0.5140
  181SLPC   C3520760   1.056   4.964  10.469  0.0473 -0.2946 -0.3867
  181SLPC   H5X20761   1.016   5.056  10.422 -0.7013 -0.6154 -0.3795
  181SLPC   H5Y20762   0.983   4.919  10.540  0.2820 -0.6678 -0.3830
  181SLPC   C3620763   1.089   4.863  10.359  0.0769  0.1363  0.3530
  181SLPC   H6X20764   0.996   4.826  10.310  0.8912 -1.6097  0.1152
  181SLPC   H6Y20765   1.140   4.771  10.394 -0.0928  0.3011  1.0390
  181SLPC   C3720766   1.180   4.928  10.251  0.0240 -0.3269 -0.1402
  181SLPC   H7X20767   1.275   4.955  10.302  0.4210 -3.3603  0.7822
  181SLPC   H7Y20768   1.120   5.011  10.208 -1.6762 -0.4531  1.9449
  181SLPC   C3820769   1.207   4.827  10.136  0.3288 -0.0522 -0.1936
  181SLPC   H8X20770   1.132   4.746  10.125 -0.4504  0.8083 -1.3656
  181SLPC   H8Y20771   1.306   4.782  10.160  0.3231 -0.0482 -0.1621
  181SLPC   C3920772   1.223   4.893   9.994 -0.1861 -0.4502 -0.4773
  181SLPC   H9X20773   1.302   4.970   9.993  0.6635 -1.1978  2.7296
  181SLPC   H9Y20774   1.127   4.946   9.979  0.1596  0.1509 -0.5671
  181SLPC  C31020775   1.225   4.791   9.879  0.8747  0.0393  0.4713
  181SLPC  H10X20776   1.133   4.729   9.881 -0.1354  1.4557 -0.6565
  181SLPC  H10Y20777   1.309   4.727   9.912  0.2256 -2.1396 -2.0338
  181SLPC  C31120778   1.251   4.836   9.737 -0.8387 -0.2873 -0.8589
  181SLPC  H11X20779   1.359   4.857   9.725 -0.5922  0.0742  1.7439
  181SLPC  H11Y20780   1.203   4.933   9.713  1.6213  1.1751 -0.0162
  181SLPC  C31220781   1.204   4.730   9.641  0.2105 -0.0311  0.1556
  181SLPC  H12X20782   1.094   4.718   9.653  0.2492 -0.0942  0.4571
  181SLPC  H12Y20783   1.267   4.638   9.643  0.5855  0.2444  1.0848
  181SLPC  C31320784   1.234   4.778   9.492  0.8911 -0.1958 -0.2896
  181SLPC  H13X20785   1.342   4.796   9.476  1.3117 -2.6852 -0.3379
  181SLPC  H13Y20786   1.189   4.879   9.480 -3.5001 -2.2107 -1.6793
  181SLPC  C31420787   1.189   4.687   9.379 -0.6697  0.3706  0.0810
  181SLPC  H14X20788   1.079   4.670   9.381 -0.3153 -2.0461  0.4686
  181SLPC  H14Y20789   1.233   4.589   9.404 -0.7648  0.3195  0.0470
  181SLPC  C31520790   1.249   4.715   9.238  0.0439 -0.5141 -0.2388
  181SLPC  H15X20791   1.357   4.695   9.253 -0.4276 -2.9393  0.1727
  181SLPC  H15Y20792   1.228   4.821   9.213 -2.4829 -0.8547  0.2422
  181SLPC  C31620793   1.192   4.631   9.123  0.3302 -0.0098  0.3986
  181SLPC  H16X20794   1.085   4.600   9.125  0.2548  0.1772 -0.5107
  181SLPC  H16Y20795   1.235   4.535   9.155 -1.1772 -1.6101 -2.1762
  181SLPC  C31720796   1.233   4.680   8.983  0.0007  0.1474 -1.0123
  181SLPC  H17X20797   1.338   4.652   8.961 -1.1501 -2.9613 -2.8670
  181SLPC  H17Y20798   1.223   4.791   8.979 -0.6778  0.1548  0.5714
  181SLPC  C31820799   1.147   4.612   8.877 -0.5066  0.0705  0.5970
  181SLPC  H18X20800   1.183   4.651   8.780  1.8845  1.1135  1.8434
  181SLPC  H18Y20801   1.040   4.634   8.896 -0.6106 -1.9392  2.5897
  181SLPC  H18Z20802   1.179   4.506   8.873 -0.4425  0.0724  0.9892
  182SLPC     N20803   0.069   6.513  11.307  0.3123  0.3004 -0.2325
  182SLPC   C1320804  -0.078   6.512  11.347 -0.7534  0.1068  0.7691
  182SLPC  H13A20805  -0.103   6.424  11.406  1.1332 -1.5878 -0.8876
  182SLPC  H13B20806  -0.101   6.601  11.403  0.0098  1.2201 -0.6597
  182SLPC  H13C20807  -0.137   6.494  11.258  0.5023  1.6700 -0.3948
  182SLPC   C1420808   0.100   6.380  11.255 -0.0042  0.3825  0.3367
  182SLPC  H14A20809   0.021   6.349  11.189  1.1097 -0.1190 -0.7745
  182SLPC  H14B20810   0.192   6.367  11.200 -1.1755 -3.3835 -0.8300
  182SLPC  H14C20811   0.085   6.307  11.333 -0.3060 -0.0667 -0.1405
  182SLPC   C1520812   0.153   6.534  11.424 -0.1843 -0.6706 -0.6074
  182SLPC  H15A20813   0.150   6.452  11.495 -0.7197  0.8505  1.1745
  182SLPC  H15B20814   0.255   6.543  11.391 -0.1765 -3.7875 -1.6005
  182SLPC  H15C20815   0.122   6.622  11.479  1.1904  0.9142 -2.3287
  182SLPC   C1220816   0.097   6.615  11.200  1.0157 -0.3278  0.6803
  182SLPC  H12A20817   0.174   6.578  11.135  0.0798  0.2146 -0.7539
  182SLPC  H12B20818   0.121   6.711  11.245 -2.0822 -0.4387  2.7920
  182SLPC   C1120819  -0.020   6.626  11.094 -0.2018  0.5224 -0.7554
  182SLPC  H11A20820   0.004   6.693  11.008  0.6327  0.8264 -0.2966
  182SLPC  H11B20821  -0.097   6.679  11.153  0.7232  1.3041 -0.2278
  182SLPC     P20822  -0.133   6.497  10.907 -0.2057 -0.0879  0.0223
  182SLPC   O1320823  -0.030   6.511  10.795  0.6714 -0.8334  0.4297
  182SLPC   O1420824  -0.210   6.366  10.896  0.1376  0.3926 -0.1624
  182SLPC   O1220825  -0.066   6.498  11.043  0.0919 -0.1051 -0.5672
  182SLPC   O1120826  -0.232   6.615  10.926  0.8848 -0.2931  0.2179
  182SLPC    C120827  -0.366   6.618  10.871  0.0198 -0.3123  0.2519
  182SLPC    HA20828  -0.423   6.534  10.916 -0.0006  0.4770  1.7284
  182SLPC    HB20829  -0.425   6.707  10.901  2.8352  2.4735 -2.1209
  182SLPC    C220830  -0.383   6.617  10.716 -0.8411  0.2666  0.0874
  182SLPC    HS20831  -0.490   6.626  10.687 -0.5070  1.9273 -0.6448
  182SLPC   O2120832  -0.317   6.505  10.651 -0.1865 -0.0291  0.6961
  182SLPC   C2120833  -0.386   6.390  10.651  0.3865  0.2299  0.2814
  182SLPC   O2220834  -0.498   6.375  10.688  0.0202  0.5598  0.5219
  182SLPC   C2220835  -0.304   6.287  10.569 -0.6218  0.2833 -1.3382
  182SLPC   H2R20836  -0.225   6.338  10.509  1.9907  0.8362  2.3639
  182SLPC   H2S20837  -0.260   6.208  10.634  1.8248  0.7238 -2.3949
  182SLPC    C320838  -0.317   6.747  10.663  0.0168 -0.6849  0.2383
  182SLPC    HX20839  -0.207   6.738  10.666  0.0288 -1.1394 -1.0291
  182SLPC    HY20840  -0.342   6.829  10.733  1.6647  0.5164 -0.5459
  182SLPC   O3120841  -0.361   6.783  10.530  0.0794 -0.1859  0.1487
  182SLPC   C3120842  -0.290   6.728  10.430  1.1542 -1.4352  0.5284
  182SLPC   O3220843  -0.183   6.673  10.449 -0.0019 -0.1191 -0.6205
  182SLPC   C3220844  -0.350   6.749  10.297  0.3381 -0.7229 -0.3861
  182SLPC   H2X20845  -0.266   6.793  10.239  0.4402 -1.1562 -0.5628
  182SLPC   H2Y20846  -0.426   6.830  10.302  1.1456 -0.0122  0.7397
  182SLPC   C2320847  -0.400   6.221  10.471 -0.0179 -0.5203 -0.2720
  182SLPC   H3R20848  -0.472   6.288  10.418 -0.1382 -1.1602 -0.9297
  182SLPC   H3S20849  -0.469   6.155  10.529  0.5197 -0.6200  0.2647
  182SLPC   C2420850  -0.329   6.154  10.352  0.5150  0.6734  0.1873
  182SLPC   H4R20851  -0.259   6.073  10.383  0.9549 -0.1313 -2.7373
  182SLPC   H4S20852  -0.270   6.229  10.296  2.1804  0.2478  1.3590
  182SLPC   C2520853  -0.432   6.084  10.260  0.6083  0.2890  0.1919
  182SLPC   H5R20854  -0.525   6.144  10.264  1.1171  1.0784  0.2590
  182SLPC   H5S20855  -0.454   5.985  10.305 -1.8464  1.7330  2.2905
  182SLPC   C2620856  -0.372   6.073  10.107 -1.2128 -0.7283 -0.6248
  182SLPC   H6R20857  -0.426   5.993  10.051 -0.1758 -1.9383  0.0723
  182SLPC   H6S20858  -0.265   6.045  10.121 -1.2158 -0.1936  0.5440
  182SLPC   C2720859  -0.365   6.212  10.044  0.0879 -0.0284 -0.0869
  182SLPC   H7R20860  -0.276   6.273  10.071  1.3848 -2.0599  0.2895
  182SLPC   H7S20861  -0.450   6.278  10.073 -0.8845 -0.1141 -2.5941
  182SLPC   C2820862  -0.354   6.196   9.889  0.5385 -0.1598 -1.2727
  182SLPC   H8R20863  -0.261   6.138   9.872  0.9977 -0.0803  0.7681
  182SLPC   H8S20864  -0.331   6.296   9.846  1.8983 -0.4590 -1.2813
  182SLPC   C2920865  -0.476   6.133   9.821  0.2867 -0.0710  0.3848
  182SLPC   H9R20866  -0.554   6.112   9.895  0.9881  0.0199  1.1530
  182SLPC  C21020867  -0.498   6.126   9.694 -0.0574  0.5164  0.6108
  182SLPC  H10R20868  -0.596   6.085   9.663  0.3672 -1.4962  1.8283
  182SLPC  C21120869  -0.404   6.174   9.583 -0.1367  0.1065 -0.1253
  182SLPC  H11R20870  -0.348   6.262   9.620 -0.0602  0.4631 -1.0866
  182SLPC  H11S20871  -0.454   6.214   9.493 -0.5558 -0.5630 -0.1883
  182SLPC  C21220872  -0.301   6.067   9.558  0.3147  0.5005 -0.5777
  182SLPC  H12R20873  -0.229   6.055   9.641 -1.4379  1.7857  1.2033
  182SLPC  C21320874  -0.270   6.017   9.435 -0.9472  0.5103 -0.1305
  182SLPC  H13R20875  -0.190   5.942   9.421 -0.1245  1.6425 -1.5345
  182SLPC  C21420876  -0.346   6.046   9.310 -0.0492 -0.8047  0.4998
  182SLPC  H14R20877  -0.322   6.148   9.272  3.4651 -1.3402  1.0949
  182SLPC  H14S20878  -0.450   6.065   9.344  0.8818  1.2894  2.3844
  182SLPC  C21520879  -0.351   5.951   9.185 -0.4234  0.4053  0.2463
  182SLPC  H15R20880  -0.252   5.943   9.136  0.2079 -1.2483  1.7434
  182SLPC  H15S20881  -0.425   6.000   9.118 -2.1865 -3.4824 -0.8429
  182SLPC  C21620882  -0.411   5.811   9.224 -0.1601 -0.1712 -0.8613
  182SLPC  H16R20883  -0.512   5.835   9.262 -0.0195  0.8068 -1.0906
  182SLPC  H16S20884  -0.356   5.777   9.315  1.8298  0.0509 -1.9381
  182SLPC  C21720885  -0.417   5.697   9.124 -0.4111 -0.5768 -0.1240
  182SLPC  H17R20886  -0.317   5.677   9.080 -0.3777 -1.1635  0.2210
  182SLPC  H17S20887  -0.478   5.730   9.037 -0.5703  0.5243  0.3916
  182SLPC  C21820888  -0.480   5.565   9.180  0.2399 -0.0313 -0.0293
  182SLPC  H18R20889  -0.566   5.600   9.241  0.1142 -1.1308  0.4320
  182SLPC  H18S20890  -0.419   5.495   9.240  1.3533  1.3166  0.4501
  182SLPC  H18T20891  -0.516   5.499   9.099 -3.3106  1.1366  0.5182
  182SLPC   C3320892  -0.392   6.611  10.242  0.5614 -0.4738 -0.2372
  182SLPC   H3X20893  -0.480   6.580  10.302 -0.4518  1.1920 -0.8198
  182SLPC   H3Y20894  -0.309   6.538  10.253  1.2281  0.2150 -0.5907
  182SLPC   C3420895  -0.431   6.621  10.092 -0.4519 -0.0872  0.2693
  182SLPC   H4X20896  -0.480   6.718  10.072 -0.5923  0.1727  1.7739
  182SLPC   H4Y20897  -0.496   6.533  10.071  2.6154 -2.2797 -0.3505
  182SLPC   C3520898  -0.310   6.590  10.002  0.0196 -0.5573 -0.5618
  182SLPC   H5X20899  -0.299   6.481  10.015 -2.2276 -0.9307 -1.5623
  182SLPC   H5Y20900  -0.217   6.636  10.041  0.1846  0.1160 -1.7177
  182SLPC   C3620901  -0.343   6.614   9.856 -0.1027  0.4325  1.1316
  182SLPC   H6X20902  -0.354   6.716   9.814  1.7796 -1.1355 -3.4850
  182SLPC   H6Y20903  -0.441   6.571   9.827  1.6540 -0.3700 -4.1040
  182SLPC   C3720904  -0.246   6.551   9.755 -0.6380  0.2921 -0.3196
  182SLPC   H7X20905  -0.226   6.445   9.780 -2.2272  0.2718  0.9212
  182SLPC   H7Y20906  -0.150   6.607   9.764 -1.2870  1.8689 -2.7054
  182SLPC   C3820907  -0.286   6.564   9.610  1.0309 -0.1351 -0.3502
  182SLPC   H8X20908  -0.312   6.669   9.586  0.3882 -0.0795  0.5679
  182SLPC   H8Y20909  -0.381   6.506   9.612  2.2140 -2.1178  0.2832
  182SLPC   C3920910  -0.188   6.502   9.509 -0.6076  0.4654  0.4365
  182SLPC   H9X20911  -0.148   6.404   9.542 -1.6802 -0.0232  0.2928
  182SLPC   H9Y20912  -0.095   6.564   9.505  1.4296 -2.4757  0.7070
  182SLPC  C31020913  -0.244   6.487   9.360 -0.4384 -0.0752 -0.2577
  182SLPC  H10X20914  -0.266   6.589   9.321 -1.7674 -0.0697  0.4840
  182SLPC  H10Y20915  -0.341   6.433   9.351 -0.2539 -0.4830  0.2025
  182SLPC  C31120916  -0.137   6.415   9.273  0.0048 -0.1985 -0.3870
  182SLPC  H11X20917  -0.114   6.318   9.322  0.4094 -0.1422 -0.4594
  182SLPC  H11Y20918  -0.040   6.470   9.269 -1.4724  2.8810  3.0694
  182SLPC  C31220919  -0.185   6.412   9.128  0.8548 -0.0871 -0.3223
  182SLPC  H12X20920  -0.159   6.512   9.086  0.7808 -0.6908 -1.8120
  182SLPC  H12Y20921  -0.295   6.397   9.124  0.7197  0.9517 -0.7444
  182SLPC  C31320922  -0.131   6.299   9.041  0.2179 -0.1706 -0.3405
  182SLPC  H13X20923  -0.146   6.203   9.094  1.5902 -1.3581 -2.0330
  182SLPC  H13Y20924  -0.022   6.318   9.038 -0.0217  1.1493 -1.4006
  182SLPC  C31420925  -0.170   6.298   8.889 -0.0911 -0.9965 -0.3322
  182SLPC  H14X20926  -0.280   6.282   8.886 -0.3528  0.8590 -2.2463
  182SLPC  H14Y20927  -0.119   6.214   8.836 -0.8649 -2.2977  0.9695
  182SLPC  C31520928  -0.152   6.436   8.820 -0.4781  0.5096  0.3593
  182SLPC  H15X20929  -0.225   6.513   8.853 -1.1468  1.3594 -2.8986
  182SLPC  H15Y20930  -0.161   6.423   8.710  1.2520  1.4221  0.0956
  182SLPC  C31620931  -0.012   6.502   8.834  0.4726  0.1322 -0.1817
  182SLPC  H16X20932   0.073   6.435   8.811  0.6799  0.9254 -1.8419
  182SLPC  H16Y20933   0.006   6.523   8.941  0.2120 -0.3954 -0.0296
  182SLPC  C31720934   0.005   6.632   8.753  0.1214 -0.4640 -0.6736
  182SLPC  H17X20935  -0.078   6.701   8.777  1.3723  1.3078 -1.4020
  182SLPC  H17Y20936   0.002   6.604   8.646 -1.1151 -2.9529 -0.0381
  182SLPC  C31820937   0.129   6.711   8.792  0.0054  0.1378  0.4743
  182SLPC  H18X20938   0.223   6.655   8.769 -0.8053 -0.4847 -1.4689
  182SLPC  H18Y20939   0.137   6.745   8.897  3.0177  0.9312  0.0413
  182SLPC  H18Z20940   0.146   6.799   8.726 -0.3120  0.8124  1.2837
  183SLPC     N20941   0.473   0.490  10.910 -0.3308  0.5497 -0.1526
  183SLPC   C1320942   0.536   0.392  11.016  0.8639 -0.3424  0.4759
  183SLPC  H13A20943   0.565   0.299  10.968  1.8021 -0.5867  1.4972
  183SLPC  H13B20944   0.625   0.440  11.053  1.3793  2.0123 -3.5379
  183SLPC  H13C20945   0.465   0.363  11.092 -0.8971 -0.2055 -1.0789
  183SLPC   C1420946   0.389   0.591  10.976 -0.2391  0.4952 -0.0428
  183SLPC  H14A20947   0.447   0.656  11.039  0.1909 -0.8322  0.9702
  183SLPC  H14B20948   0.329   0.640  10.902 -1.3889 -1.2949 -0.3379
  183SLPC  H14C20949   0.318   0.547  11.045 -0.1923 -0.3234 -0.5085
  183SLPC   C1520950   0.383   0.405  10.835  0.7896 -0.4130  0.4108
  183SLPC  H15A20951   0.435   0.325  10.784  0.2709 -1.2606  1.2047
  183SLPC  H15B20952   0.296   0.365  10.886 -0.4994  0.4662 -1.0602
  183SLPC  H15C20953   0.339   0.465  10.757 -2.6355 -1.0094  1.8079
  183SLPC   C1220954   0.573   0.562  10.823  0.0088 -0.3086 -0.9225
  183SLPC  H12A20955   0.615   0.637  10.888 -2.4800  0.8454 -0.5753
  183SLPC  H12B20956   0.518   0.603  10.740 -0.0819 -0.3903 -0.9026
  183SLPC   C1120957   0.696   0.471  10.768  0.8572 -0.5001 -0.2173
  183SLPC  H11A20958   0.746   0.537  10.694  0.7861 -0.6171 -0.3691
  183SLPC  H11B20959   0.643   0.385  10.722  1.7232 -1.2633  0.1992
  183SLPC     P20960   0.881   0.512  10.941 -0.3028  0.3197  0.2430
  183SLPC   O1320961   0.805   0.603  11.029  0.1016 -0.5002 -0.0665
  183SLPC   O1420962   0.989   0.430  11.003  0.3681  0.0027  0.1018
  183SLPC   O1220963   0.790   0.416  10.860  0.7856  0.3779 -0.5411
  183SLPC   O1120964   0.955   0.598  10.828  0.3470 -0.5011  0.6200
  183SLPC    C120965   1.060   0.538  10.754 -1.4834  0.1331 -0.6870
  183SLPC    HA20966   1.160   0.578  10.781 -1.8577  1.2444 -0.9209
  183SLPC    HB20967   1.062   0.428  10.770  1.1347  0.1789 -0.4884
  183SLPC    C220968   1.040   0.583  10.609  0.3126 -0.2391 -0.1413
  183SLPC    HS20969   0.934   0.614  10.600  0.2139 -0.2398  0.9193
  183SLPC   O2120970   1.067   0.472  10.522 -0.1499  0.1013  0.7289
  183SLPC   C2120971   0.995   0.446  10.420  0.5761 -0.1842  0.2102
  183SLPC   O2220972   0.903   0.514  10.376 -0.3784  0.0581 -0.0652
  183SLPC   C2220973   1.043   0.320  10.359 -0.0665  0.4189  0.2292
  183SLPC   H2R20974   1.153   0.328  10.349 -0.1609 -0.9228 -2.1948
  183SLPC   H2S20975   1.024   0.241  10.435 -1.6926  1.2826  0.7608
  183SLPC    C320976   1.134   0.696  10.577 -0.7544 -0.0518 -0.8260
  183SLPC    HX20977   1.240   0.666  10.593  0.0769  2.1116 -2.0010
  183SLPC    HY20978   1.126   0.777  10.653  1.3304  0.0237 -0.6582
  183SLPC   O3120979   1.110   0.765  10.447  0.0289  0.4209  0.1318
  183SLPC   C3120980   1.189   0.722  10.351  0.3103  0.8841  0.0259
  183SLPC   O3220981   1.272   0.635  10.359 -0.2900 -0.5685 -0.1682
  183SLPC   C3220982   1.166   0.805  10.222  0.3478 -0.5736  1.3415
  183SLPC   H2X20983   1.253   0.871  10.201 -1.6681  1.3642 -1.3161
  183SLPC   H2Y20984   1.082   0.878  10.235 -0.3188 -1.0048 -0.3962
  183SLPC   C2320985   0.974   0.274  10.227  0.0963  0.4032 -0.1423
  183SLPC   H3R20986   0.863   0.275  10.227  0.0380  2.3354 -3.7147
  183SLPC   H3S20987   1.016   0.173  10.208  0.3394  0.8880 -2.3126
  183SLPC   C2420988   1.032   0.356  10.113 -0.3558  0.5367  0.2221
  183SLPC   H4R20989   1.142   0.358  10.100 -0.1072  0.1622  2.1007
  183SLPC   H4S20990   1.006   0.460  10.143 -0.3245  0.2535  1.2659
  183SLPC   C2520991   0.956   0.324   9.983  0.1399  0.4561 -0.6345
  183SLPC   H5R20992   0.923   0.412   9.923  2.1949  2.6239  1.3089
  183SLPC   H5S20993   0.860   0.277  10.014  0.1941 -0.0521 -1.2391
  183SLPC   C2620994   1.031   0.247   9.882 -0.0379 -0.2378  0.7854
  183SLPC   H6R20995   1.060   0.147   9.922  2.3732 -1.5225 -3.7620
  183SLPC   H6S20996   1.135   0.283   9.864 -0.2607 -0.3618 -0.8092
  183SLPC   C2720997   0.951   0.229   9.758 -0.3319  0.9772  0.3233
  183SLPC   H7R20998   0.962   0.312   9.685  0.8320  0.6100  0.0776
  183SLPC   H7S20999   0.851   0.203   9.799 -0.3571  2.5401  1.3161
  183SLPC   C2821000   1.004   0.105   9.677  0.0501  0.1387  0.5803
  183SLPC   H8R21001   0.984   0.009   9.729  0.1356 -0.5582 -0.6597
  183SLPC   H8S21002   1.115   0.103   9.674  0.0567  0.6654  0.3865
  183SLPC   C2921003   0.944   0.104   9.534  0.2013 -0.0340 -0.6701
  183SLPC   H9R21004   0.848   0.158   9.530  0.4197  0.6243  2.2787
  183SLPC  C21021005   0.986   0.062   9.410  0.4159 -0.2955  0.8548
  183SLPC  H10R21006   0.914   0.078   9.328  0.5284  2.1957  1.2255
  183SLPC  C21121007   1.107  -0.016   9.358 -0.7038  0.4013  0.2955
  183SLPC  H11R21008   1.120  -0.113   9.410 -0.4199  0.1180 -0.2982
  183SLPC  H11S21009   1.198   0.041   9.387  1.4852 -3.1145  0.5304
  183SLPC  C21221010   1.118  -0.040   9.211 -0.1854 -0.0430  0.2509
  183SLPC  H12R21011   1.171   0.035   9.151 -0.1104  0.2506  0.6783
  183SLPC  C21321012   1.074  -0.142   9.135  0.3621 -0.1173  0.4163
  183SLPC  H13R21013   1.099  -0.143   9.028  0.4421 -0.2146  0.4349
  183SLPC  C21421014   0.990  -0.254   9.193 -0.6148  0.6285 -0.2824
  183SLPC  H14R21015   0.971  -0.228   9.300 -0.7453  2.3539 -0.7264
  183SLPC  H14S21016   1.051  -0.346   9.200 -0.2313  0.6437 -3.1401
  183SLPC  C21521017   0.852  -0.274   9.120  0.0502 -0.0159 -0.3686
  183SLPC  H15R21018   0.812  -0.376   9.136 -2.8230  0.9738 -1.0063
  183SLPC  H15S21019   0.841  -0.249   9.013  1.1364  0.1703 -0.4373
  183SLPC  C21621020   0.749  -0.178   9.169  0.3100  0.8988 -0.2012
  183SLPC  H16R21021   0.760  -0.072   9.138 -0.7882  0.5542 -1.8164
  183SLPC  H16S21022   0.750  -0.181   9.280 -0.0207  1.4228 -0.1827
  183SLPC  C21721023   0.603  -0.216   9.122  0.1765  0.2281  0.1212
  183SLPC  H17R21024   0.534  -0.135   9.154 -0.2837  0.4543 -1.3914
  183SLPC  H17S21025   0.562  -0.305   9.173 -2.5205  0.3721 -1.6946
  183SLPC  C21821026   0.588  -0.237   8.972  0.5677 -0.1455 -0.0355
  183SLPC  H18R21027   0.486  -0.262   8.935  1.0259  1.1923 -2.3389
  183SLPC  H18S21028   0.645  -0.327   8.940  1.1654  0.1211  0.2691
  183SLPC  H18T21029   0.623  -0.146   8.918 -0.4376  0.5056  0.3971
  183SLPC   C3321030   1.140   0.716  10.103 -0.0663  0.4586 -0.1227
  183SLPC   H3X21031   1.033   0.691  10.116  0.4914 -0.2803  3.5656
  183SLPC   H3Y21032   1.186   0.617  10.123  0.3954  0.0893 -2.8720
  183SLPC   C3421033   1.186   0.760   9.968  0.0636  0.5583 -0.4231
  183SLPC   H4X21034   1.289   0.800   9.967  0.2194  0.3172  2.6298
  183SLPC   H4Y21035   1.122   0.844   9.932  3.8239  3.0256 -1.6880
  183SLPC   C3521036   1.157   0.653   9.869 -0.1072  0.1235  0.1698
  183SLPC   H5X21037   1.048   0.634   9.871  0.0176 -0.5900  0.1878
  183SLPC   H5Y21038   1.209   0.556   9.888  0.4448  0.4747  0.4784
  183SLPC   C3621039   1.203   0.689   9.728 -0.4504  0.5108 -0.7943
  183SLPC   H6X21040   1.307   0.728   9.718 -0.3209  0.6793  1.0635
  183SLPC   H6Y21041   1.139   0.770   9.687 -1.2417 -0.2230 -1.0108
  183SLPC   C3721042   1.185   0.578   9.627  0.0288  0.2453 -0.1294
  183SLPC   H7X21043   1.194   0.618   9.524 -3.0423  0.1855 -0.4680
  183SLPC   H7Y21044   1.088   0.525   9.639  1.5577 -2.4037  1.0758
  183SLPC   C3821045   1.285   0.455   9.635 -0.2215  0.4589 -0.8563
  183SLPC   H8X21046   1.256   0.407   9.731 -0.5483  0.6914 -0.8377
  183SLPC   H8Y21047   1.384   0.507   9.633  0.7757 -1.3970 -0.7092
  183SLPC   C3921048   1.272   0.351   9.526 -0.4151 -0.5372  0.3970
  183SLPC   H9X21049   1.167   0.320   9.508 -0.7273  0.4986  0.4063
  183SLPC   H9Y21050   1.306   0.256   9.571 -0.8458 -1.8312 -1.9300
  183SLPC  C31021051   1.329   0.381   9.387 -0.7033  0.6111  0.0554
  183SLPC  H10X21052   1.435   0.405   9.411 -1.0793  1.5803  0.8054
  183SLPC  H10Y21053   1.284   0.478   9.356  0.5417  1.8898  2.0813
  183SLPC  C31121054   1.327   0.265   9.280  0.0845  0.1795 -1.0173
  183SLPC  H11X21055   1.221   0.239   9.256 -0.4730  1.3113  0.1265
  183SLPC  H11Y21056   1.376   0.173   9.318 -1.0462 -0.3415 -0.7863
  183SLPC  C31221057   1.391   0.302   9.144  0.5409 -0.0491  0.1486
  183SLPC  H12X21058   1.493   0.343   9.162  0.6814 -0.6118  0.6735
  183SLPC  H12Y21059   1.337   0.390   9.104  1.6582  0.9538  0.8188
  183SLPC  C31321060   1.386   0.195   9.039 -0.6374 -0.0158  0.8051
  183SLPC  H13X21061   1.422   0.239   8.943 -0.1289 -0.8452  0.6038
  183SLPC  H13Y21062   1.280   0.164   9.028 -0.4600  0.0727 -1.4063
  183SLPC  C31421063   1.485   0.082   9.059  0.2149  0.5289 -0.5913
  183SLPC  H14X21064   1.462   0.023   9.150  1.1749 -1.3022 -1.5099
  183SLPC  H14Y21065   1.591   0.115   9.072  1.0088 -2.6975  1.7603
  183SLPC  C31521066   1.475  -0.021   8.945 -0.1335 -0.6390 -0.1878
  183SLPC  H15X21067   1.466   0.043   8.854 -1.1163  0.2621  0.5356
  183SLPC  H15Y21068   1.379  -0.077   8.954 -0.4980  0.0254  0.1010
  183SLPC  C31621069   1.589  -0.125   8.945  0.6431  0.4141  0.0907
  183SLPC  H16X21070   1.584  -0.179   9.042  2.4486  2.8566  1.6085
  183SLPC  H16Y21071   1.683  -0.066   8.945  0.0491  1.5268  3.7822
  183SLPC  C31721072   1.589  -0.230   8.830 -0.2300  0.5627 -0.2536
  183SLPC  H17X21073   1.670  -0.207   8.757  1.1117 -1.0230  0.6924
  183SLPC  H17Y21074   1.495  -0.216   8.772 -1.0545  0.9461  1.1451
  183SLPC  C31821075   1.582  -0.376   8.867 -0.3387  0.4769 -0.3937
  183SLPC  H18X21076   1.494  -0.390   8.934 -1.3409  0.1300 -1.7637
  183SLPC  H18Y21077   1.675  -0.403   8.921 -1.1725  0.8237  1.2305
  183SLPC  H18Z21078   1.570  -0.437   8.775  2.2453 -0.1343 -0.3478
  184SLPC     N21079   3.072   4.219  10.900  0.1066  0.0854  0.3490
  184SLPC   C1321080   3.191   4.264  10.983  0.1242 -0.5748 -0.4964
  184SLPC  H13A21081   3.168   4.254  11.088  1.4106  2.3249  0.1365
  184SLPC  H13B21082   3.284   4.210  10.968  0.4307 -0.3417  0.4965
  184SLPC  H13C21083   3.211   4.370  10.973  1.3789 -0.7844 -0.2820
  184SLPC   C1421084   2.941   4.263  10.961 -0.2048 -0.4606  0.5539
  184SLPC  H14A21085   2.931   4.370  10.950  1.0286 -0.3326  0.5855
  184SLPC  H14B21086   2.860   4.217  10.905 -0.1819  0.4195 -0.2098
  184SLPC  H14C21087   2.937   4.238  11.066  1.5498 -0.7838  0.5629
  184SLPC   C1521088   3.071   4.070  10.881 -0.7850 -0.2600 -0.4662
  184SLPC  H15A21089   3.167   4.034  10.846  0.0238  0.5555  0.8857
  184SLPC  H15B21090   3.053   4.021  10.975  1.3758  0.9589  0.6202
  184SLPC  H15C21091   2.998   4.041  10.806 -2.3315 -2.0796  1.6858
  184SLPC   C1221092   3.090   4.272  10.761  0.3932 -0.2965 -0.1217
  184SLPC  H12A21093   3.025   4.216  10.696 -2.7100  3.1631 -0.1110
  184SLPC  H12B21094   3.188   4.243  10.727  0.2778  0.9572 -1.5412
  184SLPC   C1121095   3.064   4.424  10.723  0.3131  0.2688  0.0569
  184SLPC  H11A21096   3.103   4.436  10.620 -0.4212  0.5330 -0.1927
  184SLPC  H11B21097   3.131   4.488  10.783  0.9895  0.9876 -1.4551
  184SLPC     P21098   2.811   4.401  10.650  0.1771 -0.0236  0.1558
  184SLPC   O1321099   2.788   4.258  10.677 -0.1460  0.1030 -0.2072
  184SLPC   O1421100   2.688   4.489  10.654 -0.3822  0.3567 -0.1313
  184SLPC   O1221101   2.928   4.460  10.743  0.5746  0.2563  0.0065
  184SLPC   O1121102   2.876   4.406  10.504 -0.0925 -0.6780 -0.0089
  184SLPC    C121103   2.850   4.517  10.419  0.1867  0.5459  0.2769
  184SLPC    HA21104   2.797   4.487  10.326 -0.9365  0.1165  1.0339
  184SLPC    HB21105   2.796   4.600  10.470  1.6942  1.3348  0.6184
  184SLPC    C221106   2.975   4.585  10.364  0.8038  0.1209 -0.3344
  184SLPC    HS21107   3.035   4.621  10.449 -3.0064  2.1060  1.6499
  184SLPC   O2121108   2.925   4.695  10.286 -0.1042 -0.0644  0.1089
  184SLPC   C2121109   3.017   4.773  10.238 -0.4432 -0.4832 -0.0805
  184SLPC   O2221110   3.139   4.770  10.252 -0.3069  0.0192 -0.6510
  184SLPC   C2221111   2.952   4.883  10.155  0.0407  0.1579 -0.2064
  184SLPC   H2R21112   2.873   4.937  10.212  1.4275  4.1459 -1.8507
  184SLPC   H2S21113   3.027   4.957  10.121  0.1509 -1.2219 -3.0731
  184SLPC    C321114   3.065   4.483  10.287  0.2376 -0.4955 -1.0036
  184SLPC    HX21115   3.098   4.403  10.357  0.6603  0.7381  0.2214
  184SLPC    HY21116   3.161   4.531  10.258  0.2028  0.0537 -0.2207
  184SLPC   O3121117   3.011   4.437  10.160 -1.2446  0.1100  0.6409
  184SLPC   C3121118   2.951   4.319  10.172 -0.2045  0.0394  0.4935
  184SLPC   O3221119   2.958   4.241  10.263 -0.2530  0.4929  0.5494
  184SLPC   C3221120   2.887   4.281  10.041  0.2971 -0.4402  0.0911
  184SLPC   H2X21121   2.849   4.177  10.053 -0.4493 -0.5375 -2.7176
  184SLPC   H2Y21122   2.973   4.290   9.971  1.2143  0.0588  1.2720
  184SLPC   C2321123   2.890   4.828  10.027  0.0065 -0.5604  0.1068
  184SLPC   H3R21124   2.881   4.914   9.957  0.5920  0.1880  0.9411
  184SLPC   H3S21125   2.790   4.786  10.051 -0.3323  1.6745  2.9697
  184SLPC   C2421126   2.976   4.721   9.951 -0.6256 -0.4419  0.2959
  184SLPC   H4R21127   2.951   4.627  10.004 -1.3128  0.0615  0.8800
  184SLPC   H4S21128   3.085   4.741   9.960 -0.4636  1.5187 -4.5946
  184SLPC   C2521129   2.945   4.693   9.800  0.3491  0.1504  0.0495
  184SLPC   H5R21130   2.970   4.781   9.737 -2.6989  0.2742 -1.0718
  184SLPC   H5S21131   2.834   4.689   9.790  0.3866  0.6714 -0.6182
  184SLPC   C2621132   3.003   4.558   9.751 -0.3639 -0.0597 -0.2825
  184SLPC   H6R21133   2.975   4.477   9.821 -1.3098  0.4418 -0.0671
  184SLPC   H6S21134   3.114   4.553   9.748 -0.4486 -2.2595 -0.3717
  184SLPC   C2721135   2.945   4.515   9.614  0.0153 -0.1663 -0.0097
  184SLPC   H7R21136   2.836   4.497   9.629  0.3964 -0.9433  2.1358
  184SLPC   H7S21137   2.990   4.415   9.594 -0.1086 -0.0132 -1.0467
  184SLPC   C2821138   2.983   4.601   9.499 -0.1830  0.1387  0.0757
  184SLPC   H8R21139   3.009   4.708   9.518  1.4226 -0.1086 -0.6703
  184SLPC   H8S21140   2.901   4.590   9.425  1.2097  0.7312 -1.5636
  184SLPC   C2921141   3.107   4.557   9.429 -0.7103  0.0984  0.3804
  184SLPC   H9R21142   3.187   4.529   9.499  2.4480 -1.3026 -3.6118
  184SLPC  C21021143   3.153   4.560   9.302  1.0615  0.6679  0.0501
  184SLPC  H10R21144   3.254   4.519   9.289  0.6868  0.1891 -1.5384
  184SLPC  C21121145   3.076   4.601   9.178  0.0145  0.0653  0.0542
  184SLPC  H11R21146   2.979   4.546   9.178 -0.1549  0.3649 -0.3397
  184SLPC  H11S21147   3.118   4.551   9.088 -0.1531 -1.5488  0.8425
  184SLPC  C21221148   3.071   4.749   9.168 -0.0458  0.2901 -0.2912
  184SLPC  H12R21149   2.997   4.792   9.237 -0.0738 -2.9714  1.7827
  184SLPC  C21321150   3.118   4.829   9.073  1.3192 -0.2268 -0.1130
  184SLPC  H13R21151   3.110   4.938   9.087 -2.5812  0.1245 -4.0587
  184SLPC  C21421152   3.187   4.794   8.947  0.3359  0.1535 -0.5975
  184SLPC  H14R21153   3.234   4.693   8.950  0.7434  0.3235 -1.1441
  184SLPC  H14S21154   3.273   4.864   8.948 -0.1594  0.7744  2.1062
  184SLPC  C21521155   3.113   4.803   8.809 -0.4544 -0.3922  0.2447
  184SLPC  H15R21156   3.195   4.792   8.734 -0.5673  2.1064 -0.2890
  184SLPC  H15S21157   3.062   4.902   8.804  0.1538 -0.0336  1.0243
  184SLPC  C21621158   3.009   4.683   8.799  0.0610 -0.3162 -0.8157
  184SLPC  H16R21159   2.950   4.696   8.893 -3.3317  0.9927 -3.0266
  184SLPC  H16S21160   3.059   4.586   8.818  0.6170  0.0795 -0.2152
  184SLPC  C21721161   2.924   4.680   8.670  0.2082  0.2121  0.0446
  184SLPC  H17R21162   2.872   4.777   8.663 -0.6124 -0.3796 -2.6087
  184SLPC  H17S21163   2.853   4.597   8.689  1.1681 -0.7206 -0.3591
  184SLPC  C21821164   3.006   4.650   8.543 -0.5136 -0.2276  0.0368
  184SLPC  H18R21165   3.024   4.747   8.491 -2.1198 -0.0828 -0.2611
  184SLPC  H18S21166   2.962   4.576   8.473 -1.2189  1.3665 -1.2681
  184SLPC  H18T21167   3.112   4.621   8.560  0.6123  2.0209 -2.6844
  184SLPC   C3321168   2.768   4.370   9.982  0.2897 -0.1302  0.5793
  184SLPC   H3X21169   2.797   4.476   9.963  2.1868 -0.7845 -0.3324
  184SLPC   H3Y21170   2.685   4.359  10.054 -0.3855 -1.7313 -0.4174
  184SLPC   C3421171   2.695   4.319   9.857 -0.4622  0.7522  0.3480
  184SLPC   H4X21172   2.650   4.218   9.868  0.6780  0.4175  2.0112
  184SLPC   H4Y21173   2.770   4.313   9.775  0.3045 -0.9172  1.1679
  184SLPC   C3521174   2.586   4.416   9.815  0.5308 -0.2856 -0.4033
  184SLPC   H5X21175   2.639   4.510   9.786 -2.4083  1.3423 -0.6801
  184SLPC   H5Y21176   2.515   4.437   9.897  2.2265 -1.0211  1.2861
  184SLPC   C3621177   2.498   4.365   9.699  0.3123 -0.1993 -0.1852
  184SLPC   H6X21178   2.415   4.302   9.740  0.8742 -0.2414  0.9168
  184SLPC   H6Y21179   2.560   4.292   9.643  3.8353  0.9028  2.0861
  184SLPC   C3721180   2.454   4.476   9.597 -0.6871 -0.3095 -0.0863
  184SLPC   H7X21181   2.412   4.563   9.651 -1.0106 -0.8285  0.5091
  184SLPC   H7Y21182   2.371   4.434   9.537 -0.7267  0.1480 -0.3479
  184SLPC   C3821183   2.560   4.522   9.501  0.2545 -0.3159 -0.3172
  184SLPC   H8X21184   2.610   4.428   9.468  0.7381 -0.3252  0.4415
  184SLPC   H8Y21185   2.628   4.585   9.561  0.7595  0.9085 -2.1234
  184SLPC   C3921186   2.502   4.588   9.377 -0.1924  0.0661 -0.0526
  184SLPC   H9X21187   2.431   4.672   9.396 -0.0371  0.9152 -2.9758
  184SLPC   H9Y21188   2.441   4.514   9.322  1.3631 -0.9289 -0.4536
  184SLPC  C31021189   2.618   4.632   9.289 -0.2471 -0.2532 -0.3639
  184SLPC  H10X21190   2.679   4.542   9.264 -0.1340 -0.0181 -0.9348
  184SLPC  H10Y21191   2.690   4.688   9.353 -1.3338 -0.5069  1.1108
  184SLPC  C31121192   2.577   4.708   9.170  0.6441 -0.2821  0.0983
  184SLPC  H11X21193   2.559   4.816   9.191 -1.9526 -0.4870 -0.8569
  184SLPC  H11Y21194   2.477   4.662   9.150  2.1906 -3.0703 -1.4706
  184SLPC  C31221195   2.665   4.682   9.049  0.0402  0.5635  0.3522
  184SLPC  H12X21196   2.669   4.571   9.051 -1.3955  0.4970  0.0293
  184SLPC  H12Y21197   2.766   4.729   9.058 -0.2651  0.8758  2.4973
  184SLPC  C31321198   2.597   4.733   8.918 -0.2408 -0.1513  0.0278
  184SLPC  H13X21199   2.497   4.688   8.901  0.4220 -1.3890 -0.6338
  184SLPC  H13Y21200   2.652   4.692   8.830  1.4385  0.3485  0.8278
  184SLPC  C31421201   2.597   4.890   8.905  0.4758 -0.0037  0.0972
  184SLPC  H14X21202   2.657   4.938   8.985  1.0386  1.3137 -1.0973
  184SLPC  H14Y21203   2.491   4.913   8.927  0.6927 -0.7846  2.0319
  184SLPC  C31521204   2.635   4.938   8.763 -0.0772  0.3468  0.8744
  184SLPC  H15X21205   2.743   4.928   8.744 -0.0084  3.5164 -0.6813
  184SLPC  H15Y21206   2.613   5.046   8.757 -0.3778  0.2504  0.1976
  184SLPC  C31621207   2.547   4.874   8.648  0.0737  0.5345  0.0064
  184SLPC  H16X21208   2.439   4.885   8.669 -0.4581 -2.4747 -0.8580
  184SLPC  H16Y21209   2.574   4.766   8.644  0.6191  0.7272 -1.8380
  184SLPC  C31721210   2.580   4.927   8.511  0.2839 -0.3190  0.3135
  184SLPC  H17X21211   2.541   5.030   8.493 -3.1650 -1.7627 -0.8449
  184SLPC  H17Y21212   2.527   4.860   8.440 -0.8277  2.4025 -1.5164
  184SLPC  C31821213   2.730   4.932   8.474  0.0573  0.7390  0.9490
  184SLPC  H18X21214   2.742   4.956   8.366  0.2343  0.7549  0.9718
  184SLPC  H18Y21215   2.768   4.828   8.488 -3.4861 -0.6281  0.8027
  184SLPC  H18Z21216   2.783   5.008   8.535  0.1344  1.6164 -0.1970
  185SLPC     N21217   1.794   0.567   6.409 -0.4872  0.4288 -0.1311
  185SLPC   C1321218   1.738   0.510   6.536  0.4309 -0.1556 -0.3788
  185SLPC  H13A21219   1.815   0.483   6.606 -0.6062 -0.8545  0.5133
  185SLPC  H13B21220   1.686   0.596   6.577  1.6459  0.2021  0.4269
  185SLPC  H13C21221   1.672   0.425   6.523  1.8516 -0.9958 -2.1906
  185SLPC   C1421222   1.685   0.622   6.321  0.1692  0.6851 -0.1818
  185SLPC  H14A21223   1.619   0.690   6.372 -0.0122  0.2288  0.1951
  185SLPC  H14B21224   1.732   0.668   6.235 -0.5335  0.8043 -0.5089
  185SLPC  H14C21225   1.631   0.533   6.291 -1.6352  1.7620 -0.1990
  185SLPC   C1521226   1.882   0.465   6.338  0.2625 -0.4840  0.2057
  185SLPC  H15A21227   1.940   0.518   6.264  1.1799 -0.8637  0.6520
  185SLPC  H15B21228   1.951   0.412   6.401  1.1996  1.1287  0.5738
  185SLPC  H15C21229   1.822   0.394   6.284 -1.1373 -0.4743  1.7003
  185SLPC   C1221230   1.887   0.685   6.453 -0.1626  0.1516  0.0830
  185SLPC  H12A21231   1.915   0.733   6.360  0.8083  1.6942  1.1309
  185SLPC  H12B21232   1.984   0.651   6.487  1.2530  1.3733 -2.5230
  185SLPC   C1121233   1.832   0.790   6.556 -0.0124 -0.1087 -0.0748
  185SLPC  H11A21234   1.909   0.860   6.594 -0.0015 -0.5323  0.7000
  185SLPC  H11B21235   1.805   0.743   6.653  0.2166 -1.3194 -0.5809
  185SLPC     P21236   1.714   0.993   6.423 -0.1308  0.0344  0.2863
  185SLPC   O1321237   1.838   0.996   6.349 -0.2496  0.7881  0.3180
  185SLPC   O1421238   1.590   1.013   6.344 -0.2733  0.3080  0.4083
  185SLPC   O1221239   1.718   0.855   6.507 -0.0321 -0.2111 -0.2751
  185SLPC   O1121240   1.716   1.107   6.538 -0.0427  0.2414  0.2778
  185SLPC    C121241   1.626   1.086   6.646  0.6629  0.9301  0.2895
  185SLPC    HA21242   1.525   1.094   6.600  1.1485  0.5312 -0.8695
  185SLPC    HB21243   1.628   0.986   6.694 -0.4057  1.3024  1.1342
  185SLPC    C221244   1.650   1.191   6.754  0.4506 -0.0292 -0.6683
  185SLPC    HS21245   1.629   1.290   6.708 -1.2932  0.4447  1.1040
  185SLPC   O2121246   1.788   1.187   6.787 -0.3357  0.1063  0.0929
  185SLPC   C2121247   1.837   1.291   6.849  0.0888 -0.4740 -0.5683
  185SLPC   O2221248   1.784   1.403   6.846  0.2621 -0.1493  0.3561
  185SLPC   C2221249   1.944   1.233   6.946 -0.0658 -0.2220  0.2660
  185SLPC   H2R21250   1.933   1.125   6.966 -2.0984  0.0575  0.7556
  185SLPC   H2S21251   2.044   1.267   6.911 -0.9281  0.9194 -1.1941
  185SLPC    C321252   1.555   1.179   6.878  0.3512 -0.2939 -0.4941
  185SLPC    HX21253   1.599   1.100   6.943  2.9790  1.2333 -0.3501
  185SLPC    HY21254   1.464   1.139   6.829  1.8185 -0.5009 -3.1485
  185SLPC   O3121255   1.539   1.299   6.956  0.5885  0.2765  0.3337
  185SLPC   C3121256   1.479   1.396   6.893  0.3116  0.4309  0.4330
  185SLPC   O3221257   1.426   1.390   6.786  0.9105  0.1766 -0.3334
  185SLPC   C3221258   1.463   1.515   6.989 -0.4505 -0.7354 -0.5018
  185SLPC   H2X21259   1.355   1.530   7.012 -0.3605 -2.8836  1.5205
  185SLPC   H2Y21260   1.498   1.603   6.931 -0.6585 -0.5438 -0.3347
  185SLPC   C2321261   1.939   1.308   7.082 -0.4166  0.3718  0.7919
  185SLPC   H3R21262   1.838   1.309   7.127  0.3261  0.0303  2.4813
  185SLPC   H3S21263   1.961   1.416   7.065 -2.0531  0.4217 -1.2337
  185SLPC   C2421264   2.036   1.247   7.184 -0.6851 -0.3357 -0.2455
  185SLPC   H4R21265   2.118   1.217   7.115 -0.2963  0.9594 -0.3579
  185SLPC   H4S21266   1.987   1.157   7.228  0.4980  0.3957  2.6527
  185SLPC   C2521267   2.081   1.338   7.293 -0.3556 -0.8479 -1.1068
  185SLPC   H5R21268   2.127   1.428   7.245  1.5853 -0.2579  1.7077
  185SLPC   H5S21269   2.159   1.275   7.341 -1.6056  0.4851  2.8520
  185SLPC   C2621270   1.978   1.359   7.410  0.2259 -0.6900 -0.2528
  185SLPC   H6R21271   1.900   1.421   7.360 -1.7671 -2.7383  0.2145
  185SLPC   H6S21272   2.019   1.432   7.483 -0.3508 -1.8361  1.2304
  185SLPC   C2721273   1.920   1.238   7.484 -0.0416 -0.3178 -0.5015
  185SLPC   H7R21274   2.014   1.195   7.524 -0.0026 -0.5506 -0.8389
  185SLPC   H7S21275   1.874   1.160   7.421  4.2653 -0.6423 -3.5181
  185SLPC   C2821276   1.826   1.269   7.610 -0.6551 -0.3371 -0.1038
  185SLPC   H8R21277   1.878   1.337   7.680  1.4179 -2.4641  0.4879
  185SLPC   H8S21278   1.810   1.171   7.659  0.9983  0.0885  1.3294
  185SLPC   C2921279   1.697   1.341   7.568 -0.2886 -0.3804  0.1689
  185SLPC   H9R21280   1.720   1.427   7.505  2.3930 -1.8266 -0.9353
  185SLPC  C21021281   1.568   1.308   7.598 -0.1626  0.3431  0.2909
  185SLPC  H10R21282   1.492   1.372   7.551 -0.8489  0.1886  1.1774
  185SLPC  C21121283   1.530   1.190   7.684 -0.1729 -0.2361  0.0282
  185SLPC  H11R21284   1.577   1.175   7.784  0.6627 -0.8514 -0.4490
  185SLPC  H11S21285   1.558   1.097   7.631 -2.2610  0.0415 -1.6057
  185SLPC  C21221286   1.380   1.183   7.724 -0.0683 -0.2564  0.0209
  185SLPC  H12R21287   1.323   1.136   7.643 -1.3219  2.8249 -0.9800
  185SLPC  C21321288   1.314   1.238   7.829 -0.2126 -0.6460 -0.1721
  185SLPC  H13R21289   1.208   1.209   7.834 -0.5469  0.3457 -1.2237
  185SLPC  C21421290   1.371   1.315   7.941 -0.9676 -0.8720 -0.8054
  185SLPC  H14R21291   1.481   1.309   7.952 -1.0851  1.3021  2.0641
  185SLPC  H14S21292   1.333   1.280   8.040  0.0800 -0.7466 -0.3551
  185SLPC  C21521293   1.342   1.466   7.946 -0.6566  0.4215 -0.0977
  185SLPC  H15R21294   1.386   1.494   8.044 -1.2826  1.4393 -0.0932
  185SLPC  H15S21295   1.233   1.491   7.944 -0.7327  0.0564 -0.6406
  185SLPC  C21621296   1.405   1.537   7.833  0.8346 -0.1420  0.1077
  185SLPC  H16R21297   1.335   1.511   7.750 -0.1026  1.8219  0.2475
  185SLPC  H16S21298   1.513   1.511   7.828  1.0399  1.0488 -3.9175
  185SLPC  C21721299   1.395   1.686   7.847 -0.0902  0.0733 -0.6544
  185SLPC  H17R21300   1.472   1.715   7.922  1.0361  1.0513 -2.1342
  185SLPC  H17S21301   1.295   1.702   7.891 -0.6025 -3.1938 -0.5492
  185SLPC  C21821302   1.402   1.776   7.723  0.7742 -0.3072 -0.2214
  185SLPC  H18R21303   1.483   1.739   7.656 -0.2152 -0.3539 -1.3994
  185SLPC  H18S21304   1.421   1.881   7.754  0.5961  1.0067 -4.2675
  185SLPC  H18T21305   1.308   1.785   7.664  0.8465 -0.0662 -0.3037
  185SLPC   C3321306   1.556   1.502   7.114  0.7258  0.1661 -0.0171
  185SLPC   H3X21307   1.659   1.499   7.072  0.5826 -2.2826 -0.2572
  185SLPC   H3Y21308   1.529   1.412   7.174  3.7947  0.6472  2.1945
  185SLPC   C3421309   1.547   1.635   7.200 -0.4585  0.2221  0.2251
  185SLPC   H4X21310   1.587   1.716   7.136  0.6502  0.0108  0.6308
  185SLPC   H4Y21311   1.614   1.628   7.288 -0.8627 -1.3269  0.4222
  185SLPC   C3521312   1.408   1.682   7.238  0.4956 -0.0769  0.1166
  185SLPC   H5X21313   1.342   1.674   7.149  1.3623  2.3140 -0.7476
  185SLPC   H5Y21314   1.411   1.789   7.267  0.2597 -0.1272  0.3291
  185SLPC   C3621315   1.349   1.610   7.359 -0.0335  0.4039  0.0341
  185SLPC   H6X21316   1.257   1.669   7.382  0.5539  0.7219  1.6091
  185SLPC   H6Y21317   1.419   1.604   7.444  0.3447 -1.2996 -0.3932
  185SLPC   C3721318   1.304   1.462   7.335 -0.8717  0.2934 -0.2806
  185SLPC   H7X21319   1.394   1.402   7.359 -0.9458  0.2316 -0.1574
  185SLPC   H7Y21320   1.268   1.450   7.231 -0.0912 -2.1055 -0.3025
  185SLPC   C3821321   1.206   1.411   7.442  0.0844  0.0313  0.4329
  185SLPC   H8X21322   1.122   1.483   7.440 -1.3721 -1.6369  0.4652
  185SLPC   H8Y21323   1.260   1.409   7.539  1.7812  1.8936 -0.4319
  185SLPC   C3921324   1.159   1.262   7.426  0.8853  0.7517 -0.4631
  185SLPC   H9X21325   1.256   1.207   7.439  1.1004  1.5488  1.5877
  185SLPC   H9Y21326   1.125   1.242   7.323 -0.4760 -2.9121  0.5956
  185SLPC  C31021327   1.054   1.222   7.531  0.0537  0.5238 -0.0650
  185SLPC  H10X21328   1.089   1.248   7.633  0.6277  0.0205 -0.1311
  185SLPC  H10Y21329   1.053   1.111   7.533  2.2778  0.5104  1.1574
  185SLPC  C31121330   0.915   1.281   7.501 -0.1069 -0.3432  0.2879
  185SLPC  H11X21331   0.869   1.256   7.403  1.2245 -0.6267 -0.2738
  185SLPC  H11Y21332   0.918   1.392   7.499  2.3692 -0.3720  0.5195
  185SLPC  C31221333   0.807   1.248   7.615 -0.4574 -0.7127 -0.0057
  185SLPC  H12X21334   0.853   1.291   7.706  0.3934 -2.3816  0.3842
  185SLPC  H12Y21335   0.799   1.137   7.617  0.9557 -0.8506 -0.9139
  185SLPC  C31321336   0.670   1.310   7.594  0.2136  0.0930 -0.0221
  185SLPC  H13X21337   0.671   1.418   7.621 -0.4743  0.1552 -0.2153
  185SLPC  H13Y21338   0.597   1.260   7.661 -0.4610 -0.6589 -1.2940
  185SLPC  C31421339   0.616   1.293   7.450  0.2881 -0.4133 -0.2294
  185SLPC  H14X21340   0.614   1.184   7.428 -1.6261 -0.0972 -1.7659
  185SLPC  H14Y21341   0.690   1.325   7.374 -1.0851  0.7950 -1.0828
  185SLPC  C31521342   0.487   1.365   7.422 -0.1094 -0.0924 -0.0197
  185SLPC  H15X21343   0.459   1.344   7.317  0.0787  2.0646 -0.5282
  185SLPC  H15Y21344   0.503   1.472   7.449  0.2438 -0.1609  0.0462
  185SLPC  C31621345   0.369   1.320   7.502 -0.2635 -0.5981 -0.5406
  185SLPC  H16X21346   0.379   1.210   7.512  1.2609 -0.5693 -1.5440
  185SLPC  H16Y21347   0.279   1.336   7.440  0.4800  1.1206 -1.2156
  185SLPC  C31721348   0.341   1.400   7.632 -0.0531 -0.2501 -0.3697
  185SLPC  H17X21349   0.315   1.501   7.595  1.9761 -0.1495 -1.6010
  185SLPC  H17Y21350   0.434   1.415   7.693  0.2084  1.2024 -1.1040
  185SLPC  C31821351   0.227   1.355   7.719 -0.1049  0.1217  0.1160
  185SLPC  H18X21352   0.180   1.428   7.787 -1.3314 -3.0564  2.7955
  185SLPC  H18Y21353   0.259   1.272   7.786  0.0652  1.2634  1.4650
  185SLPC  H18Z21354   0.148   1.306   7.658 -1.1889 -0.1259  1.7060
  186SLPC     N21355   2.505   4.414   5.843  0.3890 -0.0509  0.1295
  186SLPC   C1321356   2.641   4.448   5.804 -0.7107  0.2680  0.5765
  186SLPC  H13A21357   2.696   4.476   5.893 -1.1216  0.3551  0.8055
  186SLPC  H13B21358   2.697   4.367   5.761 -0.6674  0.0161  1.0994
  186SLPC  H13C21359   2.648   4.530   5.734  1.4054 -0.5997 -0.2833
  186SLPC   C1421360   2.430   4.369   5.727 -0.2173  0.4448 -0.0581
  186SLPC  H14A21361   2.442   4.430   5.639 -0.2865 -0.3329 -0.6109
  186SLPC  H14B21362   2.462   4.269   5.705 -1.0735  0.0410  0.4994
  186SLPC  H14C21363   2.324   4.356   5.746  0.0860  0.9077  2.1086
  186SLPC   C1521364   2.455   4.547   5.891  0.1304 -0.0263  0.4519
  186SLPC  H15A21365   2.466   4.619   5.812  2.8455  0.3116  1.0690
  186SLPC  H15B21366   2.352   4.540   5.923 -0.2736  3.0824 -0.0543
  186SLPC  H15C21367   2.519   4.576   5.973 -1.4708  1.3306  1.2410
  186SLPC   C1221368   2.495   4.302   5.952 -0.1678  0.2978 -0.3535
  186SLPC  H12A21369   2.522   4.208   5.908  2.3226 -0.0527  1.7889
  186SLPC  H12B21370   2.397   4.285   5.995  0.5128 -1.3417  0.6159
  186SLPC   C1121371   2.594   4.315   6.072  0.2633 -0.1906  0.1571
  186SLPC  H11A21372   2.700   4.334   6.042  0.2859 -0.4626  0.0561
  186SLPC  H11B21373   2.594   4.220   6.130 -0.0735 -1.6438 -2.1588
  186SLPC     P21374   2.417   4.427   6.222 -0.3544  0.1345 -0.1504
  186SLPC   O1321375   2.336   4.535   6.172  0.4490  0.4502  0.1933
  186SLPC   O1421376   2.368   4.291   6.212 -0.1611 -0.2434  1.1296
  186SLPC   O1221377   2.551   4.436   6.142 -0.4035 -0.4795  0.1367
  186SLPC   O1121378   2.455   4.453   6.371  0.1127  0.1059 -0.3146
  186SLPC    C121379   2.593   4.433   6.410  0.3244 -0.0648  0.0968
  186SLPC    HA21380   2.673   4.451   6.335  0.1445 -0.7490 -0.2661
  186SLPC    HB21381   2.620   4.487   6.503  1.0157  0.5977 -0.4756
  186SLPC    C221382   2.624   4.280   6.451 -0.4944 -0.2099 -0.2327
  186SLPC    HS21383   2.596   4.224   6.359  0.0332 -0.9422  0.0563
  186SLPC   O2121384   2.543   4.244   6.564  0.3938  0.0991 -0.4287
  186SLPC   C2121385   2.542   4.116   6.577  0.1163  0.4498 -0.5233
  186SLPC   O2221386   2.603   4.038   6.504 -0.5079 -0.2454  0.4962
  186SLPC   C2221387   2.468   4.078   6.704  0.9994 -0.9473 -0.0263
  186SLPC   H2R21388   2.499   4.143   6.788  0.0026 -1.9322  1.1126
  186SLPC   H2S21389   2.360   4.098   6.687  1.0877  0.9013  1.4766
  186SLPC    C321390   2.778   4.262   6.471 -0.8888 -0.8932 -0.1613
  186SLPC    HX21391   2.845   4.330   6.414 -1.3670  0.3042  0.6762
  186SLPC    HY21392   2.806   4.157   6.450  0.6973 -1.0751  2.5770
  186SLPC   O3121393   2.800   4.280   6.612  0.0833 -0.1628  0.7252
  186SLPC   C3121394   2.914   4.227   6.656  0.4025 -0.3356  0.5994
  186SLPC   O3221395   2.998   4.162   6.591  0.1574  0.4945  0.3766
  186SLPC   C3221396   2.929   4.257   6.805  0.5528  1.0195  0.5093
  186SLPC   H2X21397   2.883   4.357   6.820 -1.1368  0.2250  0.7476
  186SLPC   H2Y21398   3.039   4.256   6.822  0.5464 -2.5429  0.7354
  186SLPC   C2321399   2.494   3.923   6.741  0.1493  0.4288  0.0779
  186SLPC   H3R21400   2.602   3.903   6.760  0.6454  2.0908 -0.8689
  186SLPC   H3S21401   2.466   3.860   6.654  1.4228 -1.1006  0.7590
  186SLPC   C2421402   2.424   3.874   6.857  0.0854  0.2759 -0.1325
  186SLPC   H4R21403   2.407   3.764   6.849  0.0401  0.3392 -0.9612
  186SLPC   H4S21404   2.327   3.924   6.841 -0.0411 -0.0125 -0.2663
  186SLPC   C2521405   2.495   3.920   6.984  0.8169 -0.5579 -0.3422
  186SLPC   H5R21406   2.496   4.030   6.991 -1.7527 -0.3081 -2.6038
  186SLPC   H5S21407   2.602   3.893   6.980  1.4361  1.2583  2.6874
  186SLPC   C2621408   2.430   3.852   7.111 -0.6416  0.4850 -0.1527
  186SLPC   H6R21409   2.494   3.766   7.139 -4.0392 -2.3320 -0.6990
  186SLPC   H6S21410   2.331   3.813   7.080 -0.7387  0.1887  0.5315
  186SLPC   C2721411   2.390   3.947   7.222 -0.5170 -0.2037  0.2493
  186SLPC   H7R21412   2.307   4.004   7.176 -1.2173 -2.7937 -1.8197
  186SLPC   H7S21413   2.473   4.013   7.257 -1.2449  0.5468  0.5853
  186SLPC   C2821414   2.341   3.878   7.352 -0.0739  0.8183  1.1411
  186SLPC   H8R21415   2.401   3.792   7.391  0.8777  0.7875 -0.3437
  186SLPC   H8S21416   2.249   3.834   7.308  1.0440 -2.1358  1.5781
  186SLPC   C2921417   2.307   3.970   7.464  0.8676  0.3551  0.5066
  186SLPC   H9R21418   2.285   4.073   7.432 -2.0409 -0.2501  0.3487
  186SLPC  C21021419   2.306   3.936   7.594  0.8410 -0.0340  0.5497
  186SLPC  H10R21420   2.295   4.019   7.666 -1.1053  1.1581 -1.0543
  186SLPC  C21121421   2.338   3.802   7.654 -0.5333 -0.0844 -0.5950
  186SLPC  H11R21422   2.448   3.791   7.668 -0.5231 -0.0423 -0.6403
  186SLPC  H11S21423   2.300   3.710   7.605  1.3213 -1.3320  0.2409
  186SLPC  C21221424   2.259   3.800   7.785  0.0442 -0.4623  0.3271
  186SLPC  H12R21425   2.151   3.784   7.773  0.0985 -0.4033 -0.2214
  186SLPC  C21321426   2.296   3.850   7.911  0.4066 -0.3053  0.0908
  186SLPC  H13R21427   2.228   3.842   7.997  0.6199 -0.7005  0.2235
  186SLPC  C21421428   2.430   3.908   7.945  0.3428 -0.0732  0.7929
  186SLPC  H14R21429   2.411   4.014   7.976 -0.6194  0.2789 -0.9077
  186SLPC  H14S21430   2.498   3.915   7.858 -0.2288  0.4233  0.3784
  186SLPC  C21521431   2.493   3.827   8.059  0.1434 -0.1229  0.4550
  186SLPC  H15R21432   2.596   3.807   8.023 -0.0696 -0.1470 -0.1500
  186SLPC  H15S21433   2.440   3.733   8.086 -1.4930  0.0906 -1.8947
  186SLPC  C21621434   2.498   3.908   8.194 -0.2688 -0.3037  0.4433
  186SLPC  H16R21435   2.546   4.005   8.168 -1.9149  0.4343  0.0687
  186SLPC  H16S21436   2.567   3.861   8.267 -0.0081 -1.8798 -0.8255
  186SLPC  C21721437   2.357   3.936   8.252  0.1728  0.3075  0.3388
  186SLPC  H17R21438   2.281   3.966   8.178  1.1223  0.7811 -0.4516
  186SLPC  H17S21439   2.368   4.019   8.324 -0.9121  0.2139  0.6186
  186SLPC  C21821440   2.293   3.815   8.327  0.1416  0.3311  0.5187
  186SLPC  H18R21441   2.266   3.736   8.254  1.5053 -0.9025  1.3010
  186SLPC  H18S21442   2.200   3.843   8.380  1.3701  0.4414  2.7213
  186SLPC  H18T21443   2.362   3.761   8.396  0.6947  0.5780  0.1636
  186SLPC   C3321444   2.852   4.159   6.896 -0.2307  0.4369 -0.4125
  186SLPC   H3X21445   2.889   4.055   6.886  0.3751  0.6775 -0.7102
  186SLPC   H3Y21446   2.744   4.164   6.873  0.3578  0.5939 -3.3110
  186SLPC   C3421447   2.876   4.179   7.048  0.2630  0.4373  0.2932
  186SLPC   H4X21448   2.836   4.281   7.067  0.7097  0.1968  2.6789
  186SLPC   H4Y21449   2.983   4.168   7.075  0.0516 -0.4036  0.8309
  186SLPC   C3521450   2.786   4.086   7.130  0.2792 -0.3340 -0.3893
  186SLPC   H5X21451   2.756   3.994   7.077 -2.9865  1.8073 -2.4590
  186SLPC   H5Y21452   2.690   4.142   7.139  1.8608  2.5745 -0.8334
  186SLPC   C3621453   2.849   4.069   7.269 -0.0938 -0.0918  0.0720
  186SLPC   H6X21454   2.856   4.171   7.312 -0.5558 -0.7233  1.6909
  186SLPC   H6Y21455   2.946   4.016   7.261  0.7820  1.1575  1.9786
  186SLPC   C3721456   2.759   3.989   7.369  0.0831 -0.3512  0.4304
  186SLPC   H7X21457   2.742   3.889   7.324  1.2134 -1.1390  1.6858
  186SLPC   H7Y21458   2.661   4.039   7.378  0.4439  0.1468  1.7100
  186SLPC   C3821459   2.824   3.979   7.511  0.2881 -0.0852 -0.1791
  186SLPC   H8X21460   2.915   4.042   7.516 -1.0391  1.7699  1.1594
  186SLPC   H8Y21461   2.859   3.873   7.507 -0.8096 -0.4730  0.3167
  186SLPC   C3921462   2.728   4.011   7.622  0.0111 -0.0206  0.4319
  186SLPC   H9X21463   2.632   3.962   7.597  2.3800 -3.5506 -2.3340
  186SLPC   H9Y21464   2.703   4.119   7.624 -0.2982 -0.1194  2.2485
  186SLPC  C31021465   2.772   3.958   7.753 -0.3452 -0.0888  0.1524
  186SLPC  H10X21466   2.796   3.850   7.752 -0.6102 -0.1699  1.3979
  186SLPC  H10Y21467   2.696   3.989   7.828 -0.5737 -1.1559  0.3694
  186SLPC  C31121468   2.888   4.044   7.802 -0.7083  0.1278  0.3212
  186SLPC  H11X21469   2.856   4.150   7.795 -1.4294 -0.1972 -1.6833
  186SLPC  H11Y21470   2.973   4.032   7.732 -2.5542 -2.6488 -1.5506
  186SLPC  C31221471   2.926   4.020   7.946  0.8474  0.4121  0.1789
  186SLPC  H12X21472   2.969   3.918   7.958  1.8124  0.7316 -0.4537
  186SLPC  H12Y21473   2.834   4.047   8.001  0.1664  1.4679 -1.4280
  186SLPC  C31321474   3.042   4.108   7.980 -0.2614 -0.3233 -0.2384
  186SLPC  H13X21475   3.016   4.214   7.957 -1.8998 -1.0970 -2.0963
  186SLPC  H13Y21476   3.130   4.090   7.914  0.8312  0.7342  0.8929
  186SLPC  C31421477   3.079   4.105   8.131  0.0228 -0.7296  0.6010
  186SLPC  H14X21478   3.122   4.005   8.157 -0.6549 -0.6281  2.1798
  186SLPC  H14Y21479   2.996   4.124   8.203 -0.8887  0.5940 -0.7768
  186SLPC  C31521480   3.189   4.214   8.162  0.1025 -0.0779 -0.2096
  186SLPC  H15X21481   3.137   4.311   8.145  0.0543 -0.3973 -2.0459
  186SLPC  H15Y21482   3.261   4.194   8.080 -0.4255 -0.0078 -0.6949
  186SLPC  C31621483   3.256   4.207   8.301 -0.1352 -0.4797 -0.3155
  186SLPC  H16X21484   3.361   4.171   8.297  0.4341  0.8990  1.7706
  186SLPC  H16Y21485   3.204   4.133   8.365 -1.2287  0.1468 -0.4754
  186SLPC  C31721486   3.260   4.346   8.366  0.2346  0.1003  0.2103
  186SLPC  H17X21487   3.155   4.371   8.393 -0.2633 -1.8243  0.1359
  186SLPC  H17Y21488   3.305   4.421   8.297 -0.5055 -0.1009 -0.5019
  186SLPC  C31821489   3.332   4.342   8.503 -0.3308 -0.1755 -0.3868
  186SLPC  H18X21490   3.308   4.247   8.556 -0.1327 -0.1387 -0.2288
  186SLPC  H18Y21491   3.295   4.428   8.562  1.6681  1.2188 -1.1118
  186SLPC  H18Z21492   3.442   4.342   8.488 -0.1893 -2.5544  0.4686
  187SLPC     N21493   3.097   0.620   6.196 -0.8607  0.0763  0.1417
  187SLPC   C1321494   2.959   0.629   6.155  0.4528  0.5897 -0.5009
  187SLPC  H13A21495   2.948   0.634   6.047  0.0448  0.4558 -0.4653
  187SLPC  H13B21496   2.906   0.539   6.181  2.4348 -0.4787 -0.1106
  187SLPC  H13C21497   2.900   0.711   6.193 -1.6842 -1.4107  0.6150
  187SLPC   C1421498   3.166   0.749   6.174 -0.0630 -0.7123  0.1232
  187SLPC  H14A21499   3.258   0.745   6.230 -0.8672 -2.3279  1.3719
  187SLPC  H14B21500   3.170   0.768   6.068  1.7150  1.4260  0.5532
  187SLPC  H14C21501   3.115   0.831   6.223 -0.0716  0.0444 -1.1224
  187SLPC   C1521502   3.169   0.513   6.114 -0.2022  0.0792  0.2758
  187SLPC  H15A21503   3.123   0.419   6.138  2.1149 -0.6100  2.0607
  187SLPC  H15B21504   3.163   0.537   6.008 -1.9728 -0.5780  0.2126
  187SLPC  H15C21505   3.274   0.510   6.137 -0.0766  0.2758 -0.2633
  187SLPC   C1221506   3.092   0.574   6.341  0.0348  0.0040  0.1290
  187SLPC  H12A21507   3.186   0.534   6.377 -0.6287 -0.5139  1.2843
  187SLPC  H12B21508   3.024   0.492   6.353 -1.0103  0.3623 -2.8950
  187SLPC   C1121509   3.041   0.688   6.437  0.1324  0.7874  0.3438
  187SLPC  H11A21510   3.009   0.630   6.527 -1.7186  0.7044 -0.3380
  187SLPC  H11B21511   2.947   0.727   6.392 -0.1406 -0.3001 -0.0361
  187SLPC     P21512   3.277   0.777   6.530 -0.1632  0.0713 -0.2668
  187SLPC   O1321513   3.369   0.725   6.428 -0.8368  0.2087  0.0299
  187SLPC   O1421514   3.309   0.897   6.609 -0.6866 -0.2455 -0.2894
  187SLPC   O1221515   3.137   0.791   6.464 -0.0688  0.3055 -0.2070
  187SLPC   O1121516   3.257   0.665   6.632 -0.2938  0.5575 -0.2270
  187SLPC    C121517   3.178   0.674   6.748  0.1423 -0.4145 -0.3127
  187SLPC    HA21518   3.213   0.757   6.813 -0.3415 -0.7191  0.3396
  187SLPC    HB21519   3.072   0.706   6.734 -0.1137 -0.7519  0.8082
  187SLPC    C221520   3.181   0.543   6.827  0.2115 -0.3716 -0.9408
  187SLPC    HS21521   3.085   0.492   6.805 -0.4081  0.6618 -0.6682
  187SLPC   O2121522   3.202   0.567   6.967  0.2331 -0.2864  0.3604
  187SLPC   C2121523   3.115   0.636   7.037 -0.4396  0.0199  0.2696
  187SLPC   O2221524   3.004   0.675   7.003  0.5157 -0.3498  0.0649
  187SLPC   C2221525   3.168   0.651   7.184  0.1700  0.0082 -0.1603
  187SLPC   H2R21526   3.188   0.550   7.226  1.1811 -0.4585 -1.7100
  187SLPC   H2S21527   3.267   0.701   7.192  0.4718 -0.7925  1.1187
  187SLPC    C321528   3.294   0.450   6.782  0.5195 -0.2408 -0.1136
  187SLPC    HX21529   3.394   0.496   6.790  0.4766 -0.0622 -0.6000
  187SLPC    HY21530   3.285   0.426   6.674  0.2042 -1.7662  0.2324
  187SLPC   O3121531   3.314   0.323   6.849 -0.6114  0.2270  0.0195
  187SLPC   C3121532   3.208   0.243   6.835  0.8457 -0.6858 -0.4246
  187SLPC   O3221533   3.110   0.263   6.763 -0.1568 -0.3252 -0.0554
  187SLPC   C3221534   3.223   0.123   6.919 -0.2089  0.9321  0.0823
  187SLPC   H2X21535   3.326   0.117   6.960 -0.9120 -1.9035  1.5629
  187SLPC   H2Y21536   3.215   0.043   6.841  1.1305  0.4801  0.3983
  187SLPC   C2321537   3.085   0.736   7.283  0.3494 -0.1035 -0.1488
  187SLPC   H3R21538   2.986   0.684   7.288  1.6648 -2.5123  2.7232
  187SLPC   H3S21539   3.081   0.842   7.252  0.7190 -0.2383 -0.6543
  187SLPC   C2421540   3.147   0.734   7.423 -0.3344  0.2000 -0.1203
  187SLPC   H4R21541   3.250   0.776   7.425 -0.3927  0.3131  0.6483
  187SLPC   H4S21542   3.158   0.630   7.461  0.8812  0.6500  0.8038
  187SLPC   C2521543   3.061   0.813   7.532  0.2726  0.2864  0.4653
  187SLPC   H5R21544   2.971   0.752   7.551  1.2637 -1.3577 -0.0689
  187SLPC   H5S21545   3.035   0.911   7.485  1.6977 -0.7186 -2.5411
  187SLPC   C2621546   3.130   0.835   7.667 -0.3043  0.0985  0.3474
  187SLPC   H6R21547   3.226   0.886   7.642 -1.4953  1.6349 -1.1898
  187SLPC   H6S21548   3.163   0.736   7.704  0.6844  0.9882  1.8900
  187SLPC   C2721549   3.062   0.917   7.777 -0.0435  0.1423 -0.7170
  187SLPC   H7R21550   3.042   1.012   7.723  0.3929  0.8727  0.3901
  187SLPC   H7S21551   3.128   0.959   7.856 -2.3753  0.5192  1.0633
  187SLPC   C2821552   2.937   0.851   7.842 -0.1704  0.0420  0.6477
  187SLPC   H8R21553   2.863   0.817   7.766  2.5298 -2.4573 -0.9767
  187SLPC   H8S21554   2.880   0.932   7.892  0.1029 -0.2296  1.4037
  187SLPC   C2921555   2.974   0.739   7.943 -0.4077 -0.4009  0.0018
  187SLPC   H9R21556   2.982   0.636   7.906 -0.7432  0.1023 -1.4897
  187SLPC  C21021557   3.002   0.762   8.075 -0.0919  0.4915  0.6191
  187SLPC  H10R21558   3.023   0.684   8.149  0.6895  0.5112  0.4251
  187SLPC  C21121559   2.996   0.899   8.136 -0.5225 -0.8980  0.0468
  187SLPC  H11R21560   3.025   0.976   8.062 -0.4041 -0.5764  0.4228
  187SLPC  H11S21561   3.076   0.895   8.213 -0.2449 -1.1901 -0.2605
  187SLPC  C21221562   2.861   0.928   8.200 -0.0487  0.1142 -0.0355
  187SLPC  H12R21563   2.784   0.904   8.126  0.8762  0.4413 -1.1342
  187SLPC  C21321564   2.839   0.982   8.321 -0.0473  0.7694  0.8426
  187SLPC  H13R21565   2.736   0.996   8.359 -0.1202 -1.2819  1.5097
  187SLPC  C21421566   2.954   1.032   8.405  0.6880  0.5583  0.1014
  187SLPC  H14R21567   2.933   1.140   8.418 -1.3581  0.0425  1.1933
  187SLPC  H14S21568   3.059   1.022   8.369  2.0458  3.3608  2.9805
  187SLPC  C21521569   2.953   0.979   8.554  0.1971 -0.8541  0.1602
  187SLPC  H15R21570   2.860   0.998   8.612  0.3689  1.2288 -0.2042
  187SLPC  H15S21571   3.031   1.036   8.609  0.3336  0.6044 -1.5146
  187SLPC  C21621572   2.985   0.823   8.560  0.0766  0.2029 -0.2312
  187SLPC  H16R21573   3.080   0.817   8.504  2.5591  0.0208  3.7689
  187SLPC  H16S21574   2.906   0.754   8.523  2.0574 -2.2813 -0.0107
  187SLPC  C21721575   2.999   0.776   8.707  0.5126  0.0522  0.3209
  187SLPC  H17R21576   3.010   0.666   8.708 -0.8775 -0.0806  1.7395
  187SLPC  H17S21577   2.897   0.789   8.750 -0.2191 -1.6735 -0.8497
  187SLPC  C21821578   3.106   0.850   8.789 -0.7530  0.1444 -0.8550
  187SLPC  H18R21579   3.206   0.844   8.742 -0.6029  0.9570 -0.6488
  187SLPC  H18S21580   3.111   0.818   8.895  1.1595 -0.2034 -1.0362
  187SLPC  H18T21581   3.082   0.959   8.796  0.2994  0.3403 -0.1877
  187SLPC   C3321582   3.121   0.100   7.027  0.1607  0.0702 -0.1729
  187SLPC   H3X21583   3.140   0.008   7.086  0.7503  0.4008  0.1572
  187SLPC   H3Y21584   3.016   0.092   6.992  0.3705  0.6786 -0.9588
  187SLPC   C3421585   3.127   0.206   7.143 -0.2869 -0.0637 -0.0875
  187SLPC   H4X21586   3.075   0.297   7.109 -0.6660 -0.1232  0.3273
  187SLPC   H4Y21587   3.237   0.226   7.148  0.5813 -3.9742 -1.1489
  187SLPC   C3521588   3.081   0.153   7.274  0.4577  0.3987 -0.2986
  187SLPC   H5X21589   3.155   0.077   7.308 -0.7871 -1.1369 -0.9922
  187SLPC   H5Y21590   2.980   0.108   7.267 -0.0849  0.2701  5.5737
  187SLPC   C3621591   3.075   0.262   7.381 -0.9147 -0.3681  0.1535
  187SLPC   H6X21592   3.051   0.358   7.329  0.8615 -0.5286 -1.0225
  187SLPC   H6Y21593   3.175   0.268   7.429  0.3786  1.8343 -2.5933
  187SLPC   C3721594   2.977   0.239   7.491  0.0373 -0.7546 -0.0564
  187SLPC   H7X21595   2.876   0.211   7.455  0.2417 -0.4534 -0.8619
  187SLPC   H7Y21596   3.002   0.147   7.549 -1.8620 -0.5302  1.1605
  187SLPC   C3821597   2.966   0.344   7.598 -0.3149  0.5946 -0.0773
  187SLPC   H8X21598   2.912   0.434   7.562 -0.6937 -0.5716 -2.4726
  187SLPC   H8Y21599   3.064   0.378   7.639  0.6300 -2.1306  0.0474
  187SLPC   C3921600   2.887   0.280   7.719  0.3009 -0.1734 -0.5006
  187SLPC   H9X21601   2.921   0.188   7.771 -2.4590 -2.5799 -2.7153
  187SLPC   H9Y21602   2.788   0.257   7.674 -0.1513  0.6323  0.0699
  187SLPC  C31021603   2.867   0.391   7.829 -0.3312 -0.3726 -0.0872
  187SLPC  H10X21604   2.816   0.481   7.788  1.3250  0.1254 -1.1039
  187SLPC  H10Y21605   2.967   0.423   7.866 -0.4534 -1.8836  1.6149
  187SLPC  C31121606   2.794   0.334   7.952 -0.6134  0.5294 -0.1533
  187SLPC  H11X21607   2.854   0.264   8.014 -1.8000  0.7593  1.3061
  187SLPC  H11Y21608   2.695   0.289   7.928  0.0988  0.1140 -2.4026
  187SLPC  C31221609   2.750   0.448   8.045  0.6672  0.2017 -0.2532
  187SLPC  H12X21610   2.650   0.485   8.013  0.1416 -3.1767 -2.8071
  187SLPC  H12Y21611   2.815   0.538   8.049 -2.1395  2.2879 -0.0449
  187SLPC  C31321612   2.726   0.403   8.184 -0.4621  0.2575 -0.4042
  187SLPC  H13X21613   2.820   0.373   8.236  0.0408  0.0183 -1.4528
  187SLPC  H13Y21614   2.675   0.304   8.185  0.5908 -0.2988 -1.0514
  187SLPC  C31421615   2.659   0.508   8.280 -0.4565  0.1904 -0.4107
  187SLPC  H14X21616   2.682   0.610   8.242 -0.3604  0.4790  0.4222
  187SLPC  H14Y21617   2.708   0.505   8.380 -0.6086  0.6520 -0.3201
  187SLPC  C31521618   2.503   0.502   8.295  0.4852 -0.5630  0.2804
  187SLPC  H15X21619   2.484   0.396   8.323 -0.1785 -0.5486 -0.1118
  187SLPC  H15Y21620   2.454   0.512   8.196 -0.5319 -2.1152  0.6081
  187SLPC  C31621621   2.448   0.603   8.401 -0.0273  0.6102  0.3467
  187SLPC  H16X21622   2.501   0.700   8.385  3.2835 -1.2522 -0.3941
  187SLPC  H16Y21623   2.475   0.568   8.503  2.0967  3.2752  0.7687
  187SLPC  C31721624   2.296   0.617   8.394  0.2711  0.2636  0.2622
  187SLPC  H17X21625   2.273   0.646   8.290  0.9945  1.0539  0.3116
  187SLPC  H17Y21626   2.259   0.692   8.468  1.9066 -1.8601  3.3600
  187SLPC  C31821627   2.225   0.480   8.429  0.4609  0.1712  0.0539
  187SLPC  H18X21628   2.259   0.435   8.525  0.3852  0.2488  0.1179
  187SLPC  H18Y21629   2.246   0.409   8.347  1.3249 -1.6049  1.7638
  187SLPC  H18Z21630   2.117   0.490   8.454  0.3793 -2.0025  0.6474
  188SLPC     N21631   4.039   2.024   5.977  1.0897  0.2622 -0.0655
  188SLPC   C1321632   4.083   1.937   5.860 -0.1246  1.0085  0.3262
  188SLPC  H13A21633   4.012   1.945   5.779  0.2149  0.1364 -0.0560
  188SLPC  H13B21634   4.187   1.946   5.832 -0.0257 -0.6197  0.1203
  188SLPC  H13C21635   4.064   1.833   5.882  0.1116  1.2536  1.7314
  188SLPC   C1421636   3.893   2.007   6.003 -0.4899 -0.9990 -0.4927
  188SLPC  H14A21637   3.837   2.026   5.913  0.1554 -0.6767 -0.8308
  188SLPC  H14B21638   3.875   1.903   6.029  0.8511 -1.0143  0.3892
  188SLPC  H14C21639   3.848   2.069   6.079 -0.1795  0.3394 -1.3915
  188SLPC   C1521640   4.058   2.164   5.933  0.0080 -0.4772 -0.6729
  188SLPC  H15A21641   3.982   2.200   5.865 -1.7975 -1.5969  0.7008
  188SLPC  H15B21642   4.063   2.235   6.015 -0.5577 -0.2042 -0.8670
  188SLPC  H15C21643   4.153   2.177   5.883 -0.0124  1.0484 -0.3461
  188SLPC   C1221644   4.109   2.002   6.110 -0.0340 -0.2683 -0.2948
  188SLPC  H12A21645   4.216   2.007   6.095  0.1372 -1.4005  0.5006
  188SLPC  H12B21646   4.100   1.905   6.156  0.2958  0.6001  1.6254
  188SLPC   C1121647   4.090   2.108   6.227  0.5699  0.4033 -0.2822
  188SLPC  H11A21648   4.132   2.205   6.196 -0.6589  0.2425 -2.5284
  188SLPC  H11B21649   4.151   2.062   6.308 -0.6095  0.4894  0.6686
  188SLPC     P21650   3.896   2.050   6.398 -0.2654 -0.3606 -0.2897
  188SLPC   O1321651   3.747   2.032   6.395  0.1666  0.1162 -0.2745
  188SLPC   O1421652   3.980   1.929   6.404  0.5752 -0.0883 -0.0820
  188SLPC   O1221653   3.952   2.122   6.261  0.2599 -0.5131 -0.1731
  188SLPC   O1121654   3.946   2.151   6.509  0.0108 -0.2017  0.1437
  188SLPC    C121655   3.951   2.290   6.488  0.4093 -0.7604  0.1089
  188SLPC    HA21656   4.055   2.329   6.490 -0.0680  0.8813 -3.2406
  188SLPC    HB21657   3.907   2.332   6.395 -0.8155 -0.1027  0.9759
  188SLPC    C221658   3.881   2.361   6.603 -1.1327  0.2996  0.2041
  188SLPC    HS21659   3.901   2.470   6.608 -0.3187  0.3135 -2.6274
  188SLPC   O2121660   3.925   2.307   6.729 -0.2451  0.4336  0.2943
  188SLPC   C2121661   4.037   2.356   6.778  0.5666 -0.3220  0.2060
  188SLPC   O2221662   4.110   2.438   6.725  0.3337  0.0949 -0.4651
  188SLPC   C2221663   4.065   2.296   6.914  0.2725 -0.3667 -0.1975
  188SLPC   H2R21664   3.991   2.219   6.945 -0.1704  0.5673  1.1192
  188SLPC   H2S21665   4.159   2.240   6.896 -0.3811 -2.5128  2.6358
  188SLPC    C321666   3.726   2.340   6.600 -0.7479  0.7542 -0.0872
  188SLPC    HX21667   3.701   2.235   6.574  1.0176 -0.4482  2.7429
  188SLPC    HY21668   3.684   2.406   6.522  2.4417  1.1038 -1.5940
  188SLPC   O3121669   3.665   2.369   6.730 -0.3949  0.2638  0.5273
  188SLPC   C3121670   3.666   2.491   6.768 -0.2270  0.3960  0.3097
  188SLPC   O3221671   3.688   2.590   6.699 -1.3415 -0.0385  0.0258
  188SLPC   C3221672   3.638   2.498   6.926 -0.1840  0.1276  1.7885
  188SLPC   H2X21673   3.729   2.451   6.968  0.0117 -2.3410 -1.1979
  188SLPC   H2Y21674   3.558   2.424   6.951  1.5403 -2.4326 -0.0150
  188SLPC   C2321675   4.091   2.407   7.019 -0.1284  0.0624  0.0213
  188SLPC   H3R21676   4.003   2.476   7.023  0.9431  1.4169  0.5182
  188SLPC   H3S21677   4.180   2.468   6.996 -0.7695  0.3089 -1.9311
  188SLPC   C2421678   4.107   2.348   7.160  0.5210 -0.6892  0.0606
  188SLPC   H4R21679   4.140   2.433   7.224  0.6518 -0.5207 -0.2332
  188SLPC   H4S21680   4.183   2.267   7.164 -0.4552 -1.5724  1.4479
  188SLPC   C2521681   3.979   2.301   7.216 -0.2636 -0.0988  0.4150
  188SLPC   H5R21682   3.948   2.208   7.164  1.1162 -0.5523  0.3802
  188SLPC   H5S21683   3.898   2.376   7.209  1.3306  1.6275  0.2557
  188SLPC   C2621684   3.991   2.263   7.367  0.4613  0.0186 -0.2825
  188SLPC   H6R21685   4.067   2.334   7.405  0.4811 -0.5529  0.7932
  188SLPC   H6S21686   4.029   2.164   7.400 -2.1019 -0.6232  0.9148
  188SLPC   C2721687   3.862   2.280   7.447 -0.3155 -0.5812 -0.5804
  188SLPC   H7R21688   3.791   2.199   7.420 -1.3259 -0.6063  2.0443
  188SLPC   H7S21689   3.821   2.376   7.409  0.3615 -0.5742 -1.3205
  188SLPC   C2821690   3.888   2.280   7.601  0.0716  0.1743 -0.6697
  188SLPC   H8R21691   3.789   2.304   7.645 -1.5491 -0.4721 -3.7963
  188SLPC   H8S21692   3.959   2.362   7.621  0.1931  0.0925 -0.7621
  188SLPC   C2921693   3.926   2.145   7.653  0.3487 -0.6661 -0.0232
  188SLPC   H9R21694   3.994   2.090   7.586  0.3370  0.5148 -1.0137
  188SLPC  C21021695   3.906   2.087   7.773 -0.6394 -0.2368 -0.2170
  188SLPC  H10R21696   3.948   1.985   7.783 -3.2786 -1.1759  1.7863
  188SLPC  C21121697   3.834   2.141   7.895 -0.0434  1.1125  0.4543
  188SLPC  H11R21698   3.768   2.222   7.858 -2.7178 -0.4160  1.7659
  188SLPC  H11S21699   3.906   2.191   7.964  0.1765 -0.0290  1.0728
  188SLPC  C21221700   3.759   2.038   7.968  0.6718 -0.1176  0.2201
  188SLPC  H12R21701   3.684   1.989   7.904  0.1335  1.3007 -0.2619
  188SLPC  C21321702   3.770   1.993   8.094 -0.4303  0.0573 -0.8679
  188SLPC  H13R21703   3.703   1.909   8.119 -1.1248  0.3257 -1.7968
  188SLPC  C21421704   3.875   2.033   8.190 -0.2146 -0.2516 -0.4280
  188SLPC  H14R21705   3.977   2.050   8.149  0.3887 -2.8763 -0.0720
  188SLPC  H14S21706   3.891   1.956   8.268 -0.9958 -0.5622 -0.5769
  188SLPC  C21521707   3.843   2.170   8.255 -0.1553 -0.3234  0.0146
  188SLPC  H15R21708   3.735   2.194   8.267 -0.0948  0.2285 -0.5032
  188SLPC  H15S21709   3.902   2.249   8.204  2.1776 -2.2514 -0.3556
  188SLPC  C21621710   3.923   2.163   8.389  0.3704 -0.2976 -0.9503
  188SLPC  H16R21711   4.027   2.123   8.381  1.9745  3.2029  0.8136
  188SLPC  H16S21712   3.876   2.088   8.455  1.2372  0.3109  0.4030
  188SLPC  C21721713   3.938   2.300   8.455 -0.0000  0.1695 -0.4108
  188SLPC  H17R21714   3.834   2.334   8.474  0.4559  0.0593  2.5788
  188SLPC  H17S21715   3.979   2.374   8.383  1.1588 -0.4530 -0.4022
  188SLPC  C21821716   4.021   2.285   8.579 -0.7017  0.1824  0.1341
  188SLPC  H18R21717   3.960   2.222   8.647  1.1596 -1.5291  0.2568
  188SLPC  H18S21718   4.024   2.387   8.624  1.4084 -0.6579  1.9882
  188SLPC  H18T21719   4.117   2.238   8.551 -1.4520 -1.3364  0.0517
  188SLPC   C3321720   3.600   2.642   6.970  0.1966 -0.0007 -0.3267
  188SLPC   H3X21721   3.490   2.658   6.961  0.3635  1.5378  0.1451
  188SLPC   H3Y21722   3.652   2.721   6.911 -1.7958  0.9242 -0.8873
  188SLPC   C3421723   3.645   2.658   7.115 -0.1170 -0.0803 -0.2290
  188SLPC   H4X21724   3.607   2.757   7.150 -0.7831 -0.8149  1.1721
  188SLPC   H4Y21725   3.754   2.680   7.108 -0.3445  1.0876 -0.2982
  188SLPC   C3521726   3.620   2.539   7.204  0.5128  0.3244  0.0201
  188SLPC   H5X21727   3.708   2.471   7.200  3.0788  3.5823 -1.7889
  188SLPC   H5Y21728   3.530   2.489   7.161  0.1998  1.0146 -0.1303
  188SLPC   C3621729   3.588   2.589   7.342  0.1693 -0.1306 -0.4409
  188SLPC   H6X21730   3.503   2.661   7.343  0.2831  0.0033 -0.3901
  188SLPC   H6Y21731   3.677   2.646   7.377 -0.7051  0.1166  1.4539
  188SLPC   C3721732   3.549   2.473   7.438 -0.2310  0.1003  0.2349
  188SLPC   H7X21733   3.626   2.394   7.423 -0.6516  0.0669 -1.9003
  188SLPC   H7Y21734   3.453   2.429   7.404 -0.1094 -0.5226  0.6885
  188SLPC   C3821735   3.531   2.515   7.582 -0.8371  0.3719  0.2881
  188SLPC   H8X21736   3.462   2.602   7.593 -2.0370 -0.3956 -1.0260
  188SLPC   H8Y21737   3.636   2.542   7.605 -1.3430  1.1753  1.6998
  188SLPC   C3921738   3.492   2.412   7.682 -0.3178 -0.8941  0.2471
  188SLPC   H9X21739   3.528   2.314   7.647  1.7794  0.7980 -2.5201
  188SLPC   H9Y21740   3.382   2.400   7.672 -0.0045 -4.1370  0.4061
  188SLPC  C31021741   3.551   2.456   7.815 -0.1545 -0.4644 -0.1559
  188SLPC  H10X21742   3.536   2.564   7.835  1.7355 -0.3602  0.8284
  188SLPC  H10Y21743   3.661   2.454   7.799 -0.0105 -0.6907  0.7790
  188SLPC  C31121744   3.514   2.374   7.934 -0.1545 -0.4883  0.0473
  188SLPC  H11X21745   3.538   2.267   7.917  1.1603 -0.0504 -0.9871
  188SLPC  H11Y21746   3.404   2.381   7.939 -0.0831 -0.1197  1.4390
  188SLPC  C31221747   3.589   2.430   8.053  0.3522  0.5142  0.7723
  188SLPC  H12X21748   3.604   2.540   8.043 -0.8884  0.4308 -2.4344
  188SLPC  H12Y21749   3.690   2.385   8.060 -0.0681 -0.5351  0.2067
  188SLPC  C31321750   3.511   2.405   8.186 -0.1855  1.0333  0.2776
  188SLPC  H13X21751   3.499   2.295   8.185  0.6937  0.8366  3.5798
  188SLPC  H13Y21752   3.414   2.458   8.169 -1.1375 -1.0984 -1.1006
  188SLPC  C31421753   3.578   2.442   8.315  0.4810  0.7322  0.2631
  188SLPC  H14X21754   3.676   2.390   8.315 -0.2696 -0.7155  0.3969
  188SLPC  H14Y21755   3.528   2.391   8.400  0.2373 -0.5436 -0.6298
  188SLPC  C31521756   3.587   2.593   8.344 -0.2773 -0.2657 -0.4782
  188SLPC  H15X21757   3.487   2.642   8.340  0.8155  2.0951  0.3072
  188SLPC  H15Y21758   3.654   2.641   8.269 -1.0267  1.2547 -0.1838
  188SLPC  C31621759   3.647   2.621   8.482  0.6500  0.9843  0.0304
  188SLPC  H16X21760   3.729   2.554   8.515  0.1479  0.0735 -0.5356
  188SLPC  H16Y21761   3.558   2.604   8.547  1.3311 -0.7248  0.5535
  188SLPC  C31721762   3.699   2.762   8.505 -0.2577 -0.3221 -0.4813
  188SLPC  H17X21763   3.615   2.832   8.487 -0.0609  0.9711  3.1786
  188SLPC  H17Y21764   3.774   2.773   8.424  0.4931 -1.9194 -0.0393
  188SLPC  C31821765   3.761   2.781   8.642  0.3217  0.4386 -0.3700
  188SLPC  H18X21766   3.773   2.887   8.673 -0.0065  0.7429 -1.2759
  188SLPC  H18Y21767   3.859   2.731   8.662 -0.4315 -0.2543  1.7866
  188SLPC  H18Z21768   3.694   2.729   8.715  2.2729 -2.3592 -0.4799
  189SLPC     N21769   6.056   4.927   6.015 -0.0839 -0.7323  0.3643
  189SLPC   C1321770   5.914   4.887   6.046 -0.0873  0.3089 -0.3661
  189SLPC  H13A21771   5.864   4.881   5.951  0.5472 -2.9090 -0.5554
  189SLPC  H13B21772   5.907   4.790   6.092  0.9807  0.0684 -0.6813
  189SLPC  H13C21773   5.863   4.964   6.102 -0.8168  0.3672 -1.0964
  189SLPC   C1421774   6.042   5.044   5.922  0.4109  0.2318  0.2137
  189SLPC  H14A21775   6.133   5.095   5.891  1.5032 -0.9743  1.3802
  189SLPC  H14B21776   5.996   5.007   5.832 -0.6470  0.5111  0.6334
  189SLPC  H14C21777   5.969   5.119   5.949 -0.5391 -0.4712 -0.3711
  189SLPC   C1521778   6.128   4.814   5.938  0.4239 -1.2501 -0.2932
  189SLPC  H15A21779   6.072   4.781   5.852  0.8724  0.1141 -1.1392
  189SLPC  H15B21780   6.226   4.847   5.906 -0.4814  1.1844 -0.7105
  189SLPC  H15C21781   6.154   4.733   6.003  2.5716 -1.4929 -1.4248
  189SLPC   C1221782   6.127   4.954   6.143  0.7565 -0.8068  0.1811
  189SLPC  H12A21783   6.090   5.042   6.193 -1.2098 -0.9424 -0.9819
  189SLPC  H12B21784   6.232   4.975   6.124  0.3383  0.5234 -0.7048
  189SLPC   C1121785   6.140   4.838   6.251 -0.3885 -0.5653  0.1493
  189SLPC  H11A21786   6.043   4.808   6.296 -1.5920  1.3037 -1.1079
  189SLPC  H11B21787   6.189   4.883   6.339  0.6252 -0.2398 -0.5698
  189SLPC     P21788   6.362   4.689   6.243 -0.4122  0.6635  0.1659
  189SLPC   O1321789   6.415   4.575   6.165  0.6682 -0.0191 -0.0323
  189SLPC   O1421790   6.443   4.809   6.237 -0.4218  0.1049 -0.1963
  189SLPC   O1221791   6.214   4.718   6.205 -0.6920 -0.4719  0.6260
  189SLPC   O1121792   6.342   4.643   6.396  0.7190 -0.1577 -0.2174
  189SLPC    C121793   6.295   4.510   6.432 -0.1372 -0.2463  0.6637
  189SLPC    HA21794   6.278   4.449   6.342  2.1942  0.3824 -0.2487
  189SLPC    HB21795   6.381   4.470   6.490  0.5429  0.4451  0.1501
  189SLPC    C221796   6.177   4.508   6.523 -0.4156 -0.4312 -0.3650
  189SLPC    HS21797   6.090   4.556   6.472 -1.3907 -0.0696  1.6037
  189SLPC   O2121798   6.210   4.571   6.649 -0.1986  0.2684  1.1000
  189SLPC   C2121799   6.113   4.626   6.697  0.1794 -1.1258 -0.4758
  189SLPC   O2221800   5.996   4.637   6.651 -0.3346  0.6755 -0.0041
  189SLPC   C2221801   6.154   4.680   6.839  0.1511 -0.0707  1.0040
  189SLPC   H2R21802   6.176   4.593   6.904 -1.3646 -0.2757  1.2627
  189SLPC   H2S21803   6.236   4.754   6.830  0.3199 -0.5347 -1.3962
  189SLPC    C321804   6.147   4.357   6.547 -0.7897  0.1042 -0.7934
  189SLPC    HX21805   6.229   4.304   6.599 -1.5648 -1.9294 -1.5844
  189SLPC    HY21806   6.125   4.314   6.447  0.2379  0.6272 -1.2519
  189SLPC   O3121807   6.033   4.355   6.632  0.0010  0.3257 -0.1490
  189SLPC   C3121808   5.992   4.235   6.676 -0.4672 -0.3051 -0.8002
  189SLPC   O3221809   6.049   4.132   6.654  0.5082  0.3934  0.1703
  189SLPC   C3221810   5.882   4.250   6.772 -0.5400 -0.4933 -0.8838
  189SLPC   H2X21811   5.875   4.157   6.832  0.8358  0.8882  1.4823
  189SLPC   H2Y21812   5.790   4.264   6.711  0.0028 -1.5530 -1.9748
  189SLPC   C2321813   6.047   4.771   6.903 -0.2577  0.2708  0.0875
  189SLPC   H3R21814   5.947   4.732   6.875  0.0969  0.2721 -1.2448
  189SLPC   H3S21815   6.058   4.874   6.862  0.4817  0.5119  0.8853
  189SLPC   C2421816   6.060   4.782   7.055 -0.7488  0.3491  0.3315
  189SLPC   H4R21817   6.163   4.821   7.069 -0.4610 -0.8842  1.7465
  189SLPC   H4S21818   6.067   4.686   7.111  0.3820  0.0001 -0.3910
  189SLPC   C2521819   5.957   4.867   7.115  0.1118 -0.4005 -0.6852
  189SLPC   H5R21820   5.856   4.822   7.105  0.3714 -1.1070 -0.1840
  189SLPC   H5S21821   5.949   4.963   7.060 -0.9951  0.0555  0.2351
  189SLPC   C2621822   6.003   4.899   7.252 -0.1170  0.0884 -0.3301
  189SLPC   H6R21823   6.102   4.950   7.254  1.5976 -3.1146  0.9147
  189SLPC   H6S21824   6.020   4.803   7.305  0.7924 -0.5184 -1.7047
  189SLPC   C2721825   5.893   4.983   7.322  0.7341 -0.0593  0.0188
  189SLPC   H7R21826   5.795   4.932   7.314  1.3136 -0.8234 -2.8223
  189SLPC   H7S21827   5.886   5.076   7.262  0.1957 -0.3524 -0.3818
  189SLPC   C2821828   5.953   5.032   7.455  0.3630 -0.8106 -0.7873
  189SLPC   H8R21829   5.878   5.102   7.499  2.0617 -0.2817  1.3779
  189SLPC   H8S21830   6.041   5.093   7.424 -0.7853  0.0559 -2.4023
  189SLPC   C2921831   5.983   4.929   7.560 -0.5694  0.2533 -0.5051
  189SLPC   H9R21832   6.045   4.850   7.516  1.0777  1.2298  0.0016
  189SLPC  C21021833   5.963   4.932   7.691 -0.8730 -0.4855  0.1209
  189SLPC  H10R21834   5.987   4.841   7.747  0.3611 -1.3619 -1.7524
  189SLPC  C21121835   5.898   5.039   7.775 -0.7398 -0.3751 -0.1913
  189SLPC  H11R21836   5.841   5.112   7.714  0.2503  1.3368  0.8956
  189SLPC  H11S21837   5.984   5.089   7.824  0.5517  0.3688 -3.0829
  189SLPC  C21221838   5.798   4.991   7.876 -0.0402 -0.5512  0.2125
  189SLPC  H12R21839   5.703   4.958   7.832 -0.1847  0.0068  0.1069
  189SLPC  C21321840   5.820   4.980   8.011 -0.4435  0.3773 -0.4224
  189SLPC  H13R21841   5.733   4.948   8.070 -0.2924 -0.5688 -0.7027
  189SLPC  C21421842   5.948   5.004   8.089  0.3947 -0.1337  0.0751
  189SLPC  H14R21843   5.928   5.019   8.197 -1.3582 -0.0357 -0.2345
  189SLPC  H14S21844   6.001   5.089   8.042 -0.8788  0.1070 -0.9510
  189SLPC  C21521845   6.043   4.883   8.081 -0.2002  0.1929  0.0332
  189SLPC  H15R21846   6.135   4.919   8.132 -0.3749  0.4058  0.1973
  189SLPC  H15S21847   6.068   4.868   7.974  0.1834 -0.3750  0.1987
  189SLPC  C21621848   5.992   4.760   8.149 -0.2921 -0.0418 -0.9456
  189SLPC  H16R21849   6.058   4.671   8.137  1.4643  1.1819 -0.5339
  189SLPC  H16S21850   5.895   4.733   8.101 -0.3429  0.7328 -1.2833
  189SLPC  C21721851   5.972   4.780   8.295  0.5555  0.1075  0.3421
  189SLPC  H17R21852   5.872   4.823   8.317  0.9225 -1.2166  5.2268
  189SLPC  H17S21853   6.048   4.850   8.336 -0.0435  1.3515 -0.6396
  189SLPC  C21821854   5.988   4.655   8.379  0.6428  0.2310 -0.5984
  189SLPC  H18R21855   5.929   4.570   8.338  1.5468 -1.4489  1.4773
  189SLPC  H18S21856   5.943   4.673   8.480 -0.8469  0.0407 -1.2119
  189SLPC  H18T21857   6.095   4.627   8.386  0.9118  0.2915 -3.8283
  189SLPC   C3321858   5.915   4.362   6.871  0.2503  0.1297 -0.7394
  189SLPC   H3X21859   5.913   4.462   6.822 -0.7697  0.1950 -0.5963
  189SLPC   H3Y21860   6.016   4.334   6.906  0.5215  0.1364 -1.5270
  189SLPC   C3421861   5.824   4.363   6.991  0.2496  0.0286 -0.7047
  189SLPC   H4X21862   5.846   4.277   7.058 -1.7002 -0.1634 -0.2659
  189SLPC   H4Y21863   5.718   4.342   6.963 -1.0779  1.5533  2.9400
  189SLPC   C3521864   5.819   4.497   7.072 -0.1257 -0.0264  0.8607
  189SLPC   H5X21865   5.809   4.585   7.005 -1.6452 -0.6714  0.2194
  189SLPC   H5Y21866   5.922   4.511   7.111  0.3292  2.9790 -1.2492
  189SLPC   C3621867   5.724   4.490   7.190 -0.2214 -1.0322 -0.1403
  189SLPC   H6X21868   5.722   4.387   7.230  0.2220 -1.4216 -1.1103
  189SLPC   H6Y21869   5.622   4.512   7.152 -0.0449 -0.4289 -0.2720
  189SLPC   C3721870   5.749   4.600   7.301 -0.1384 -0.2704  0.8829
  189SLPC   H7X21871   5.726   4.702   7.264 -2.2741 -0.1478  2.3829
  189SLPC   H7Y21872   5.856   4.608   7.330  0.4025 -2.1089 -0.5539
  189SLPC   C3821873   5.661   4.574   7.425 -0.5058  0.0585  0.5671
  189SLPC   H8X21874   5.662   4.465   7.447 -3.1985  0.3449  2.2773
  189SLPC   H8Y21875   5.556   4.597   7.398 -0.8737 -2.4629 -0.2899
  189SLPC   C3921876   5.682   4.650   7.556  0.3811 -0.4597 -1.1493
  189SLPC   H9X21877   5.678   4.760   7.544 -0.2956 -0.3941 -0.3089
  189SLPC   H9Y21878   5.786   4.623   7.585 -0.5304 -2.7116  0.1044
  189SLPC  C31021879   5.577   4.603   7.659 -0.2500 -0.0115 -0.1004
  189SLPC  H10X21880   5.589   4.493   7.668  1.3749  0.1492 -0.1849
  189SLPC  H10Y21881   5.475   4.619   7.618 -2.2043 -0.3309  4.3507
  189SLPC  C31121882   5.597   4.676   7.791 -0.0423 -0.4268 -0.0704
  189SLPC  H11X21883   5.607   4.786   7.782  1.4032 -0.3964  1.7157
  189SLPC  H11Y21884   5.690   4.640   7.838  1.7294  1.6619 -1.8510
  189SLPC  C31221885   5.484   4.657   7.897  0.5963  0.0373 -0.5739
  189SLPC  H12X21886   5.482   4.551   7.931 -3.7114  0.6251  1.4135
  189SLPC  H12Y21887   5.385   4.682   7.853  0.7612 -0.2822 -1.1201
  189SLPC  C31321888   5.513   4.741   8.025 -0.7855  0.1681 -0.1144
  189SLPC  H13X21889   5.525   4.849   8.006  0.0805 -0.2790 -2.2196
  189SLPC  H13Y21890   5.607   4.702   8.069  1.1248  2.7206 -1.8226
  189SLPC  C31421891   5.397   4.739   8.133  0.8243  0.2007 -0.1710
  189SLPC  H14X21892   5.360   4.634   8.129  2.4710 -0.4048  0.0552
  189SLPC  H14Y21893   5.312   4.806   8.108  0.7253  0.4005  0.6763
  189SLPC  C31521894   5.445   4.784   8.271  0.3926 -0.0155 -0.3432
  189SLPC  H15X21895   5.366   4.820   8.340  1.0187  2.6498 -0.9666
  189SLPC  H15Y21896   5.505   4.878   8.268 -1.0786  0.9866  0.9053
  189SLPC  C31621897   5.527   4.679   8.355  0.4198  0.1721 -0.0024
  189SLPC  H16X21898   5.598   4.618   8.294  0.9875 -2.9961  3.6411
  189SLPC  H16Y21899   5.463   4.600   8.400 -0.1029  0.7802  0.3357
  189SLPC  C31721900   5.594   4.744   8.479  0.2506 -0.2422  0.3281
  189SLPC  H17X21901   5.659   4.824   8.438  1.0661 -1.1308 -0.1666
  189SLPC  H17Y21902   5.666   4.676   8.529 -1.0219 -1.3183  0.7276
  189SLPC  C31821903   5.511   4.803   8.588 -0.0343 -0.6840  0.1299
  189SLPC  H18X21904   5.440   4.875   8.543  0.6665 -2.0533 -3.3164
  189SLPC  H18Y21905   5.579   4.850   8.662 -0.5214  0.9332 -0.4253
  189SLPC  H18Z21906   5.447   4.732   8.643 -1.3857  2.9744  3.5487
  190SLPC     N21907   6.127   3.160   6.264  0.3055  0.4771  0.3725
  190SLPC   C1321908   6.183   3.253   6.163 -0.0187 -0.1676  0.2350
  190SLPC  H13A21909   6.288   3.272   6.181  0.2894 -2.0801  0.5368
  190SLPC  H13B21910   6.181   3.198   6.070  1.2932  3.4999 -2.0959
  190SLPC  H13C21911   6.129   3.347   6.153  0.0307 -0.2319 -0.6214
  190SLPC   C1421912   6.197   3.028   6.243 -0.2183 -0.3884 -0.5639
  190SLPC  H14A21913   6.155   2.958   6.314 -1.2775 -1.9210 -2.6710
  190SLPC  H14B21914   6.177   2.995   6.143  2.6781 -0.1464 -1.2850
  190SLPC  H14C21915   6.300   3.041   6.273 -0.5051 -1.9981  1.2502
  190SLPC   C1521916   5.975   3.140   6.247  0.6247  0.6776  0.5978
  190SLPC  H15A21917   5.916   3.230   6.257  0.3716  0.6845 -0.9248
  190SLPC  H15B21918   5.945   3.103   6.150  4.0535 -0.3038 -0.1735
  190SLPC  H15C21919   5.939   3.069   6.319 -1.3960 -3.6045 -4.3603
  190SLPC   C1221920   6.170   3.210   6.407 -0.1034  0.8725  0.3657
  190SLPC  H12A21921   6.131   3.144   6.482  2.4932 -3.1138 -1.6481
  190SLPC  H12B21922   6.111   3.301   6.409  0.2827  1.1062  2.8923
  190SLPC   C1121923   6.323   3.242   6.433 -0.1703  0.4228  0.5079
  190SLPC  H11A21924   6.376   3.146   6.419  0.2668  0.3586  2.4336
  190SLPC  H11B21925   6.339   3.270   6.540  1.6327  0.7109  0.1650
  190SLPC     P21926   6.335   3.487   6.365 -0.5320 -0.0682  0.0811
  190SLPC   O1321927   6.394   3.551   6.488 -0.4602  0.0506  0.2191
  190SLPC   O1421928   6.369   3.548   6.241  0.2483 -0.8278  0.3668
  190SLPC   O1221929   6.380   3.340   6.348  0.6584  0.0807 -0.2212
  190SLPC   O1121930   6.184   3.491   6.380 -0.3173 -0.4811  0.1873
  190SLPC    C121931   6.103   3.593   6.422 -0.6843  0.4266  0.1663
  190SLPC    HA21932   6.168   3.674   6.461 -2.1418  2.0309 -0.6451
  190SLPC    HB21933   6.049   3.633   6.333  0.8743  0.4852 -0.7771
  190SLPC    C221934   6.007   3.564   6.535 -0.1054  0.1538 -0.7233
  190SLPC    HS21935   5.965   3.661   6.571  0.9184  0.7728 -1.1833
  190SLPC   O2121936   6.067   3.496   6.644  0.0289  0.4896  0.2340
  190SLPC   C2121937   6.136   3.579   6.717  1.0905  0.4713 -0.1174
  190SLPC   O2221938   6.120   3.698   6.724  0.4605  0.2585  0.9578
  190SLPC   C2221939   6.236   3.503   6.812  0.1536 -0.3742  0.5947
  190SLPC   H2R21940   6.176   3.451   6.891  2.4623 -0.0328  2.6310
  190SLPC   H2S21941   6.275   3.418   6.753  0.0018  0.0869 -0.1729
  190SLPC    C321942   5.894   3.466   6.482  0.3329  0.3412 -0.0796
  190SLPC    HX21943   5.942   3.374   6.441 -0.4174 -1.1412  2.2925
  190SLPC    HY21944   5.846   3.526   6.401 -0.0991  0.5926  0.3578
  190SLPC   O3121945   5.797   3.438   6.593 -0.6212  0.0784 -0.2641
  190SLPC   C3121946   5.753   3.318   6.583 -0.0209 -0.5556 -0.5633
  190SLPC   O3221947   5.786   3.231   6.504 -0.1900 -0.6114 -0.1390
  190SLPC   C3221948   5.655   3.293   6.696 -0.3383  0.4369 -0.1412
  190SLPC   H2X21949   5.560   3.247   6.663 -0.3658  0.3173  0.1032
  190SLPC   H2Y21950   5.633   3.388   6.748  0.2974  0.4814  0.0588
  190SLPC   C2321951   6.349   3.586   6.862  0.2012  0.0854  0.0095
  190SLPC   H3R21952   6.391   3.643   6.776 -0.1351 -0.7451 -0.7091
  190SLPC   H3S21953   6.420   3.514   6.907  0.5065  0.2446 -0.2161
  190SLPC   C2421954   6.312   3.686   6.973 -0.4273 -0.2366  0.5221
  190SLPC   H4R21955   6.219   3.744   6.953 -1.1631 -1.4790  0.2786
  190SLPC   H4S21956   6.404   3.748   6.972 -0.9177  0.5338  1.8214
  190SLPC   C2521957   6.313   3.624   7.120  0.3760  0.9562 -0.7402
  190SLPC   H5R21958   6.395   3.550   7.131 -1.4409 -0.7830  1.8011
  190SLPC   H5S21959   6.220   3.564   7.137  1.1291  0.4823  1.8796
  190SLPC   C2621960   6.321   3.739   7.225  0.3674 -0.2724  0.3858
  190SLPC   H6R21961   6.241   3.816   7.215  0.6529 -0.0460 -0.1911
  190SLPC   H6S21962   6.413   3.798   7.206 -0.0167 -0.5790 -2.8465
  190SLPC   C2721963   6.330   3.686   7.376  0.2027 -0.2185  0.0543
  190SLPC   H7R21964   6.399   3.600   7.362 -0.7155 -0.9061 -0.2891
  190SLPC   H7S21965   6.229   3.653   7.408  0.0477  2.0631  2.0297
  190SLPC   C2821966   6.393   3.784   7.471  0.1338  0.5049  0.3493
  190SLPC   H8R21967   6.500   3.800   7.444  0.0222  0.1354 -0.3243
  190SLPC   H8S21968   6.392   3.730   7.569 -0.5131  0.3472  0.2575
  190SLPC   C2921969   6.330   3.918   7.494 -1.0637  0.6904  0.5782
  190SLPC   H9R21970   6.255   3.950   7.420  0.5890 -0.7247 -1.7786
  190SLPC  C21021971   6.353   3.997   7.608 -0.4151  0.0421 -0.1646
  190SLPC  H10R21972   6.306   4.096   7.605 -1.4362 -0.4507 -0.7102
  190SLPC  C21121973   6.449   3.952   7.722  0.4744 -0.5187 -0.1164
  190SLPC  H11R21974   6.540   3.901   7.684  0.3102 -1.9516  1.3421
  190SLPC  H11S21975   6.396   3.879   7.786  0.3039  0.2576  0.6273
  190SLPC  C21221976   6.484   4.070   7.809  0.2921 -0.6047 -0.4213
  190SLPC  H12R21977   6.529   4.154   7.754 -0.9465  0.4955  0.2449
  190SLPC  C21321978   6.435   4.086   7.934 -0.4470  0.5922 -0.9405
  190SLPC  H13R21979   6.483   4.167   7.992  1.5634 -2.1174  1.3147
  190SLPC  C21421980   6.349   3.989   8.026 -0.2101  0.6180 -0.5888
  190SLPC  H14R21981   6.335   3.899   7.963  0.3168  1.1551 -1.4777
  190SLPC  H14S21982   6.248   4.028   8.051 -0.0284  0.0188  1.1418
  190SLPC  C21521983   6.427   3.954   8.156  0.5037 -0.0919 -0.0352
  190SLPC  H15R21984   6.535   3.937   8.135  1.1622  1.6415  1.7046
  190SLPC  H15S21985   6.389   3.860   8.201 -1.8834  0.5813 -0.5857
  190SLPC  C21621986   6.426   4.077   8.255 -0.0873 -0.3232  0.2278
  190SLPC  H16R21987   6.319   4.101   8.272 -1.1641 -2.9916 -2.2190
  190SLPC  H16S21988   6.478   4.162   8.207 -0.4751 -1.9629 -3.2093
  190SLPC  C21721989   6.497   4.035   8.388 -0.0558  0.3362 -0.0622
  190SLPC  H17R21990   6.602   4.005   8.374 -0.0114  0.7088 -0.5561
  190SLPC  H17S21991   6.437   3.950   8.428  1.3430 -0.0274  1.2717
  190SLPC  C21821992   6.481   4.142   8.492  0.4341 -0.4683 -0.4052
  190SLPC  H18R21993   6.524   4.236   8.451 -1.8640  0.2267 -1.2877
  190SLPC  H18S21994   6.526   4.115   8.590 -1.0395  2.5962  1.1939
  190SLPC  H18T21995   6.375   4.172   8.508  0.5778  0.5730 -1.3943
  190SLPC   C3321996   5.726   3.204   6.797 -0.6728 -0.5249 -0.8933
  190SLPC   H3X21997   5.810   3.264   6.837 -0.5367 -0.8390 -0.7021
  190SLPC   H3Y21998   5.764   3.115   6.741  1.2099 -0.0450 -0.4102
  190SLPC   C3421999   5.647   3.169   6.922  0.0638  0.4336 -0.1065
  190SLPC   H4X22000   5.708   3.089   6.969 -3.0659 -2.2219 -0.4079
  190SLPC   H4Y22001   5.553   3.124   6.884  1.8280 -1.5989 -2.2159
  190SLPC   C3522002   5.643   3.279   7.018  0.4297 -0.7140 -0.3887
  190SLPC   H5X22003   5.579   3.363   6.982  3.2087  2.2849  1.3632
  190SLPC   H5Y22004   5.741   3.328   7.034  0.3748 -0.8343  0.3143
  190SLPC   C3622005   5.573   3.243   7.154 -0.4350 -0.6631 -0.3666
  190SLPC   H6X22006   5.635   3.162   7.199  2.2399 -0.1704 -3.0504
  190SLPC   H6Y22007   5.474   3.195   7.139 -0.2834 -1.7141  1.6598
  190SLPC   C3722008   5.554   3.367   7.238  0.0339 -0.0622 -1.0240
  190SLPC   H7X22009   5.495   3.438   7.175  0.4525 -0.0792 -1.4378
  190SLPC   H7Y22010   5.646   3.420   7.268 -1.2679  0.3489  2.4293
  190SLPC   C3822011   5.463   3.363   7.369  0.8041  0.8499  0.7637
  190SLPC   H8X22012   5.363   3.353   7.322 -0.2608  4.4445  2.1044
  190SLPC   H8Y22013   5.479   3.465   7.408  1.5725  1.4819 -1.1542
  190SLPC   C3922014   5.506   3.249   7.462  0.0058 -0.1865  0.1144
  190SLPC   H9X22015   5.502   3.148   7.415 -1.3231 -0.1383  0.0958
  190SLPC   H9Y22016   5.437   3.253   7.549 -0.2120 -0.3233 -0.0508
  190SLPC  C31022017   5.650   3.249   7.508 -0.5879  0.4208 -0.1121
  190SLPC  H10X22018   5.683   3.341   7.561  0.5218 -0.5180  0.8749
  190SLPC  H10Y22019   5.721   3.240   7.423 -2.2581  0.9993 -1.6128
  190SLPC  C31122020   5.673   3.132   7.600  0.1702  0.1215 -0.0622
  190SLPC  H11X22021   5.676   3.036   7.545  1.0310  1.2177 -1.9467
  190SLPC  H11Y22022   5.597   3.123   7.680  1.2261  2.0465  1.2144
  190SLPC  C31222023   5.802   3.151   7.679  0.3174  0.2027 -0.6035
  190SLPC  H12X22024   5.821   3.252   7.721  0.7812 -0.8542  1.8490
  190SLPC  H12Y22025   5.889   3.137   7.612 -0.2449 -3.7795 -0.6272
  190SLPC  C31322026   5.818   3.062   7.805 -0.8193 -0.3326  0.3080
  190SLPC  H13X22027   5.822   2.956   7.771  3.8420 -0.5085  1.0060
  190SLPC  H13Y22028   5.721   3.062   7.859 -0.8381  0.9321  0.2789
  190SLPC  C31422029   5.934   3.106   7.898 -0.1285  0.4830  0.4428
  190SLPC  H14X22030   5.935   3.217   7.897  0.6822  0.4767 -0.2511
  190SLPC  H14Y22031   6.030   3.059   7.865 -0.6857 -0.3622  0.0166
  190SLPC  C31522032   5.905   3.073   8.051  0.2839  0.6145  0.0178
  190SLPC  H15X22033   6.005   3.073   8.099  0.3259  0.0342 -0.0664
  190SLPC  H15Y22034   5.869   2.968   8.065 -1.5647  1.2347 -0.0200
  190SLPC  C31622035   5.811   3.178   8.117  0.4633  0.4953  0.7337
  190SLPC  H16X22036   5.703   3.162   8.100  0.3643  1.1028  0.7968
  190SLPC  H16Y22037   5.843   3.277   8.078 -0.2425  0.4097 -0.0613
  190SLPC  C31722038   5.828   3.191   8.270  0.2202  0.2732 -0.1451
  190SLPC  H17X22039   5.756   3.269   8.301 -1.6996 -2.2451  1.9353
  190SLPC  H17Y22040   5.934   3.221   8.288  0.2235  0.1713  0.0087
  190SLPC  C31822041   5.789   3.063   8.337 -0.6000  0.0066  0.5155
  190SLPC  H18X22042   5.687   3.023   8.316  0.4185 -2.8003  0.7525
  190SLPC  H18Y22043   5.800   3.079   8.447  0.5967 -0.6273  0.4945
  190SLPC  H18Z22044   5.858   2.982   8.306 -0.4548  0.3356 -0.0163
  191SLPC     N22045   5.551   5.815   5.507  0.2282 -0.0638  0.1780
  191SLPC   C1322046   5.410   5.816   5.461 -0.1542 -0.8072  0.1806
  191SLPC  H13A22047   5.392   5.795   5.356  0.2059 -1.3760  0.2288
  191SLPC  H13B22048   5.355   5.745   5.522 -1.8739  1.7705  1.7041
  191SLPC  H13C22049   5.369   5.915   5.475 -1.4967 -1.3548  0.2266
  191SLPC   C1422050   5.629   5.877   5.396 -0.8223 -0.7539  0.3289
  191SLPC  H14A22051   5.614   5.826   5.302 -1.8357 -0.6254  0.4148
  191SLPC  H14B22052   5.616   5.981   5.373  0.5433 -0.6010  0.2610
  191SLPC  H14C22053   5.734   5.862   5.414 -0.0490  1.0754 -2.4187
  191SLPC   C1522054   5.581   5.670   5.515 -0.0625  0.2905 -0.2205
  191SLPC  H15A22055   5.551   5.636   5.613 -1.2336  0.8133 -0.3975
  191SLPC  H15B22056   5.528   5.622   5.434 -1.2291  0.9737  0.1395
  191SLPC  H15C22057   5.688   5.652   5.515  0.1249  1.3498 -1.2456
  191SLPC   C1222058   5.570   5.884   5.633 -0.3518 -0.4263  0.6443
  191SLPC  H12A22059   5.549   5.989   5.620  2.5159  0.3296  1.7909
  191SLPC  H12B22060   5.674   5.882   5.660  0.1667 -0.7418 -1.3273
  191SLPC   C1122061   5.503   5.826   5.771  0.4247  0.3369 -0.7102
  191SLPC  H11A22062   5.396   5.803   5.752  0.6385 -1.8354  0.6004
  191SLPC  H11B22063   5.500   5.900   5.855 -1.8198  0.2096 -0.6524
  191SLPC     P22064   5.714   5.726   5.878 -0.2473  0.1844  0.0178
  191SLPC   O1322065   5.773   5.593   5.900  0.5142 -0.1864 -0.2679
  191SLPC   O1422066   5.795   5.823   5.797  0.0914  0.4250 -0.4671
  191SLPC   O1222067   5.568   5.707   5.812 -0.2848 -0.3785  0.0926
  191SLPC   O1122068   5.668   5.776   6.023  0.2610 -0.3108 -0.6550
  191SLPC    C122069   5.553   5.713   6.090  0.2733 -0.5164  0.7314
  191SLPC    HA22070   5.468   5.784   6.094 -2.3293 -3.3945 -0.4588
  191SLPC    HB22071   5.516   5.624   6.035  0.4488 -0.0495 -0.1501
  191SLPC    C222072   5.570   5.679   6.241  0.2260  0.5825  0.5195
  191SLPC    HS22073   5.506   5.589   6.252  0.8777 -0.1859 -1.7116
  191SLPC   O2122074   5.531   5.786   6.334  0.3287 -0.0974  0.3649
  191SLPC   C2122075   5.444   5.756   6.432 -0.4137  0.7683 -0.6797
  191SLPC   O2222076   5.400   5.643   6.448  0.8700  0.5788  0.3481
  191SLPC   C2222077   5.408   5.876   6.525 -0.0257  0.1148  0.4642
  191SLPC   H2R22078   5.389   5.960   6.456 -0.2139 -1.9461 -2.0595
  191SLPC   H2S22079   5.313   5.849   6.576 -0.4667 -1.3397 -1.1046
  191SLPC    C322080   5.720   5.635   6.278  0.4389 -0.3639  0.3391
  191SLPC    HX22081   5.789   5.712   6.239 -0.8623  1.5159  1.6665
  191SLPC    HY22082   5.739   5.537   6.229  0.7703 -1.4070  2.5027
  191SLPC   O3122083   5.728   5.616   6.423  0.5876 -0.1272  0.1715
  191SLPC   C3122084   5.677   5.500   6.466  0.4125  0.0834  0.5466
  191SLPC   O3222085   5.621   5.417   6.394  0.1662  0.2664  0.7149
  191SLPC   C3222086   5.720   5.492   6.614 -0.3763  0.2153  0.5702
  191SLPC   H2X22087   5.747   5.595   6.644  0.5072 -0.0445  0.6851
  191SLPC   H2Y22088   5.811   5.428   6.617  0.7019  1.6143 -0.8820
  191SLPC   C2322089   5.512   5.923   6.625 -0.0615  0.3580 -0.0254
  191SLPC   H3R22090   5.484   6.026   6.654 -4.0095 -1.5147  3.3203
  191SLPC   H3S22091   5.616   5.917   6.587  0.1717 -3.0187  0.9664
  191SLPC   C2422092   5.504   5.838   6.755 -0.2648  0.0277  0.7597
  191SLPC   H4R22093   5.523   5.732   6.728 -0.7461  0.4814 -1.4599
  191SLPC   H4S22094   5.401   5.838   6.797 -0.7617 -2.4791 -0.3733
  191SLPC   C2522095   5.611   5.856   6.865 -0.6318  0.0565  0.0992
  191SLPC   H5R22096   5.713   5.841   6.824  0.4428  1.7869  2.0330
  191SLPC   H5S22097   5.591   5.783   6.946  1.9455  1.1815  1.8181
  191SLPC   C2622098   5.607   5.998   6.916  0.4041  0.5279 -0.1041
  191SLPC   H6R22099   5.501   6.031   6.918 -0.6364 -2.7864  2.2997
  191SLPC   H6S22100   5.668   6.059   6.845 -0.1291  2.0861  0.7357
  191SLPC   C2722101   5.686   5.998   7.043 -0.2567 -0.2168  0.6491
  191SLPC   H7R22102   5.750   6.088   7.042  0.2753 -0.5967 -2.2893
  191SLPC   H7S22103   5.750   5.907   7.051 -0.1388 -0.2846 -0.9078
  191SLPC   C2822104   5.584   6.005   7.168 -1.3282 -0.2845  0.1364
  191SLPC   H8R22105   5.517   5.916   7.178 -0.0223 -1.0890  2.1228
  191SLPC   H8S22106   5.528   6.100   7.156 -1.0802  0.0668  1.6760
  191SLPC   C2922107   5.673   6.013   7.294 -0.4684  0.5490  0.2571
  191SLPC   H9R22108   5.695   6.117   7.321 -0.9248  0.5344  0.6896
  191SLPC  C21022109   5.720   5.908   7.361  1.0443 -0.6744  0.2945
  191SLPC  H10R22110   5.780   5.942   7.446  1.0300  0.8920 -0.2964
  191SLPC  C21122111   5.683   5.768   7.333  0.4402  0.0517  0.0800
  191SLPC  H11R22112   5.734   5.729   7.243 -0.5666 -0.2558 -0.3673
  191SLPC  H11S22113   5.572   5.775   7.325  0.2443 -2.7755 -0.1269
  191SLPC  C21222114   5.731   5.681   7.450  0.5793 -0.7682 -0.1900
  191SLPC  H12R22115   5.823   5.624   7.430  2.4380  2.8097 -2.3274
  191SLPC  C21322116   5.675   5.683   7.573 -0.3307 -0.1816 -0.0144
  191SLPC  H13R22117   5.708   5.604   7.641  1.6637  1.0448  0.4610
  191SLPC  C21422118   5.554   5.762   7.613 -0.5138  0.1681  0.1644
  191SLPC  H14R22119   5.519   5.831   7.533  1.2498  0.2499 -0.5818
  191SLPC  H14S22120   5.598   5.833   7.686  0.7077 -0.0881 -0.3099
  191SLPC  C21522121   5.448   5.674   7.666 -0.0004  0.2232 -0.6074
  191SLPC  H15R22122   5.359   5.735   7.691 -0.1768 -0.0825 -0.4867
  191SLPC  H15S22123   5.481   5.626   7.761 -0.7483 -3.2135 -2.0081
  191SLPC  C21622124   5.401   5.574   7.557 -0.0501 -0.1748 -0.2512
  191SLPC  H16R22125   5.346   5.491   7.606  0.8034 -0.6972 -0.1742
  191SLPC  H16S22126   5.485   5.526   7.501  1.5427  3.7053 -1.3441
  191SLPC  C21722127   5.300   5.627   7.455  0.2593  0.4774 -0.1212
  191SLPC  H17R22128   5.349   5.707   7.395 -0.1456  0.2253 -0.7967
  191SLPC  H17S22129   5.208   5.673   7.497  0.5512 -0.4373  1.5660
  191SLPC  C21822130   5.265   5.518   7.348  0.2558 -0.0082 -0.7685
  191SLPC  H18R22131   5.360   5.474   7.309  0.3658  2.0368 -2.9497
  191SLPC  H18S22132   5.216   5.554   7.254  0.6007 -0.2845 -1.0582
  191SLPC  H18T22133   5.206   5.435   7.392 -0.6784  0.3929 -1.2603
  191SLPC   C3322134   5.614   5.436   6.706 -0.5866 -0.0099 -0.1567
  191SLPC   H3X22135   5.577   5.337   6.675  0.2982 -0.5478  0.4811
  191SLPC   H3Y22136   5.527   5.503   6.723 -0.4273  0.2765 -0.4581
  191SLPC   C3422137   5.651   5.410   6.849  0.0234 -0.2699  0.4184
  191SLPC   H4X22138   5.666   5.509   6.896 -0.0471 -0.2627  0.4257
  191SLPC   H4Y22139   5.753   5.365   6.844  0.4149  0.6562 -0.0783
  191SLPC   C3522140   5.555   5.322   6.931 -0.3450 -0.2413 -0.0912
  191SLPC   H5X22141   5.529   5.233   6.868  1.5201 -1.1977  0.4563
  191SLPC   H5Y22142   5.461   5.380   6.943  0.2265  0.5292  0.7032
  191SLPC   C3622143   5.605   5.299   7.071  0.2766  0.2356 -0.3327
  191SLPC   H6X22144   5.607   5.393   7.131  0.2089 -0.8637  1.4220
  191SLPC   H6Y22145   5.706   5.255   7.074  0.1221 -0.0927  0.0784
  191SLPC   C3722146   5.512   5.209   7.154  0.6318 -0.0054 -0.1462
  191SLPC   H7X22147   5.500   5.117   7.093 -1.2966 -0.2093  0.5197
  191SLPC   H7Y22148   5.408   5.245   7.165  0.7830  0.2741  0.3907
  191SLPC   C3822149   5.570   5.188   7.296  0.3049  0.0758  0.0800
  191SLPC   H8X22150   5.558   5.284   7.350 -0.2101  1.0522 -1.7273
  191SLPC   H8Y22151   5.669   5.138   7.298  0.2526 -0.1897 -2.2231
  191SLPC   C3922152   5.473   5.103   7.392 -0.1702 -0.1918  0.0941
  191SLPC   H9X22153   5.489   4.997   7.362 -0.9499  0.0455 -1.1841
  191SLPC   H9Y22154   5.371   5.124   7.352  0.1871  0.3541 -0.5396
  191SLPC  C31022155   5.465   5.142   7.547 -0.1766 -0.0577  0.5987
  191SLPC  H10X22156   5.415   5.065   7.610  2.0098 -0.5615  1.7315
  191SLPC  H10Y22157   5.402   5.234   7.551  0.7668  0.6033  0.2258
  191SLPC  C31122158   5.598   5.191   7.606 -0.3702 -0.2450 -0.5166
  191SLPC  H11X22159   5.655   5.271   7.553  1.0177 -1.0772 -0.3218
  191SLPC  H11Y22160   5.667   5.104   7.608 -0.4688 -0.3105  0.1968
  191SLPC  C31222161   5.587   5.249   7.750  0.0506  0.4968 -0.2450
  191SLPC  H12X22162   5.547   5.352   7.737 -3.9060 -0.9527 -0.2368
  191SLPC  H12Y22163   5.693   5.268   7.779  0.6093 -0.5847 -1.5449
  191SLPC  C31322164   5.505   5.171   7.857 -0.0138 -1.1089  0.0127
  191SLPC  H13X22165   5.527   5.062   7.846  3.3698 -0.3155 -1.6706
  191SLPC  H13Y22166   5.399   5.188   7.829  0.2248 -1.0778 -0.8935
  191SLPC  C31422167   5.540   5.231   7.991  0.2223  0.4378  0.1569
  191SLPC  H14X22168   5.537   5.342   7.993  0.8916  0.4911 -1.2648
  191SLPC  H14Y22169   5.643   5.194   8.009 -0.5581 -2.1075 -0.5152
  191SLPC  C31522170   5.440   5.173   8.103  0.3792 -0.6385 -0.5004
  191SLPC  H15X22171   5.438   5.063   8.093  1.8878 -0.7742  0.6023
  191SLPC  H15Y22172   5.340   5.212   8.071  0.4351  3.3955  3.6994
  191SLPC  C31622173   5.481   5.214   8.246  0.5692 -0.1939  0.1696
  191SLPC  H16X22174   5.588   5.184   8.252  1.3627  2.4343 -0.1850
  191SLPC  H16Y22175   5.431   5.147   8.319  2.8199 -0.0326  1.8851
  191SLPC  C31722176   5.479   5.361   8.276 -0.0916  0.1031  0.5394
  191SLPC  H17X22177   5.559   5.418   8.224 -0.4062  0.9335  0.9671
  191SLPC  H17Y22178   5.505   5.372   8.384 -1.4785  0.2692  0.8718
  191SLPC  C31822179   5.334   5.415   8.254  0.3826  0.5262 -0.4565
  191SLPC  H18X22180   5.268   5.367   8.329  0.1921  1.9827  0.3301
  191SLPC  H18Y22181   5.302   5.399   8.149 -1.8220 -1.5225  0.4823
  191SLPC  H18Z22182   5.322   5.524   8.274 -1.4931 -0.0121  1.4949
  192SLPC     N22183   6.440   6.508   5.967  0.8241 -0.2080  0.0515
  192SLPC   C1322184   6.386   6.649   5.958 -0.1553 -0.3803 -0.0958
  192SLPC  H13A22185   6.282   6.667   5.935  0.8453  1.9025 -3.2303
  192SLPC  H13B22186   6.412   6.703   6.048 -1.9353 -1.1283  0.8939
  192SLPC  H13C22187   6.439   6.698   5.878 -0.7357 -0.3328 -0.4500
  192SLPC   C1422188   6.587   6.512   6.000  0.5991 -0.1310  0.0858
  192SLPC  H14A22189   6.638   6.568   5.922 -1.4946 -0.6802 -1.7331
  192SLPC  H14B22190   6.614   6.562   6.092 -0.3869  2.0268 -0.7372
  192SLPC  H14C22191   6.631   6.414   6.008  0.8030 -0.0462  0.0261
  192SLPC   C1522192   6.421   6.453   5.827 -0.7875 -0.3779  0.0664
  192SLPC  H15A22193   6.316   6.434   5.813 -1.0750 -0.7203  2.4402
  192SLPC  H15B22194   6.452   6.519   5.748 -1.0202  0.1964  0.4495
  192SLPC  H15C22195   6.471   6.359   5.809 -0.7101 -0.2836 -0.2074
  192SLPC   C1222196   6.368   6.413   6.060 -0.0559 -0.0946  0.1946
  192SLPC  H12A22197   6.425   6.322   6.066  0.9786  0.5356 -0.0076
  192SLPC  H12B22198   6.271   6.392   6.018  0.5712 -0.2719 -1.1778
  192SLPC   C1122199   6.346   6.462   6.205  0.3851  0.9381  0.1535
  192SLPC  H11A22200   6.274   6.395   6.257  1.6646 -0.3519  0.3029
  192SLPC  H11B22201   6.295   6.561   6.209 -1.8759 -0.1804  0.1594
  192SLPC     P22202   6.522   6.349   6.351 -0.2027  0.0464 -0.1087
  192SLPC   O1322203   6.543   6.242   6.252 -0.3972  0.2224 -0.0566
  192SLPC   O1422204   6.643   6.389   6.429 -0.0966  0.2149  0.0221
  192SLPC   O1222205   6.468   6.475   6.273  0.3196 -0.3119  0.3127
  192SLPC   O1122206   6.407   6.310   6.452 -0.5553  0.2272  0.5190
  192SLPC    C122207   6.399   6.199   6.535 -0.5073  1.1741 -0.0053
  192SLPC    HA22208   6.309   6.142   6.506  0.0433 -0.0653  0.6682
  192SLPC    HB22209   6.487   6.134   6.517 -1.2583  0.2898 -0.4624
  192SLPC    C222210   6.396   6.232   6.683 -0.5084  0.4957 -0.7423
  192SLPC    HS22211   6.418   6.142   6.744  0.8250  0.4139 -1.3217
  192SLPC   O2122212   6.259   6.264   6.721 -0.6135 -0.2036  0.0115
  192SLPC   C2122213   6.222   6.235   6.838  0.0296  0.3114  0.1038
  192SLPC   O2222214   6.283   6.177   6.926 -0.3386 -0.6188  0.4187
  192SLPC   C2222215   6.070   6.262   6.844  0.3801 -0.3149  0.0502
  192SLPC   H2R22216   6.047   6.344   6.772  1.0501  0.8093  1.1099
  192SLPC   H2S22217   6.009   6.179   6.803  1.5369 -1.2140  0.1216
  192SLPC    C322218   6.491   6.353   6.712  0.1199 -0.6631 -0.3680
  192SLPC    HX22219   6.433   6.436   6.666 -2.6504 -1.2659  1.8499
  192SLPC    HY22220   6.589   6.349   6.661 -0.5991  0.4164 -1.8882
  192SLPC   O3122221   6.504   6.373   6.849  0.8454 -0.2377  0.3617
  192SLPC   C3122222   6.583   6.302   6.919  0.6603 -0.6941 -0.8778
  192SLPC   O3222223   6.654   6.213   6.873 -0.3748 -0.3495 -0.1421
  192SLPC   C3222224   6.578   6.334   7.070  0.7975 -0.1714  0.2006
  192SLPC   H2X22225   6.637   6.425   7.096  1.8288 -0.9886  0.7463
  192SLPC   H2Y22226   6.619   6.248   7.127  1.5031  0.8567  1.2675
  192SLPC   C2322227   6.024   6.292   6.979  0.0510 -0.3944  0.0878
  192SLPC   H3R22228   6.100   6.349   7.036  1.7545 -3.3537  0.8465
  192SLPC   H3S22229   5.996   6.195   7.026 -0.2026 -0.8412 -0.9704
  192SLPC   C2422230   5.893   6.370   6.990 -0.4484  0.2518  0.0474
  192SLPC   H4R22231   5.802   6.308   7.003  0.2315 -1.3550 -2.5625
  192SLPC   H4S22232   5.873   6.434   6.902  0.7398 -1.4510 -1.4986
  192SLPC   C2522233   5.899   6.465   7.113  0.5082 -0.7069  0.4519
  192SLPC   H5R22234   5.825   6.548   7.111  0.4394 -0.7909 -0.4027
  192SLPC   H5S22235   5.996   6.518   7.110 -1.3350  2.7532 -1.5413
  192SLPC   C2622236   5.870   6.400   7.249 -0.7772 -0.0330  0.0833
  192SLPC   H6R22237   5.932   6.316   7.286  0.7370  0.7689 -0.5670
  192SLPC   H6S22238   5.764   6.368   7.243 -0.9418  0.5357 -0.0774
  192SLPC   C2722239   5.897   6.499   7.371 -0.8998  0.5791 -1.0695
  192SLPC   H7R22240   5.849   6.596   7.348  0.1802  1.2028 -0.7180
  192SLPC   H7S22241   6.006   6.521   7.367  0.0668 -3.8253 -1.4958
  192SLPC   C2822242   5.854   6.425   7.492  0.0460 -0.3340 -0.2034
  192SLPC   H8R22243   5.899   6.325   7.511 -0.6495 -0.5413  0.3317
  192SLPC   H8S22244   5.744   6.417   7.479  0.1894 -1.5516 -0.7339
  192SLPC   C2922245   5.877   6.516   7.610 -0.3851  0.2030  0.2251
  192SLPC   H9R22246   5.913   6.618   7.596  0.5780 -0.0117  1.0806
  192SLPC  C21022247   5.883   6.477   7.737 -0.6192 -0.9488 -0.3029
  192SLPC  H10R22248   5.903   6.546   7.820  0.7231 -1.4517 -0.1996
  192SLPC  C21122249   5.863   6.331   7.792  0.3784 -0.0810 -0.5253
  192SLPC  H11R22250   5.864   6.250   7.716  2.3215 -1.7510  1.2297
  192SLPC  H11S22251   5.763   6.325   7.838 -0.1583 -0.4953 -1.7222
  192SLPC  C21222252   5.960   6.298   7.900  0.0622  1.0991  0.3402
  192SLPC  H12R22253   6.051   6.251   7.860 -0.8321  0.6483 -1.2177
  192SLPC  C21322254   5.949   6.303   8.030  0.0821 -0.3195  0.2547
  192SLPC  H13R22255   6.035   6.265   8.088  1.0821 -0.8466 -1.5180
  192SLPC  C21422256   5.837   6.355   8.114 -0.1340  0.4067 -0.4430
  192SLPC  H14R22257   5.780   6.266   8.148  0.1479 -0.4689 -2.2170
  192SLPC  H14S22258   5.763   6.416   8.059 -0.5720  1.9382  1.7583
  192SLPC  C21522259   5.868   6.431   8.242 -0.6066 -0.8473  0.0819
  192SLPC  H15R22260   5.784   6.441   8.313 -0.2400  1.5807  0.2067
  192SLPC  H15S22261   5.896   6.536   8.219 -1.9749 -0.5369 -0.2135
  192SLPC  C21622262   5.995   6.375   8.320 -0.0871 -0.4531 -0.3129
  192SLPC  H16R22263   6.087   6.410   8.267 -0.1902 -2.5948 -1.9826
  192SLPC  H16S22264   5.985   6.265   8.312 -0.7965 -0.5047  1.1878
  192SLPC  C21722265   5.981   6.412   8.465 -0.0082  0.2590  0.0123
  192SLPC  H17R22266   5.974   6.523   8.455 -0.3316  0.2222 -0.1643
  192SLPC  H17S22267   5.890   6.364   8.507  1.5102 -2.3069  0.4883
  192SLPC  C21822268   6.102   6.376   8.546 -0.1636  0.1382  0.0931
  192SLPC  H18R22269   6.117   6.266   8.554  2.4471  0.5386  1.3711
  192SLPC  H18S22270   6.108   6.414   8.650  0.4739  0.4067 -0.0355
  192SLPC  H18T22271   6.198   6.399   8.495  0.7142 -2.4619  0.4802
  192SLPC   C3322272   6.444   6.343   7.141 -1.2325 -0.4952 -1.1884
  192SLPC   H3X22273   6.382   6.250   7.140 -1.4070 -0.4233  1.6242
  192SLPC   H3Y22274   6.377   6.422   7.099 -0.1720  0.9741 -0.1203
  192SLPC   C3422275   6.456   6.389   7.286  0.4544  0.3567  0.3848
  192SLPC   H4X22276   6.507   6.487   7.298 -1.4067  1.4194 -0.1894
  192SLPC   H4Y22277   6.528   6.317   7.332 -0.4450 -1.7994 -1.4635
  192SLPC   C3522278   6.318   6.391   7.359 -0.3012 -0.2331  0.5982
  192SLPC   H5X22279   6.264   6.295   7.352  1.0140 -0.9522  0.2380
  192SLPC   H5Y22280   6.249   6.470   7.320  0.1909 -0.3163 -0.4567
  192SLPC   C3622281   6.350   6.446   7.503 -0.6985  0.2552 -0.3640
  192SLPC   H6X22282   6.350   6.556   7.486  2.2327  0.5504  1.2953
  192SLPC   H6Y22283   6.449   6.420   7.544 -1.2518 -1.4692 -0.0833
  192SLPC   C3722284   6.242   6.408   7.602 -0.0063  0.5407 -0.8324
  192SLPC   H7X22285   6.262   6.305   7.638  0.6507  1.6885  2.2610
  192SLPC   H7Y22286   6.145   6.410   7.548 -1.4308  1.8496  1.6725
  192SLPC   C3822287   6.234   6.499   7.725  0.0952 -0.2892 -0.1841
  192SLPC   H8X22288   6.152   6.455   7.786  0.7622  0.0051  0.9356
  192SLPC   H8Y22289   6.193   6.598   7.694 -0.2801 -0.2516  0.4190
  192SLPC   C3922290   6.371   6.516   7.805 -0.2326 -0.3117 -0.5046
  192SLPC   H9X22291   6.458   6.524   7.737  0.0646  0.4149 -0.0434
  192SLPC   H9Y22292   6.394   6.420   7.856 -1.9348 -0.3551  0.2390
  192SLPC  C31022293   6.359   6.638   7.901  0.9203 -0.1248  0.4876
  192SLPC  H10X22294   6.375   6.733   7.845  0.0630 -0.7162 -0.7826
  192SLPC  H10Y22295   6.438   6.656   7.978  2.3560 -0.1597 -0.9359
  192SLPC  C31122296   6.225   6.650   7.978  0.5139 -0.1605  0.4398
  192SLPC  H11X22297   6.202   6.545   8.008  0.8409 -0.4813 -0.4150
  192SLPC  H11Y22298   6.147   6.684   7.907 -0.9711  0.5444  2.3690
  192SLPC  C31222299   6.226   6.750   8.099 -0.0906  0.9312  0.9290
  192SLPC  H12X22300   6.218   6.851   8.052  0.5505 -0.6260 -2.7161
  192SLPC  H12Y22301   6.332   6.754   8.133  0.2103  1.2709 -0.0338
  192SLPC  C31322302   6.120   6.716   8.204  0.1060  0.3420 -0.4019
  192SLPC  H13X22303   6.115   6.609   8.233  0.0468  0.4437 -0.0287
  192SLPC  H13Y22304   6.021   6.737   8.159  0.1136 -0.2836 -0.7035
  192SLPC  C31422305   6.132   6.796   8.335 -0.2809  0.2884 -1.0790
  192SLPC  H14X22306   6.031   6.805   8.379 -0.2498 -0.7886 -0.7747
  192SLPC  H14Y22307   6.159   6.899   8.304 -0.3959  1.2814  1.9380
  192SLPC  C31522308   6.232   6.752   8.439  0.8642  0.8962  0.6711
  192SLPC  H15X22309   6.332   6.737   8.393  0.3955 -0.0929 -0.0629
  192SLPC  H15Y22310   6.201   6.652   8.476  1.7555  0.3923  0.0963
  192SLPC  C31622311   6.242   6.849   8.556  0.6318 -0.5832  0.2123
  192SLPC  H16X22312   6.292   6.938   8.511 -0.3639  0.8607  1.8968
  192SLPC  H16Y22313   6.326   6.819   8.623  0.4231  1.1619  1.2807
  192SLPC  C31722314   6.107   6.864   8.635  0.0288 -0.1952  0.5571
  192SLPC  H17X22315   6.086   6.762   8.675  0.4338 -0.9437 -1.1053
  192SLPC  H17Y22316   6.021   6.883   8.568  0.3490  0.2643  0.2777
  192SLPC  C31822317   6.114   6.964   8.755  0.4841 -0.3278 -0.2656
  192SLPC  H18X22318   6.159   7.057   8.714 -1.0162  0.3451 -0.4289
  192SLPC  H18Y22319   6.181   6.923   8.833  0.7690  1.6979  0.5840
  192SLPC  H18Z22320   6.009   6.980   8.787  0.6735 -2.1290  1.3150
  193SOD    SOD22321   4.593   1.636   6.267  0.0017 -0.3647  0.1264
  194SOD    SOD22322   4.251   5.699  15.135  0.3233  0.1635 -0.6942
  195SOD    SOD22323   3.627   3.849  14.488  0.1780 -0.0649 -0.3576
  196SOD    SOD22324   6.111   3.938   5.627 -0.1312 -0.1793 -0.4292
  197SOD    SOD22325   4.506   3.446  12.933  0.1995  0.0050 -0.2203
  198SOD    SOD22326   0.095   4.316  10.775 -0.1948  0.6314 -0.4892
  199SOD    SOD22327   6.475   2.165   4.581 -0.2638 -0.2473  0.1651
  200SOD    SOD22328   3.559   0.279  11.136 -0.1036  0.1696  0.3842
  201SOD    SOD22329   4.027   1.895   1.186 -0.2093 -0.1474 -0.1942
  202SOD    SOD22330   2.407   4.554  14.804 -0.0395 -0.1521  0.8020
  203SOD    SOD22331   5.010   3.836   6.051 -0.5838  0.0100 -0.0038
  204SOD    SOD22332   6.405   4.609   5.797 -0.6236  0.2646  0.6629
  205SOD    SOD22333   5.505   3.173  16.294 -0.0470 -0.4474  0.1113
  206SOD    SOD22334   2.313   0.397  12.776  0.0826 -0.1711  0.6152
  207SOD    SOD22335   0.530   6.812   1.579 -0.2313  0.0641  0.4057
  208SOD    SOD22336   3.610   0.423  14.761 -0.6779 -0.1183  0.4652
  209SOD    SOD22337   0.883   4.001  14.344 -0.0022 -0.0621 -0.1267
  210SOD    SOD22338   4.536   2.608  16.078 -0.8096  0.1516 -0.2889
  211SOD    SOD22339   3.759   6.459  15.869  0.0965 -0.1073 -0.3196
  212SOD    SOD22340   1.966   2.150   0.333  0.4993  0.2886 -0.2010
  213SOD    SOD22341   6.285   5.508   2.191  0.4430 -0.2546 -0.5329
  214SOD    SOD22342   3.743   3.108   6.273  0.3615 -0.0072 -0.4910
  215SOD    SOD22343   3.291   2.966  13.471 -0.3115 -0.0420  0.5567
  216SOD    SOD22344   2.961   3.689  10.419  0.6204  0.2360  0.1088
  217SOD    SOD22345   0.414   6.116  11.464 -0.0562 -0.2531  0.7182
  218SOD    SOD22346   4.896   3.203  10.565 -0.1298  0.2151 -0.1219
  219SOD    SOD22347   5.527   4.219  12.559 -0.3180  0.0194  0.1687
  220SOD    SOD22348   6.424   4.458  15.949  0.2960 -0.5591 -0.1857
  221SOD    SOD22349   3.071   0.954  11.813  0.3841 -0.5994  0.2319
  222SOD    SOD22350   1.877   6.705   1.691 -0.0267  0.1800  0.1108
  223SOD    SOD22351   4.020   1.116   6.346  0.3781  0.0847 -0.5963
  224SOD    SOD22352   3.102   5.610  14.598  0.0613 -0.1622  0.2077
  225SOD    SOD22353   6.709   4.580  12.584 -0.2447 -0.3762  0.9255
  226SOD    SOD22354   6.410   3.097  15.349 -0.2145 -0.0268  0.4151
  227SOD    SOD22355   5.665   5.349   0.996 -0.0559 -0.3165  0.2486
  228SOD    SOD22356   5.230   5.229  12.456  0.1531 -0.2261 -0.5104
  229SOD    SOD22357   6.017   2.502  12.531  0.1863  0.1146  0.6693
  230SOD    SOD22358   6.231   2.494  10.913  0.0491 -0.1725  0.2883
  231SOD    SOD22359   0.867   1.737   6.135  0.7420 -0.1686  0.0559
  232SOD    SOD22360   5.453   0.727   5.458 -0.3526 -0.3607  0.0904
  233SOD    SOD22361   2.553   3.329  16.958 -0.1097 -0.2162  0.3548
  234SOD    SOD22362   2.635   3.665  12.603 -0.4484  0.2301 -0.3671
  235SOD    SOD22363   0.107   6.289   3.922 -0.3274 -0.5013  0.0436
  236SOD    SOD22364   2.436   5.368  15.631 -0.1137  0.4830  0.4481
  237SOD    SOD22365   3.149   5.837   4.152  0.3410  0.1184 -0.0161
  238SOD    SOD22366   5.704   6.658   4.227 -0.3573  0.6387 -0.0299
  239SOD    SOD22367   2.785   2.527  11.233  0.0635 -0.1645 -0.1598
  240SOD    SOD22368   6.128   0.539  12.537  0.2998 -0.3650  0.0608
  241SOD    SOD22369   0.008   4.043   3.878 -0.2425 -0.8673  0.0591
  242SOD    SOD22370   2.712   5.152  16.358 -0.6331  0.2896 -0.2670
  243SOD    SOD22371   0.828   5.727   1.643  0.1825  0.4349  0.4030
  244SOD    SOD22372   4.150   3.393  11.552 -0.1938  0.2979  0.6303
  245SOD    SOD22373   2.799   0.691   3.896 -0.4904 -0.4473  0.0163
  246SOD    SOD22374   0.047   2.655  14.004 -0.3605 -0.3775 -0.0849
  247SOD    SOD22375   6.743   0.935   0.240 -0.5116  0.1472  0.1174
  248SOD    SOD22376   4.452   1.159   2.698  0.2105  0.1043  0.2670
  249SOD    SOD22377   2.214   3.692   2.697 -0.1026 -0.3428 -0.3588
  250SOD    SOD22378   0.874   2.904   0.962 -0.1389  0.5885 -0.0727
  251SOD    SOD22379   1.929   2.921   5.686 -0.0461  0.3773 -0.4557
  252SOD    SOD22380   3.983   6.237  12.900  0.1636  0.3921 -0.1932
  253SOD    SOD22381   5.544   4.368  13.911  0.2538  0.2090  0.2266
  254SOD    SOD22382   1.619   2.672  13.038  0.5338  0.4095  0.1464
  255SOD    SOD22383   6.436   6.242  16.281  0.2653  0.1325  0.1176
  256SOD    SOD22384   6.131   1.679   0.532 -1.1847 -0.0806  0.9304
  257SOD    SOD22385   3.360   5.280   3.752 -0.3915 -0.5835 -0.1666
  258SOD    SOD22386   4.635   0.166   0.674  0.0621 -0.4503 -0.1121
  259SOD    SOD22387   0.913   4.723  13.086 -0.2850  0.2203  0.5398
  260SOD    SOD22388   5.490   4.118   3.333 -0.1363 -0.3692  0.3342
  261SOD    SOD22389   1.365   1.414   6.115  0.0452 -0.5805 -0.1242
  262SOD    SOD22390   3.262   6.715   6.368 -0.1002  0.1920  0.5103
  263SOD    SOD22391   1.234   1.902   2.542 -0.3601  0.3585  0.2145
  264SOD    SOD22392   5.002   4.547   3.114  0.7204 -0.5837  0.2268
  265SOD    SOD22393   2.011   1.022   5.389 -0.0752 -0.0881  0.0591
  266CLA    CLA22394   4.802   1.580   1.133  0.0093 -0.2309 -0.3871
  267CLA    CLA22395   6.266   4.700  12.682 -0.2149  0.3799  0.1849
  268CLA    CLA22396   2.053   2.968   3.721  0.0728 -0.4753  0.4535
  269CLA    CLA22397   1.762   6.135   5.339  0.1051  0.2496  0.1185
  270CLA    CLA22398   4.684   1.875  13.694  0.1841 -0.4878 -0.2262
  271CLA    CLA22399   1.996   0.479  12.329 -0.1363  0.0973  0.0143
  272CLA    CLA22400   2.671   3.670  15.518  0.1052  0.0748  0.0437
  273CLA    CLA22401   3.369   6.549  15.590  0.5565  0.5688 -0.0155
  274CLA    CLA22402   4.725   6.416  16.090 -0.1049 -0.1763 -0.0565
  275CLA    CLA22403   6.791   4.686   3.239 -0.0901  0.4344  0.3225
  276CLA    CLA22404   1.278   0.948   5.622  0.3815 -0.2838  0.3577
  277CLA    CLA22405   6.188   3.419  16.371  0.0716  0.2803 -0.1823
  278CLA    CLA22406   4.006   6.715   2.448  0.1667  0.3046 -0.1166
  279CLA    CLA22407   2.801   2.276  16.406 -0.1378  0.3457  0.1646
  280CLA    CLA22408   4.797   1.416   2.171  0.2544 -0.1460 -0.0957
  281CLA    CLA22409   5.007   2.158  12.559  0.1042  0.0422 -0.2398
  282CLA    CLA22410   0.019   2.168  15.436 -0.2883 -0.0328  0.2181
  283CLA    CLA22411   1.786   3.913   3.176  0.1241  0.3953 -0.4524
  284CLA    CLA22412   5.981   0.395  16.109 -0.5117  0.4010  0.0686
  285CLA    CLA22413   3.432   3.855   4.760  0.4172  0.2402  0.0212
  286CLA    CLA22414   2.372   5.650  16.214  0.2975  0.1670  0.0850
  287CLA    CLA22415   0.387   2.746  12.194 -0.0596 -0.3290  0.2668
  288CLA    CLA22416   1.929   0.088   5.079 -0.1163  0.0525 -0.1419
  289CLA    CLA22417   2.609   6.795   1.301 -0.3141  0.1760  0.0579
  290CLA    CLA22418   5.582   4.342   3.456 -0.3520 -0.2628  0.0712
  291CLA    CLA22419   0.972   5.516   1.707 -0.0630 -0.0372  0.2248
  292CLA    CLA22420   5.798   2.904   1.645 -0.5454 -0.1265 -0.1238
  293CLA    CLA22421   5.367   5.748  12.358 -0.0472  0.2193  0.0240
  294CLA    CLA22422   3.098   3.322  15.769  0.2245  0.1238  0.3623
  295CLA    CLA22423   6.231   1.763   5.691  0.0794 -0.0660  0.0648
  296CLA    CLA22424   6.074   6.702   3.042 -0.4461 -0.1280  0.1787
  297CLA    CLA22425   1.276   1.245  17.107  0.3168 -0.0807 -0.4082
  298CLA    CLA22426   2.445   5.046  15.208 -0.0845  0.0199 -0.2515
  299CLA    CLA22427   5.117   2.920  11.174  0.2003 -0.1784 -0.3030
  300CLA    CLA22428   2.820   6.742   0.205  0.0210 -0.0001 -0.2180
  301CLA    CLA22429   1.333   2.159   4.004 -0.1130 -0.2222  0.2961
  302CLA    CLA22430   5.138   3.350   3.523 -0.0056  0.1722 -0.2102
  303CLA    CLA22431   0.559   1.810   5.537  0.2342 -0.0497 -0.1492
  304CLA    CLA22432   6.350   1.347  11.332 -0.1573  0.1651 -0.0705
  305CLA    CLA22433   1.576   4.696   5.562  0.2416 -0.0824  0.1131
  306CLA    CLA22434   0.069   6.754  13.845  0.1543  0.1018  0.0804
  307CLA    CLA22435   5.071   5.006   2.830  0.1484  0.2224  0.4529
  308CLA    CLA22436   3.955   0.204  14.596  0.2821 -0.0451 -0.0306
  309CLA    CLA22437   3.622   0.293  11.396 -0.2830 -0.1929 -0.2039
  310CLA    CLA22438   2.075   3.853  14.606 -0.1384 -0.1590 -0.0567
  311CLA    CLA22439   4.950   3.808  15.885 -0.4646 -0.4351  0.1282
  312CLA    CLA22440   4.671   3.639  15.133  0.1237  0.1805 -0.0450
  313CLA    CLA22441   0.257   2.594   3.074 -0.0425  0.0752  0.3678
  314CLA    CLA22442   5.244   3.789  11.672 -0.0576 -0.1616  0.1386
  315CLA    CLA22443   1.678   0.497   2.720  0.0559  0.3386 -0.3937
  316CLA    CLA22444   3.883   4.710  13.230  0.4479 -0.1461 -0.3330
  317CLA    CLA22445   3.450   2.689  14.519 -0.1740  0.1744  0.1285
  318CLA    CLA22446   1.648   4.424  15.202 -0.1736 -0.1513 -0.2842
  319TIP3   OH222447   2.754   2.414  16.130 -0.1843 -0.5332  0.3549
  319TIP3    H122448   2.751   2.375  16.217  0.3904 -0.2921  0.4872
  319TIP3    H222449   2.663   2.436  16.110 -0.1187  1.0555  1.6653
  320TIP3   OH222450   4.079   5.094   3.181 -0.0173  0.5302  0.6257
  320TIP3    H122451   4.068   5.061   3.270 -0.0962  0.8477  0.7371
  320TIP3    H222452   4.112   5.184   3.193  2.3144 -0.2518  0.2972
  321TIP3   OH222453   2.898   5.101  12.512  0.1265  0.0347  0.0507
  321TIP3    H122454   2.848   5.164  12.563 -0.0614  0.2368 -0.3749
  321TIP3    H222455   2.832   5.038  12.480  0.4554 -0.9830  1.3408
  322TIP3   OH222456   2.318   2.432  15.775 -0.2576  0.7939  0.1171
  322TIP3    H122457   2.359   2.506  15.820  0.8062 -0.2559  0.9142
  322TIP3    H222458   2.357   2.355  15.816 -3.6783 -0.2662  1.5140
  323TIP3   OH222459   2.772   2.433  17.259 -0.4156 -0.5054 -0.3176
  323TIP3    H122460   2.836   2.444  17.188 -1.1349  0.4365 -0.8308
  323TIP3    H222461   2.726   2.352  17.237 -1.1301  0.1614 -1.3340
  324TIP3   OH222462   5.410   5.736  12.964  0.5507  0.5709 -0.3921
  324TIP3    H122463   5.493   5.691  12.947 -0.4146 -0.7818 -1.6356
  324TIP3    H222464   5.402   5.736  13.060  0.9811 -1.1877 -0.3350
  325TIP3   OH222465   3.537   0.489  15.009 -0.9076 -0.6754  0.8244
  325TIP3    H122466   3.580   0.435  15.075 -0.9790 -0.2933  1.1824
  325TIP3    H222467   3.444   0.484  15.031 -1.2600 -2.9280 -0.9768
  326TIP3   OH222468   1.405   0.511  16.876  0.0572  0.2806  0.2141
  326TIP3    H122469   1.333   0.520  16.813 -0.2286  0.3445  0.5534
  326TIP3    H222470   1.364   0.483  16.957  0.5521 -0.8878  0.0789
  327TIP3   OH222471   5.690   0.545  12.209 -0.2070 -0.2362 -0.6847
  327TIP3    H122472   5.643   0.479  12.260 -1.3047 -0.2431 -1.6811
  327TIP3    H222473   5.661   0.531  12.119 -0.1828  1.3684 -0.9669
  328TIP3   OH222474   1.646   1.807  13.593 -0.9728  0.2107  0.1072
  328TIP3    H122475   1.573   1.862  13.620 -2.1818 -1.0856 -0.4452
  328TIP3    H222476   1.630   1.723  13.636  1.4560  0.6053  1.8656
  329TIP3   OH222477   3.026   3.858   2.648  0.3286 -0.1842 -1.1288
  329TIP3    H122478   3.102   3.813   2.613  1.9497  0.8391  0.9723
  329TIP3    H222479   3.033   3.947   2.614  1.3919  0.5519  0.9158
  330TIP3   OH222480   2.485   6.033   4.648 -0.3201 -0.4125 -0.2755
  330TIP3    H122481   2.566   6.062   4.690 -0.0627  2.5225 -2.5506
  330TIP3    H222482   2.416   6.070   4.702 -0.0321  0.9281 -0.7920
  331TIP3   OH222483   6.249   0.072  11.021 -0.1358 -0.1154 -0.2082
  331TIP3    H122484   6.196   0.095  10.944  1.4287  1.1017 -0.9500
  331TIP3    H222485   6.199   0.003  11.065 -1.5088 -0.1678 -1.8029
  332TIP3   OH222486   1.945   5.885  13.660 -0.1243  0.1634 -0.3858
  332TIP3    H122487   2.001   5.852  13.731 -0.4448  0.9199  0.2283
  332TIP3    H222488   1.878   5.818  13.650  1.1445 -0.9818 -1.4449
  333TIP3   OH222489   5.518   0.743   4.680  0.9111 -0.1561  0.3432
  333TIP3    H122490   5.515   0.834   4.708  0.1683  0.1669 -0.7404
  333TIP3    H222491   5.451   0.737   4.611  1.1303 -1.4507  0.2325
  334TIP3   OH222492   5.142   6.162   2.464  0.0832  0.7445 -0.5855
  334TIP3    H122493   5.171   6.074   2.490  0.9889  1.1577 -0.1933
  334TIP3    H222494   5.067   6.146   2.407  1.1954 -0.3707 -1.7858
  335TIP3   OH222495   2.378   3.321   1.184 -0.5240 -0.1821  0.5355
  335TIP3    H122496   2.397   3.324   1.090 -2.3158 -0.8866  0.1220
  335TIP3    H222497   2.282   3.326   1.188 -0.4712 -0.5386  2.3174
  336TIP3   OH222498   6.061   5.140  12.629 -0.2502 -0.0808  0.1172
  336TIP3    H122499   6.067   5.211  12.565  0.0023 -0.3710 -0.1826
  336TIP3    H222500   5.982   5.160  12.679 -1.0142 -0.3908 -0.9347
  337TIP3   OH222501   3.755   5.509   0.344  0.4253  0.5651 -0.2622
  337TIP3    H122502   3.673   5.467   0.318  0.5642 -1.2996  2.0815
  337TIP3    H222503   3.818   5.437   0.348  1.1891  1.3224  1.8392
  338TIP3   OH222504   3.993   6.250   3.664 -0.1869 -0.0861  0.5674
  338TIP3    H122505   3.932   6.283   3.729 -0.0671 -3.8747  2.7731
  338TIP3    H222506   4.080   6.271   3.698 -0.1661  0.8016 -0.0204
  339TIP3   OH222507   5.039   2.460   5.154 -0.1474 -0.3009  0.8877
  339TIP3    H122508   5.091   2.455   5.074  1.3079 -0.3754  1.8217
  339TIP3    H222509   5.010   2.370   5.169 -0.7349 -0.2257  0.2593
  340TIP3   OH222510   6.790   4.961   3.873  0.3655 -0.0703 -0.2456
  340TIP3    H122511   6.775   4.919   3.788  0.4714  0.7772 -0.6834
  340TIP3    H222512   6.708   5.006   3.893  0.6681  0.5354 -0.3556
  341TIP3   OH222513   6.611   2.571   1.123  0.3166 -0.1778  0.4357
  341TIP3    H122514   6.601   2.606   1.212 -1.6220  0.9738 -0.2074
  341TIP3    H222515   6.553   2.625   1.070  1.2750 -1.0251 -1.5005
  342TIP3   OH222516   4.270   3.535  14.462  0.0999 -0.4820 -0.1125
  342TIP3    H122517   4.319   3.463  14.503  1.1952 -0.2304 -0.9485
  342TIP3    H222518   4.260   3.508  14.371 -1.7585 -0.7444  0.1601
  343TIP3   OH222519   3.875   5.000  16.285 -0.1831 -0.3446  0.8062
  343TIP3    H122520   3.897   5.092  16.296 -2.8586  0.3157  1.0129
  343TIP3    H222521   3.863   4.967  16.374  0.6412 -0.8556  0.7303
  344TIP3   OH222522   1.153   3.925  12.170  0.3221  0.1127  0.1745
  344TIP3    H122523   1.118   3.999  12.121 -1.1180  0.0757  1.1205
  344TIP3    H222524   1.082   3.860  12.170  0.7616 -0.3847  1.2279
  345TIP3   OH222525   4.359   3.415  12.354 -0.0680  0.5056 -0.1742
  345TIP3    H122526   4.359   3.360  12.433  0.9165  1.2858  0.3675
  345TIP3    H222527   4.287   3.379  12.301  1.5556 -2.3468 -0.5442
  346TIP3   OH222528   6.570   5.804  12.513  0.1444 -0.6387 -0.2023
  346TIP3    H122529   6.569   5.848  12.428  1.8167  1.2708  0.7361
  346TIP3    H222530   6.628   5.729  12.501  2.1949  0.8948 -0.1708
  347TIP3   OH222531   6.813   2.658   0.299 -0.3103 -0.0913  0.2510
  347TIP3    H122532   6.774   2.608   0.227  0.2089 -0.8256  0.4760
  347TIP3    H222533   6.891   2.608   0.324  0.2158  0.8236  0.4873
  348TIP3   OH222534   2.901   2.035   5.252 -0.8086  0.5404  0.4951
  348TIP3    H122535   2.904   2.130   5.264  0.6499  0.5639 -0.0203
  348TIP3    H222536   2.877   2.023   5.160  3.2706  0.4730 -0.6562
  349TIP3   OH222537   4.620   3.034   3.443  0.1406  0.3902 -0.4593
  349TIP3    H122538   4.684   3.023   3.372 -0.1426  0.5177 -0.7352
  349TIP3    H222539   4.657   3.105   3.496  0.9597 -0.5207  0.2042
  350TIP3   OH222540   1.434   1.894  15.755 -0.0370  0.4903  0.5835
  350TIP3    H122541   1.500   1.897  15.824  1.5866  0.2222 -0.9251
  350TIP3    H222542   1.466   1.954  15.688 -0.4267 -0.9217 -0.9258
  351TIP3   OH222543   4.937   0.968  12.228 -0.2142  0.4218 -0.5356
  351TIP3    H122544   4.899   0.928  12.306 -0.2183  1.4049 -0.0263
  351TIP3    H222545   4.865   0.973  12.166 -0.3018 -0.0179 -0.4718
  352TIP3   OH222546   6.201   2.572   5.674  0.1974  0.1082  0.5775
  352TIP3    H122547   6.207   2.491   5.725  0.4522 -0.4101 -0.2564
  352TIP3    H222548   6.234   2.548   5.587  0.5710  1.1852  0.4075
  353TIP3   OH222549   1.958   6.300  14.889 -0.1417 -0.5476  0.3707
  353TIP3    H122550   1.963   6.354  14.968 -2.0236  0.1879  0.0126
  353TIP3    H222551   1.873   6.257  14.895  0.3254 -1.6162 -0.5542
  354TIP3   OH222552   4.330   0.760  16.734  0.5386  0.3217  0.1925
  354TIP3    H122553   4.311   0.853  16.730  0.3263  0.1900 -2.5787
  354TIP3    H222554   4.251   0.721  16.771 -0.1794  1.0117 -0.5993
  355TIP3   OH222555   5.474   3.616   2.842 -0.2906  0.4364 -0.2417
  355TIP3    H122556   5.448   3.642   2.753  1.3201 -1.3494 -1.2709
  355TIP3    H222557   5.453   3.523   2.846  1.4669  0.0566  0.5534
  356TIP3   OH222558   6.403   5.174   4.582  0.1518 -0.2632 -0.3522
  356TIP3    H122559   6.334   5.107   4.587  0.5814 -0.7526 -1.0903
  356TIP3    H222560   6.464   5.141   4.516 -0.0194  1.2096 -1.2554
  357TIP3   OH222561   1.625   3.214   2.250  0.0683 -0.0138  0.3888
  357TIP3    H122562   1.652   3.238   2.162  1.1241 -2.3772  0.0259
  357TIP3    H222563   1.623   3.296   2.299  0.9651  1.0999 -1.4345
  358TIP3   OH222564   3.778   5.296  15.459  0.1825 -1.0117 -0.1077
  358TIP3    H122565   3.758   5.376  15.410  1.2104 -1.4259 -1.2092
  358TIP3    H222566   3.868   5.275  15.435  0.0988 -2.1932  0.6138
  359TIP3   OH222567   6.471   6.585  11.201  0.0977 -0.9146  0.2557
  359TIP3    H122568   6.448   6.493  11.215 -0.3852 -0.7229  0.7430
  359TIP3    H222569   6.484   6.592  11.106 -2.0352 -1.0023 -0.0624
  360TIP3   OH222570   4.100   4.867  15.725 -0.3558  0.0400  0.0492
  360TIP3    H122571   4.121   4.781  15.762 -0.4190  0.6224  1.4703
  360TIP3    H222572   4.006   4.863  15.707 -0.6493  0.3024  1.4749
  361TIP3   OH222573   3.139   6.374  17.201 -0.1047 -0.0128  0.0729
  361TIP3    H122574   3.079   6.409  17.135 -0.0170  0.0221  0.0126
  361TIP3    H222575   3.224   6.370  17.156 -0.0289  0.0882  0.2079
  362TIP3   OH222576   4.102   3.123  16.167  0.2926  0.0762 -0.4872
  362TIP3    H122577   4.194   3.105  16.182  0.0875  1.0117  2.1061
  362TIP3    H222578   4.059   3.108  16.251 -1.6819  1.0841 -1.2491
  363TIP3   OH222579   1.150   1.873  11.848 -0.2846 -0.0401  0.4881
  363TIP3    H122580   1.071   1.831  11.882 -0.9740  0.4488 -0.4946
  363TIP3    H222581   1.171   1.824  11.769  0.0926  0.1784  0.4493
  364TIP3   OH222582   4.636   1.474   0.419  0.8614  0.8878  0.8031
  364TIP3    H122583   4.713   1.455   0.473  1.5053  0.4578 -0.2514
  364TIP3    H222584   4.594   1.389   0.405  1.7989  0.6974 -1.0056
  365TIP3   OH222585   4.973   3.788   4.290 -0.1272  0.2185 -0.4216
  365TIP3    H122586   4.963   3.762   4.382 -1.0030  0.1907 -0.5255
  365TIP3    H222587   4.884   3.794   4.257  0.1307  1.5427 -0.9125
  366TIP3   OH222588   1.960   3.979   2.037  0.0415  0.3415 -0.8651
  366TIP3    H122589   1.928   3.947   1.952 -1.0018  0.0055 -0.3526
  366TIP3    H222590   1.900   3.941   2.101 -0.2666  2.0551 -0.1088
  367TIP3   OH222591   5.605   3.413   1.625 -0.3001 -0.2671 -0.0576
  367TIP3    H122592   5.656   3.485   1.663  2.0341 -0.5293 -2.6097
  367TIP3    H222593   5.663   3.337   1.630 -2.4504 -1.8735  1.8737
  368TIP3   OH222594   2.227   1.951   4.323 -0.4336  0.2595 -0.0085
  368TIP3    H122595   2.157   1.998   4.369  0.9630 -1.0067  3.6135
  368TIP3    H222596   2.303   2.009   4.330 -0.4905  0.5924 -1.8722
  369TIP3   OH222597   5.075   3.813  13.901  0.0416 -1.1405  0.6931
  369TIP3    H122598   5.051   3.817  13.808  0.2199 -0.1181  0.6865
  369TIP3    H222599   5.014   3.872  13.944  0.0691 -1.4878  1.2105
  370TIP3   OH222600   4.173   3.460   3.846  0.5287  0.0470  0.6110
  370TIP3    H122601   4.213   3.486   3.929 -0.9835 -0.5001  1.5426
  370TIP3    H222602   4.101   3.402   3.872  0.6605 -0.9310 -1.1405
  371TIP3   OH222603   3.051   1.445   2.987  0.4285 -0.2407  0.3895
  371TIP3    H122604   3.002   1.411   2.913  0.0748 -1.3523  1.1146
  371TIP3    H222605   3.024   1.537   2.995 -0.2905 -0.4020 -0.2234
  372TIP3   OH222606   5.006   6.188  17.127 -0.8352 -0.4928  0.4794
  372TIP3    H122607   4.956   6.267  17.147  1.0537  1.0784 -0.8706
  372TIP3    H222608   4.997   6.178  17.032  0.9829 -0.4973  0.2999
  373TIP3   OH222609   5.399   3.446   4.841 -0.4572 -0.3361  0.3625
  373TIP3    H122610   5.336   3.516   4.861  0.6533  0.8468 -0.2066
  373TIP3    H222611   5.468   3.457   4.907  0.0610 -0.4562 -0.1557
  374TIP3   OH222612   6.437   6.703  12.886 -0.4927 -0.9579 -0.3940
  374TIP3    H122613   6.363   6.647  12.862 -1.1799 -0.1057 -0.2972
  374TIP3    H222614   6.427   6.716  12.980 -0.5321 -0.3897 -0.4786
  375TIP3   OH222615   2.194   4.116  14.867 -0.1173  0.0255 -0.0403
  375TIP3    H122616   2.145   4.041  14.900 -0.5545  0.2065 -0.2840
  375TIP3    H222617   2.129   4.171  14.824  0.0485  0.9463  0.8386
  376TIP3   OH222618   6.556   1.222  13.640 -0.1925  0.1184 -0.5749
  376TIP3    H122619   6.464   1.247  13.647  0.0135  0.7529 -0.1043
  376TIP3    H222620   6.569   1.204  13.546 -0.7531  0.1769 -0.6645
  377TIP3   OH222621   6.249   3.173   4.580  0.4049  0.3889 -0.0637
  377TIP3    H122622   6.182   3.122   4.626  0.8715  2.2807  2.8806
  377TIP3    H222623   6.272   3.119   4.505 -1.6385 -2.0921  0.9846
  378TIP3   OH222624   4.606   4.562  16.553 -0.0425  0.7096  0.0298
  378TIP3    H122625   4.585   4.654  16.535  1.0386  0.9079 -0.2209
  378TIP3    H222626   4.520   4.520  16.565 -0.6900  1.2624 -2.2640
  379TIP3   OH222627   0.352   5.124   3.607  0.1610  0.2109  0.5296
  379TIP3    H122628   0.403   5.191   3.562  1.9420 -0.0214  2.1490
  379TIP3    H222629   0.368   5.044   3.559 -2.0738  0.9180 -1.4949
  380TIP3   OH222630   1.431   6.696  15.108  0.6347 -0.0519  0.4445
  380TIP3    H122631   1.381   6.617  15.087  0.6956  0.0929 -0.2572
  380TIP3    H222632   1.413   6.712  15.200  0.5826 -0.8627  0.5785
  381TIP3   OH222633   2.191   3.596   3.374  0.1073 -0.1622  0.0097
  381TIP3    H122634   2.129   3.563   3.309 -0.3381  0.6654  0.0082
  381TIP3    H222635   2.232   3.671   3.332  0.8165 -0.4520  0.1727
  382TIP3   OH222636   0.795   4.625  14.130  0.5220 -0.1791 -0.6204
  382TIP3    H122637   0.757   4.687  14.192 -0.2423 -0.2674 -0.9934
  382TIP3    H222638   0.747   4.543  14.144 -1.3120  0.4395 -2.9320
  383TIP3   OH222639   1.198   4.097   1.436  0.0892 -0.3610 -0.0143
  383TIP3    H122640   1.198   4.187   1.468 -0.5745 -0.1936 -0.4690
  383TIP3    H222641   1.114   4.062   1.463 -0.5710 -0.1443 -1.7365
  384TIP3   OH222642   2.847   0.777   3.695  0.1615 -0.0866 -0.4683
  384TIP3    H122643   2.886   0.864   3.708 -0.6635  0.2840 -0.4468
  384TIP3    H222644   2.825   0.775   3.602 -1.2163  0.3232 -0.1658
  385TIP3   OH222645   5.415   1.150  12.782  0.2197 -0.3657  0.4708
  385TIP3    H122646   5.481   1.097  12.825  0.6637  0.3695  0.7038
  385TIP3    H222647   5.332   1.116  12.815  0.5659  0.7854  2.6365
  386TIP3   OH222648   3.803   5.144   3.448 -0.2034  0.0651  0.0161
  386TIP3    H122649   3.739   5.133   3.377  1.5689  0.4728 -1.6999
  386TIP3    H222650   3.791   5.235   3.477 -0.8868 -0.0813  0.2057
  387TIP3   OH222651   5.169   4.472   2.965 -0.1814 -0.4742 -0.0315
  387TIP3    H122652   5.162   4.464   2.870  1.1705 -0.2460 -0.1570
  387TIP3    H222653   5.261   4.493   2.981 -1.0214  2.6050  1.1123
  388TIP3   OH222654   1.503   5.898   4.269 -0.3960 -0.4644  0.3787
  388TIP3    H122655   1.570   5.921   4.204 -0.4197 -1.8403 -0.1566
  388TIP3    H222656   1.507   5.968   4.334 -0.2551  0.8409 -1.0174
  389TIP3   OH222657   0.845   4.478   1.634  0.0712 -0.5624  0.2152
  389TIP3    H122658   0.854   4.469   1.728 -2.1007  0.0999  0.5195
  389TIP3    H222659   0.753   4.456   1.616 -0.2806  1.9615 -1.3656
  390TIP3   OH222660   6.684   1.648  12.615  0.1838  0.3052 -0.5137
  390TIP3    H122661   6.637   1.576  12.573 -0.6283  0.6958 -0.2830
  390TIP3    H222662   6.685   1.717  12.549  0.6053  0.2347 -0.5842
  391TIP3   OH222663   0.112   4.807  14.085 -0.1650  0.2182 -0.1630
  391TIP3    H122664   0.126   4.896  14.052 -0.1177  0.9099  1.6901
  391TIP3    H222665   0.107   4.753  14.006  0.3067  1.7876 -1.2879
  392TIP3   OH222666   4.101   0.651  16.844  0.2224 -0.5875 -0.1153
  392TIP3    H122667   4.046   0.692  16.911  1.2390 -1.7605  1.4900
  392TIP3    H222668   4.046   0.648  16.766 -2.0980 -1.9623  1.4942
  393TIP3   OH222669   2.624   0.834   0.543 -0.4396  0.2365  0.0537
  393TIP3    H122670   2.577   0.898   0.596  0.6578  0.3472  0.8988
  393TIP3    H222671   2.646   0.763   0.604 -0.0631 -0.1063 -0.4719
  394TIP3   OH222672   2.334   2.182   1.021 -0.2050  0.0809  0.1411
  394TIP3    H122673   2.277   2.231   1.080 -0.1194 -2.3549  2.3567
  394TIP3    H222674   2.421   2.191   1.059  0.0699 -0.4154 -0.3617
  395TIP3   OH222675   0.011   3.908   3.103  0.0298 -0.1609  0.1942
  395TIP3    H122676   0.068   3.841   3.066 -0.0409 -1.1408  1.7683
  395TIP3    H222677   0.069   3.964   3.155 -0.5046 -1.7668  2.6379
  396TIP3   OH222678   5.621   4.875   3.205  0.1080 -0.3791  0.1707
  396TIP3    H122679   5.688   4.810   3.184  0.2743  0.1328 -0.8843
  396TIP3    H222680   5.623   4.937   3.132 -0.3030  0.6105  0.9933
  397TIP3   OH222681   2.617   4.079  11.006  0.7054 -0.5665 -0.0814
  397TIP3    H122682   2.651   4.046  10.923 -0.4477  0.5108 -0.9974
  397TIP3    H222683   2.522   4.070  10.998  0.4906  1.1403  0.4364
  398TIP3   OH222684   6.332   1.620   1.058  0.1588 -0.1369 -0.6072
  398TIP3    H122685   6.251   1.669   1.040 -1.0406 -1.1915  1.7360
  398TIP3    H222686   6.383   1.677   1.115 -0.1894 -0.6213  0.1967
  399TIP3   OH222687   6.683   2.320  11.436 -0.3764 -0.0999  0.1886
  399TIP3    H122688   6.611   2.335  11.497  0.1327 -0.5309  0.9176
  399TIP3    H222689   6.649   2.344  11.350 -0.7239  1.6942  0.8148
  400TIP3   OH222690   5.215   4.176  15.643 -0.0032 -0.0040  0.0735
  400TIP3    H122691   5.182   4.130  15.720  0.4554  1.4915  1.1849
  400TIP3    H222692   5.310   4.177  15.654  0.1215 -0.3807 -0.8725
  401TIP3   OH222693   6.610   4.618   1.428  0.6692 -0.4404 -0.3434
  401TIP3    H122694   6.642   4.643   1.515  0.6402 -0.3842 -0.3488
  401TIP3    H222695   6.656   4.537   1.408 -2.4832 -2.7989  1.5364
  402TIP3   OH222696   4.007   0.257   5.938 -0.2807 -0.1287  0.9041
  402TIP3    H122697   3.993   0.209   6.020  4.4844  0.4334  2.2562
  402TIP3    H222698   4.038   0.191   5.876 -0.9043 -0.0497  0.5111
  403TIP3   OH222699   6.738   3.940  13.963 -0.6468 -0.6060 -0.8468
  403TIP3    H122700   6.742   3.880  14.037  1.6051 -0.1932 -0.5914
  403TIP3    H222701   6.678   3.898  13.901  0.5406 -2.9197 -0.4885
  404TIP3   OH222702   1.400   3.501   4.841  0.2503  0.0421 -0.2775
  404TIP3    H122703   1.405   3.596   4.836  0.4699 -0.0583 -2.3927
  404TIP3    H222704   1.343   3.476   4.769  0.5690 -1.4573 -0.0210
  405TIP3   OH222705   1.775   1.764   0.095  0.3076  0.2679 -0.0814
  405TIP3    H122706   1.822   1.740   0.015  1.7859  0.1462  0.8090
  405TIP3    H222707   1.731   1.683   0.122 -1.7375  0.7788 -1.7808
  406TIP3   OH222708   0.229   1.944  11.983 -0.4379 -0.0670 -0.3129
  406TIP3    H122709   0.235   1.855  12.018  1.6928  0.6930  1.4034
  406TIP3    H222710   0.205   1.932  11.891 -0.2470 -2.4067 -0.0957
  407TIP3   OH222711   1.709   3.529   0.994 -0.1517 -0.0830  0.2525
  407TIP3    H122712   1.715   3.560   0.904 -1.7430 -2.5291 -0.7343
  407TIP3    H222713   1.741   3.603   1.047  0.7435  1.3944 -2.2786
  408TIP3   OH222714   5.903   3.148  16.622 -0.1803 -0.2281 -0.1788
  408TIP3    H122715   5.924   3.055  16.613 -0.8497 -0.2039 -2.1499
  408TIP3    H222716   5.983   3.193  16.595 -0.2119 -0.2207 -0.2580
  409TIP3   OH222717   1.708   3.282  16.900 -0.1838 -0.2816 -0.3359
  409TIP3    H122718   1.717   3.341  16.826  0.9204 -2.8442 -2.3400
  409TIP3    H222719   1.793   3.287  16.945 -0.8290  1.2206  0.7118
  410TIP3   OH222720   3.549   1.241   2.829  0.3063  0.0858 -0.0806
  410TIP3    H122721   3.580   1.161   2.871 -0.1410  0.8709  1.8109
  410TIP3    H222722   3.480   1.274   2.888  1.2436  2.4282 -0.2335
  411TIP3   OH222723   4.577   2.055  13.446  0.5136  0.3755  0.4512
  411TIP3    H122724   4.612   1.984  13.500  0.4267 -0.0865 -0.0835
  411TIP3    H222725   4.487   2.066  13.476 -0.1568 -1.2085 -0.8901
  412TIP3   OH222726   2.075   6.166  16.511  0.1631 -0.0862  0.7136
  412TIP3    H122727   2.047   6.180  16.421  0.3283  1.3321  0.8678
  412TIP3    H222728   2.013   6.103  16.546  0.7746 -1.5066 -0.7208
  413TIP3   OH222729   4.350   5.824   3.021  0.8303 -0.3198  0.4931
  413TIP3    H122730   4.318   5.735   3.008  0.9132 -0.5318  1.6979
  413TIP3    H222731   4.443   5.820   2.996  0.5941 -0.3414 -0.3869
  414TIP3   OH222732   5.501   1.221  13.431 -0.4448  0.0393 -0.1292
  414TIP3    H122733   5.557   1.221  13.509  0.0967 -0.6863 -0.5061
  414TIP3    H222734   5.533   1.294  13.378 -0.3234  0.0686 -0.0151
  415TIP3   OH222735   3.362   2.000  10.708 -0.1370  0.7100  0.0428
  415TIP3    H122736   3.376   1.956  10.624 -0.6721  0.4880  0.0717
  415TIP3    H222737   3.425   1.958  10.767 -0.7584 -0.1366  0.1143
  416TIP3   OH222738   3.014   5.253  11.753 -0.3081 -0.5126  0.1354
  416TIP3    H122739   3.062   5.327  11.791 -2.3971  0.2762  1.3247
  416TIP3    H222740   3.026   5.262  11.659 -1.5131  2.0727  0.1800
  417TIP3   OH222741   4.194   6.468   3.139  0.4270  0.0613  0.0661
  417TIP3    H122742   4.233   6.422   3.214  0.2441  1.6486  1.1524
  417TIP3    H222743   4.116   6.417   3.118  1.3144 -1.2930 -0.0621
  418TIP3   OH222744   3.265   5.084   0.560 -0.6182 -0.6693  0.2298
  418TIP3    H122745   3.355   5.069   0.531 -0.7930 -2.1233  0.4146
  418TIP3    H222746   3.214   5.086   0.479 -0.3505  0.7868  0.0772
  419TIP3   OH222747   2.466   3.442  14.190 -0.4006  0.4659 -0.3638
  419TIP3    H122748   2.383   3.473  14.226  1.4530  2.5599  2.3993
  419TIP3    H222749   2.480   3.357  14.232 -0.4628  0.7986  0.3471
  420TIP3   OH222750   3.476   2.372  14.428 -0.4208 -0.0236 -0.0952
  420TIP3    H122751   3.387   2.392  14.399 -0.6237 -0.5913  0.1289
  420TIP3    H222752   3.500   2.445  14.485  0.2099  1.4233 -2.1632
  421TIP3   OH222753   0.860   4.880  16.330  0.1447 -0.1769 -0.0397
  421TIP3    H122754   0.816   4.801  16.300 -1.9241  1.2825 -0.8962
  421TIP3    H222755   0.952   4.867  16.304 -0.1164 -2.3658  0.0198
  422TIP3   OH222756   0.211   1.721   1.441 -0.2512  0.6852  0.1223
  422TIP3    H122757   0.144   1.679   1.386  0.4974  0.3565 -0.5460
  422TIP3    H222758   0.223   1.808   1.401 -0.4687  0.8448  0.4024
  423TIP3   OH222759   1.656   0.837   1.688 -0.3006  0.0206  0.5529
  423TIP3    H122760   1.616   0.922   1.707  1.5763  1.2051 -0.6591
  423TIP3    H222761   1.590   0.791   1.635  0.0830  2.1583 -1.8992
  424TIP3   OH222762   0.766   1.349  17.073  0.1933  1.1406 -0.0125
  424TIP3    H122763   0.717   1.364  17.154  1.3563  0.4069  0.8388
  424TIP3    H222764   0.850   1.392  17.088 -0.6848  3.7118 -2.0324
  425TIP3   OH222765   3.676   6.513  14.812 -0.3205  0.6840  0.1232
  425TIP3    H122766   3.756   6.565  14.815 -0.7226  1.3555 -0.5823
  425TIP3    H222767   3.616   6.558  14.872 -0.6242  0.9506 -0.3848
  426TIP3   OH222768   3.379   5.551   3.391  0.0891 -0.4775  0.6545
  426TIP3    H122769   3.347   5.531   3.303 -2.6978 -0.2854  1.5845
  426TIP3    H222770   3.436   5.627   3.379  0.8545 -1.3112 -1.1563
  427TIP3   OH222771   3.786   4.384   0.965  0.4308  0.1468  0.6124
  427TIP3    H122772   3.820   4.452   0.907  1.2512  0.0654  1.0006
  427TIP3    H222773   3.694   4.376   0.939  0.7856  0.0937 -0.7031
  428TIP3   OH222774   1.030   3.209  14.487  0.4412 -0.3867 -0.5526
  428TIP3    H122775   1.056   3.179  14.399 -0.3760 -0.9542 -0.6090
  428TIP3    H222776   0.955   3.154  14.509  0.7589 -0.3732  0.5883
  429TIP3   OH222777   3.124   1.641   4.148 -0.3582 -0.5498  0.4077
  429TIP3    H122778   3.030   1.632   4.158 -0.7963  2.1451 -0.9993
  429TIP3    H222779   3.154   1.676   4.232 -0.9248  0.6528  0.1194
  430TIP3   OH222780   6.807   1.626  15.013 -0.2115 -0.1549 -0.1459
  430TIP3    H122781   6.818   1.637  14.918 -2.1791 -1.1578 -0.5210
  430TIP3    H222782   6.725   1.672  15.033  1.5472  2.3893  1.5680
  431TIP3   OH222783   6.148   2.638  11.125  0.3386 -0.2842 -0.2463
  431TIP3    H122784   6.168   2.731  11.116  0.5445  0.0064  2.5652
  431TIP3    H222785   6.057   2.631  11.096 -0.5022  1.2942  1.7959
  432TIP3   OH222786   2.510   5.837  12.834 -0.1517  0.1313 -0.3957
  432TIP3    H122787   2.541   5.758  12.878 -0.2942  0.3569  0.1067
  432TIP3    H222788   2.589   5.883  12.807 -0.0560  0.3602  0.2739
  433TIP3   OH222789   4.831   2.953  13.557  0.1840  0.1437 -0.3033
  433TIP3    H122790   4.844   2.861  13.582 -0.0527  0.3435  0.5707
  433TIP3    H222791   4.793   2.994  13.635  0.7563  1.0946 -0.5157
  434TIP3   OH222792   5.054   5.443   4.319  0.3116  0.2379 -0.2165
  434TIP3    H122793   5.035   5.383   4.391  0.6761 -0.3012 -0.5672
  434TIP3    H222794   5.022   5.399   4.241 -0.0928  0.8300 -0.3892
  435TIP3   OH222795   6.160   1.257  16.478 -0.1620 -0.1982  0.1157
  435TIP3    H122796   6.254   1.254  16.461 -0.1656 -0.3537  0.1161
  435TIP3    H222797   6.131   1.166  16.468 -0.5871  0.0852 -1.3936
  436TIP3   OH222798   4.015   6.705  10.760 -0.0347  0.0219 -0.0802
  436TIP3    H122799   3.985   6.621  10.795 -1.4553  1.9042  3.4050
  436TIP3    H222800   4.091   6.682  10.705  0.0208 -3.4323  1.2949
  437TIP3   OH222801   1.822   5.082  11.023  0.4535 -0.2034 -0.1753
  437TIP3    H122802   1.851   5.121  10.940  1.7074 -0.3598  0.1680
  437TIP3    H222803   1.780   5.000  10.996  0.7510 -0.2012 -0.6705
  438TIP3   OH222804   1.912   4.414   3.537 -0.3117  0.5760 -0.0925
  438TIP3    H122805   1.945   4.378   3.454  1.0431  0.3485  0.5445
  438TIP3    H222806   1.938   4.349   3.603  1.0459  2.0973  0.8958
  439TIP3   OH222807   2.015   1.066   1.032  0.1285  0.3588 -0.2760
  439TIP3    H122808   2.093   1.120   1.035  0.0329  0.6493 -2.4378
  439TIP3    H222809   1.947   1.120   1.074  1.0437  0.1395  1.5114
  440TIP3   OH222810   6.129   1.487  14.803 -0.1294  0.2438 -0.2671
  440TIP3    H122811   6.143   1.411  14.746  0.5900  0.3181 -0.1904
  440TIP3    H222812   6.209   1.538  14.795 -0.4538  0.8007 -0.0113
  441TIP3   OH222813   5.415   6.799  13.636  0.3850 -0.8890 -0.8000
  441TIP3    H122814   5.494   6.768  13.680 -0.7204 -0.9610  1.2194
  441TIP3    H222815   5.430   6.892  13.621  0.7216 -0.8247 -0.0901
  442TIP3   OH222816   5.028   1.944   1.504 -1.0375 -0.0248  0.3237
  442TIP3    H122817   4.942   1.939   1.461 -0.7992  0.8641 -0.2719
  442TIP3    H222818   5.037   2.036   1.529 -1.1117 -0.5089  2.1974
  443TIP3   OH222819   5.828   6.545   3.535 -0.9841  0.4036  0.0684
  443TIP3    H122820   5.908   6.501   3.506 -0.9202 -1.8825  3.4366
  443TIP3    H222821   5.852   6.637   3.543  0.2916  0.3027 -2.3593
  444TIP3   OH222822   6.145   3.350   0.562 -0.0323 -0.1731  0.5058
  444TIP3    H122823   6.176   3.285   0.625 -0.8202 -1.3389 -0.2807
  444TIP3    H222824   6.051   3.355   0.577 -0.2474 -0.5688 -0.6683
  445TIP3   OH222825   2.906   3.639  16.569  0.2956  0.3386  0.5020
  445TIP3    H122826   2.987   3.604  16.607 -1.2672 -2.4046  1.4858
  445TIP3    H222827   2.927   3.652  16.477  2.0661  0.2851  0.8785
  446TIP3   OH222828   6.065   1.244   1.749 -0.1148  0.6777 -0.2780
  446TIP3    H122829   6.009   1.174   1.716 -0.9692  1.1217  0.2311
  446TIP3    H222830   6.015   1.324   1.737  0.7102  1.1624 -0.5069
  447TIP3   OH222831   0.509   3.670  12.128 -0.3719  0.3161 -0.5593
  447TIP3    H122832   0.567   3.728  12.177 -1.0170  1.2506 -0.8760
  447TIP3    H222833   0.555   3.653  12.046  0.3554 -0.6036  0.0388
  448TIP3   OH222834   0.656   3.659   1.164  0.1370 -0.0586 -0.0701
  448TIP3    H122835   0.748   3.640   1.180  0.5015  1.9854  0.4862
  448TIP3    H222836   0.654   3.753   1.145 -1.9650  0.1586  0.9950
  449TIP3   OH222837   3.150   1.128   6.602 -0.5420 -0.5609  0.1674
  449TIP3    H122838   3.192   1.042   6.613  1.1404  0.6026  3.6657
  449TIP3    H222839   3.217   1.191   6.627 -1.9490  1.7861 -1.7686
  450TIP3   OH222840   2.919   2.946  13.383  0.3623  0.7464  0.0439
  450TIP3    H122841   2.896   3.036  13.407  2.5158  1.7545 -1.5383
  450TIP3    H222842   3.005   2.933  13.422  0.8116 -0.0195 -1.1864
  451TIP3   OH222843   5.821   5.856  12.017  0.7840 -0.0582  0.2667
  451TIP3    H122844   5.872   5.785  12.057 -1.3573 -1.4098  0.6496
  451TIP3    H222845   5.816   5.833  11.924  0.1571 -0.3813  0.3768
  452TIP3   OH222846   1.614   6.502  16.690  0.2207 -0.2072 -0.0177
  452TIP3    H122847   1.547   6.434  16.702  0.0237  0.2442  1.5557
  452TIP3    H222848   1.583   6.575  16.743  1.1507  0.5966 -0.5795
  453TIP3   OH222849   6.774   2.923   0.330 -0.3264  0.0189 -0.0418
  453TIP3    H122850   6.796   2.835   0.300 -1.0288 -0.0613 -0.3290
  453TIP3    H222851   6.839   2.980   0.287 -1.4916 -0.0620 -1.9666
  454TIP3   OH222852   2.974   5.264  15.548 -0.2734  0.0388 -0.4179
  454TIP3    H122853   2.979   5.354  15.583 -0.7652  0.8215 -2.3379
  454TIP3    H222854   2.972   5.209  15.626  1.2248  1.6309  0.7956
  455TIP3   OH222855   5.310   2.786  13.363 -0.3822  0.2948 -0.6215
  455TIP3    H122856   5.251   2.804  13.290  0.0832  0.6016 -0.9275
  455TIP3    H222857   5.378   2.730  13.325  0.3304  1.1555 -0.6481
  456TIP3   OH222858   5.435   0.102  15.816 -0.1772 -0.2285 -0.3120
  456TIP3    H122859   5.390   0.019  15.801 -1.3216  0.6415 -1.8018
  456TIP3    H222860   5.368   0.160  15.851  1.3643 -0.8295  3.8790
  457TIP3   OH222861   5.010   5.745   0.217  0.6810  0.7007  0.1771
  457TIP3    H122862   4.978   5.823   0.173 -0.8938 -0.4474 -0.7455
  457TIP3    H222863   5.051   5.693   0.147  2.6735  1.1525  0.9589
  458TIP3   OH222864   4.776   2.202   5.835  0.6386  0.2286 -0.0684
  458TIP3    H122865   4.749   2.199   5.744 -0.7010  1.4190  0.2636
  458TIP3    H222866   4.860   2.247   5.834  0.6900  0.1126 -0.7405
  459TIP3   OH222867   5.124   1.993  11.149 -0.1089  0.1275 -0.3818
  459TIP3    H122868   5.186   1.922  11.161 -0.3276  0.0670  0.4365
  459TIP3    H222869   5.098   2.017  11.238  0.2363  1.4648 -0.6342
  460TIP3   OH222870   1.513   3.285   1.383  0.0643 -0.2987  0.1864
  460TIP3    H122871   1.601   3.321   1.381  0.2847 -0.9209 -1.3515
  460TIP3    H222872   1.488   3.290   1.476  2.0699 -1.0066  0.7950
  461TIP3   OH222873   4.616   4.734  12.683  0.6059  0.3777  0.3396
  461TIP3    H122874   4.605   4.823  12.650  0.9499  0.6247  0.8938
  461TIP3    H222875   4.654   4.745  12.770 -0.2166 -0.2801  0.7872
  462TIP3   OH222876   0.136   3.938  17.124 -0.2254  0.1268 -0.0045
  462TIP3    H122877   0.202   3.975  17.182 -0.5365 -0.3424  0.6671
  462TIP3    H222878   0.062   3.917  17.182 -0.8209  0.3109 -0.6853
  463TIP3   OH222879   4.266   4.151   0.978 -0.4751  0.1158 -0.6755
  463TIP3    H122880   4.227   4.234   0.951 -1.7139  0.0524  0.8988
  463TIP3    H222881   4.339   4.176   1.034 -0.6257  0.1489 -0.4937
  464TIP3   OH222882   1.615   2.379   2.882  0.1713 -0.2707  0.0532
  464TIP3    H122883   1.678   2.447   2.906 -0.3344  0.2876 -0.1912
  464TIP3    H222884   1.666   2.318   2.828  0.5593  0.0686  0.0325
  465TIP3   OH222885   5.999   4.018  14.046  0.2829 -0.3585  0.3265
  465TIP3    H122886   5.906   4.003  14.063  0.4789 -2.0644 -0.0685
  465TIP3    H222887   6.005   4.036  13.952  0.6513 -2.8993 -0.1669
  466TIP3   OH222888   2.234   1.672   0.832 -0.3432 -0.6896 -0.6466
  466TIP3    H122889   2.197   1.724   0.904 -2.2120 -1.8607 -0.7133
  466TIP3    H222890   2.189   1.588   0.838  0.4720 -1.2756 -2.3636
  467TIP3   OH222891   1.257   5.270  15.581  0.2681  0.0002  0.2173
  467TIP3    H122892   1.312   5.198  15.612  2.3374  1.6016  0.4063
  467TIP3    H222893   1.296   5.296  15.498  0.2228  1.5822  0.6621
  468TIP3   OH222894   2.084   2.137   3.640  0.5052 -0.4456  0.5448
  468TIP3    H122895   2.086   2.219   3.689 -2.7143 -0.2438  0.4815
  468TIP3    H222896   1.992   2.109   3.645  1.0746 -2.8329 -1.4064
  469TIP3   OH222897   4.693   5.933  11.844 -0.0093  0.9597 -0.5117
  469TIP3    H122898   4.780   5.905  11.873 -0.4628 -0.4014 -0.4163
  469TIP3    H222899   4.674   6.012  11.896 -0.0923 -0.4569  1.7068
  470TIP3   OH222900   1.509   1.091   1.063  0.2092  0.4639  0.1393
  470TIP3    H122901   1.489   1.087   0.970  1.5999 -1.7232 -0.1108
  470TIP3    H222902   1.442   1.036   1.105 -0.3038  1.2942  0.4232
  471TIP3   OH222903   2.392   5.647   3.099  0.1291  0.0764  0.2362
  471TIP3    H122904   2.469   5.692   3.131 -0.0259 -0.9900  2.1888
  471TIP3    H222905   2.321   5.711   3.109 -0.2684 -0.8478  3.8880
  472TIP3   OH222906   5.688   1.870   4.636 -0.1966 -0.2894 -0.1812
  472TIP3    H122907   5.782   1.886   4.634 -0.4018  0.8403 -2.0121
  472TIP3    H222908   5.678   1.792   4.691  1.8845 -0.9216 -0.6622
  473TIP3   OH222909   1.323   2.559   5.996  0.5880  0.4522 -0.2282
  473TIP3    H122910   1.362   2.638   6.036  0.3425  0.6147 -0.3117
  473TIP3    H222911   1.239   2.589   5.963  0.2198  0.0060  0.2993
  474TIP3   OH222912   5.566   5.398   1.934  0.2741  0.1232 -0.1631
  474TIP3    H122913   5.596   5.362   2.018 -0.5490 -0.7792 -0.2461
  474TIP3    H222914   5.476   5.426   1.951 -0.7487 -2.2976 -1.3674
  475TIP3   OH222915   4.001   4.697  12.215  0.2260 -0.1606  0.0435
  475TIP3    H122916   3.944   4.753  12.163  0.3123 -0.5897 -0.5228
  475TIP3    H222917   3.953   4.681  12.296 -1.3090 -2.0892 -1.2092
  476TIP3   OH222918   1.898   3.358  16.353  0.8067  0.2508  0.5375
  476TIP3    H122919   1.977   3.411  16.360  0.4324  0.6157  2.1374
  476TIP3    H222920   1.922   3.287  16.292  1.4301  1.9712 -1.2769
  477TIP3   OH222921   2.101   3.475  15.325  0.0216  0.4510 -0.1131
  477TIP3    H122922   2.052   3.401  15.291  1.0829 -0.9115  1.2589
  477TIP3    H222923   2.046   3.509  15.396 -1.0982  1.8564 -1.6026
  478TIP3   OH222924   5.220   1.535   2.727  0.2460  0.2811 -0.0891
  478TIP3    H122925   5.309   1.561   2.750 -0.1204  1.2126  0.2875
  478TIP3    H222926   5.168   1.551   2.806 -0.1072 -1.0299 -0.0411
  479TIP3   OH222927   3.316   1.386   5.118  0.6861 -0.6912  0.5139
  479TIP3    H122928   3.271   1.365   5.036 -0.3168  0.4744  0.7438
  479TIP3    H222929   3.336   1.479   5.111  2.1071 -0.9637  0.8851
  480TIP3   OH222930   2.628   4.371  12.458  0.3376  0.4183 -0.0232
  480TIP3    H122931   2.695   4.348  12.393  0.4272  0.3955  0.0793
  480TIP3    H222932   2.545   4.356  12.412  0.4028  1.0346 -0.3545
  481TIP3   OH222933   4.640   4.159  12.731  0.0553 -0.2637  0.3150
  481TIP3    H122934   4.557   4.198  12.758 -1.1428 -1.4007 -1.5838
  481TIP3    H222935   4.679   4.126  12.812 -0.4291  1.9431  1.4946
  482TIP3   OH222936   5.167   1.787  14.004 -0.0910  0.0743  0.6196
  482TIP3    H122937   5.120   1.869  13.994 -1.4779 -0.8510 -0.7272
  482TIP3    H222938   5.116   1.724  13.953  2.1006 -1.1522 -0.1277
  483TIP3   OH222939   4.984   3.450   1.758  0.2891  0.2739  0.0552
  483TIP3    H122940   5.035   3.379   1.718  0.6344  0.6436 -0.1714
  483TIP3    H222941   5.020   3.530   1.718 -0.4308  0.5403 -0.0587
  484TIP3   OH222942   3.427   4.701   1.338 -0.0434  0.4269 -0.4519
  484TIP3    H122943   3.399   4.660   1.420  0.1591  1.4149  0.1075
  484TIP3    H222944   3.506   4.654   1.314  0.2772  0.5930  0.2756
  485TIP3   OH222945   4.637   5.606  14.800  0.7292  0.5026 -0.5227
  485TIP3    H122946   4.672   5.598  14.888 -0.7566 -2.7309 -0.1647
  485TIP3    H222947   4.550   5.645  14.812  0.6379  0.3187 -0.5881
  486TIP3   OH222948   6.704   1.211   0.739 -0.1190  0.3852 -0.0693
  486TIP3    H122949   6.671   1.155   0.809  0.3500 -2.0268 -1.7230
  486TIP3    H222950   6.642   1.285   0.737 -2.6244 -1.6381  0.0668
  487TIP3   OH222951   0.566   1.394  13.433  0.5083 -0.5005 -0.0647
  487TIP3    H122952   0.640   1.401  13.371  0.5062  1.5297  0.1310
  487TIP3    H222953   0.489   1.417  13.381 -0.0211 -2.5015 -0.2367
  488TIP3   OH222954   5.702   1.644   5.854  0.2532 -0.2976  0.4730
  488TIP3    H122955   5.791   1.608   5.847  0.2258 -0.2833  0.0206
  488TIP3    H222956   5.694   1.671   5.946  0.4306 -1.0318  0.7063
  489TIP3   OH222957   1.763   2.690   0.778  0.2071 -0.6999  0.1790
  489TIP3    H122958   1.726   2.671   0.864  0.1652 -0.5547  0.1925
  489TIP3    H222959   1.687   2.691   0.719  0.2017 -0.5097  0.1886
  490TIP3   OH222960   4.539   5.176   3.386 -0.3564 -1.3152  0.1958
  490TIP3    H122961   4.490   5.229   3.448  1.3928  0.0807  0.4386
  490TIP3    H222962   4.600   5.238   3.345  0.7655 -2.8739 -0.5407
  491TIP3   OH222963   1.030   4.298  16.227  0.5157  0.1947 -0.8400
  491TIP3    H122964   0.969   4.292  16.300  0.1106  0.8436 -1.1207
  491TIP3    H222965   0.982   4.263  16.152  1.0928 -0.9166 -0.7065
  492TIP3   OH222966   6.799   3.417  13.806 -0.3506  0.1781 -0.2529
  492TIP3    H122967   6.843   3.386  13.727 -0.6044 -2.4016  0.5867
  492TIP3    H222968   6.725   3.358  13.818 -0.5212  0.7409  1.7252
  493TIP3   OH222969   0.447   4.373   1.890  0.2080  0.4508 -0.0968
  493TIP3    H122970   0.481   4.458   1.918  0.5588  1.1279 -2.5180
  493TIP3    H222971   0.521   4.314   1.898  0.7793  1.0097 -1.2535
  494TIP3   OH222972   3.424   1.054   6.809  0.2974  0.1398 -0.2936
  494TIP3    H122973   3.395   0.985   6.750  0.2567  0.7376 -0.9846
  494TIP3    H222974   3.372   1.130   6.785 -0.9641 -0.0556  1.6992
  495TIP3   OH222975   3.561   4.238  15.439 -0.4635 -0.3606  0.2831
  495TIP3    H122976   3.473   4.231  15.402  0.0154  0.0089 -0.9575
  495TIP3    H222977   3.568   4.330  15.467  0.1915  0.1334 -1.3993
  496TIP3   OH222978   3.953   3.253   0.458 -0.0142 -0.4478  0.6121
  496TIP3    H122979   3.901   3.220   0.532  2.2102 -2.4980  1.3318
  496TIP3    H222980   3.948   3.183   0.393  1.0832 -0.2579  0.3207
  497TIP3   OH222981   1.397   1.077   3.092 -0.0888 -0.2441  0.3603
  497TIP3    H122982   1.304   1.094   3.075  0.4847 -0.3853 -3.3971
  497TIP3    H222983   1.415   0.995   3.046  1.8367 -0.3976  1.3233
  498TIP3   OH222984   3.512   3.685   2.825 -0.4162  0.3907 -0.1505
  498TIP3    H122985   3.478   3.697   2.737  1.6303  2.1751 -0.7607
  498TIP3    H222986   3.545   3.595   2.827  0.6229  0.7146 -1.6407
  499TIP3   OH222987   2.959   2.245   0.996  0.0693  0.4534  0.6053
  499TIP3    H122988   2.892   2.177   0.989  0.8267 -0.1830 -0.9190
  499TIP3    H222989   2.913   2.327   0.981 -0.8993  0.3144  2.6885
  500TIP3   OH222990   2.333   4.537  16.646  0.4019 -0.1724 -0.3673
  500TIP3    H122991   2.246   4.507  16.619  0.3674 -0.5544  0.1642
  500TIP3    H222992   2.324   4.556  16.739  1.2092 -1.3782 -0.0384
  501TIP3   OH222993   5.222   6.303   4.531 -0.0869  0.4043  0.6276
  501TIP3    H122994   5.222   6.373   4.466 -2.6863 -1.0541 -1.0593
  501TIP3    H222995   5.291   6.243   4.502 -0.5912  0.2454 -0.2689
  502TIP3   OH222996   4.528   2.944  11.847  0.3136  0.4181 -0.1258
  502TIP3    H122997   4.457   2.967  11.908  0.0596  0.2402 -0.3535
  502TIP3    H222998   4.565   2.863  11.882  1.8907  1.7178  1.2615
  503TIP3   OH222999   4.185   5.238   1.434  0.3612  0.5603  0.4020
  503TIP3    H123000   4.134   5.319   1.437 -0.0608  0.4556 -2.9413
  503TIP3    H223001   4.125   5.173   1.398  1.7173 -0.4706 -0.0319
  504TIP3   OH223002   1.119   4.621   3.126 -0.2866 -0.1069  0.1823
  504TIP3    H123003   1.132   4.599   3.218  0.0122 -0.1004  0.1429
  504TIP3    H223004   1.056   4.693   3.127  1.0388  1.0629  0.4846
  505TIP3   OH223005   2.878   4.510   0.122  0.0394  0.6312  0.1382
  505TIP3    H123006   2.951   4.451   0.101  0.2846  0.7333  0.7026
  505TIP3    H223007   2.917   4.598   0.119  0.0505  0.6556  0.8965
  506TIP3   OH223008   2.890   0.256  15.109 -0.1571 -0.0478 -0.2400
  506TIP3    H123009   2.890   0.289  15.199 -1.4328 -0.5204 -0.0568
  506TIP3    H223010   2.902   0.335  15.055  0.2408  0.2815  0.3263
  507TIP3   OH223011   1.529   2.931  11.876 -0.1734  0.1093  0.5655
  507TIP3    H123012   1.495   2.858  11.825 -1.1888  1.4361 -0.7168
  507TIP3    H223013   1.553   2.997  11.810  1.0156  0.7996  1.6760
  508TIP3   OH223014   3.381   3.262  17.226  0.4544  0.6717 -0.0226
  508TIP3    H123015   3.476   3.271  17.234  0.6160  0.2996 -1.4306
  508TIP3    H223016   3.347   3.283  17.313  1.7888  1.3006  0.3488
  509TIP3   OH223017   6.100   3.267  12.710 -0.6480  0.2740  0.6891
  509TIP3    H123018   6.109   3.259  12.615  0.5898 -1.1264  0.9052
  509TIP3    H223019   6.080   3.360  12.725 -0.6649  0.5316 -0.9227
  510TIP3   OH223020   1.217   0.251  16.798 -0.6897 -0.4238  0.1010
  510TIP3    H123021   1.308   0.235  16.772 -0.8379 -1.6759  0.3251
  510TIP3    H223022   1.220   0.253  16.893 -1.1518 -2.0597  0.1535
  511TIP3   OH223023   5.605   5.014   0.019  0.3200  0.4360  0.0811
  511TIP3    H123024   5.540   5.044   0.083  0.2706 -1.7729  1.0808
  511TIP3    H223025   5.680   4.988   0.071  1.7422  2.1922 -1.0295
  512TIP3   OH223026   6.226   3.785   1.890 -0.1094  0.0670  0.3798
  512TIP3    H123027   6.162   3.723   1.925 -0.5445  0.0972 -0.3464
  512TIP3    H223028   6.281   3.809   1.965  1.6397 -3.0852  0.1922
  513TIP3   OH223029   1.132   1.797   6.560  0.2779  0.0931  0.2376
  513TIP3    H123030   1.110   1.869   6.619  2.2315  0.2597  0.7855
  513TIP3    H223031   1.156   1.724   6.618  0.6791 -0.2311 -0.3262
  514TIP3   OH223032   6.532   2.474   2.486  0.4871  0.1577  0.2617
  514TIP3    H123033   6.471   2.528   2.434  1.2275  3.5810  2.7704
  514TIP3    H223034   6.596   2.443   2.422 -0.9562  0.7594 -1.5531
  515TIP3   OH223035   5.794   1.069  12.166 -0.0905 -0.1360 -0.4520
  515TIP3    H123036   5.785   1.086  12.260 -1.0485 -0.1453 -0.5391
  515TIP3    H223037   5.820   0.978  12.161 -1.9529 -0.7002 -0.2605
  516TIP3   OH223038   5.842   6.584   2.020 -0.2909  0.0670 -0.3643
  516TIP3    H123039   5.867   6.553   1.932 -1.0468  0.9882 -0.9146
  516TIP3    H223040   5.777   6.652   2.003 -1.9993 -1.1849  0.9634
  517TIP3   OH223041   2.225   4.316  14.498 -0.0320 -0.2362 -0.1212
  517TIP3    H123042   2.222   4.227  14.533  0.4378 -0.5137 -0.7726
  517TIP3    H223043   2.301   4.356  14.541 -1.0259  0.2856  1.1765
  518TIP3   OH223044   4.372   3.220  13.924  0.2829  0.4420 -0.7795
  518TIP3    H123045   4.285   3.196  13.893 -0.3490  1.6662  0.0215
  518TIP3    H223046   4.387   3.308  13.889  0.2881  1.1150  0.8931
  519TIP3   OH223047   4.120   1.906  11.779  0.0995  0.6189 -0.2185
  519TIP3    H123048   4.051   1.948  11.831  0.0150  0.0426  0.1419
  519TIP3    H223049   4.200   1.953  11.802  0.3572 -0.7475  1.7429
  520TIP3   OH223050   6.092   2.558   1.046  0.9229  0.1715  0.4759
  520TIP3    H123051   6.006   2.519   1.063  0.9710  0.2726  0.9766
  520TIP3    H223052   6.089   2.584   0.954  0.8008 -0.7767  0.2041
  521TIP3   OH223053   0.311   1.376   2.567  0.3559 -0.1600 -1.1005
  521TIP3    H123054   0.390   1.346   2.611  0.3300  0.3113 -0.7223
  521TIP3    H223055   0.302   1.467   2.595 -1.0894 -0.6065 -0.0281
  522TIP3   OH223056   2.646   1.001   3.196  0.4254 -0.3985  0.4905
  522TIP3    H123057   2.586   0.964   3.261 -1.6143 -0.2127 -1.2479
  522TIP3    H223058   2.606   1.085   3.172  0.7980 -0.7739 -1.4749
  523TIP3   OH223059   0.138   1.526  11.736  0.6115 -0.4140  0.0512
  523TIP3    H123060   0.193   1.589  11.784  0.4652 -0.7471  0.6553
  523TIP3    H223061   0.195   1.451  11.721  0.6298 -0.3474 -0.2349
  524TIP3   OH223062   6.351   2.003   2.256  0.0986  0.1100 -0.6477
  524TIP3    H123063   6.417   1.995   2.187  0.5323  0.7367 -0.3131
  524TIP3    H223064   6.393   2.058   2.322  1.1682 -3.6938  1.9664
  525TIP3   OH223065   5.951   1.750   1.497 -0.3925  0.1427 -0.0299
  525TIP3    H123066   5.984   1.711   1.416 -0.7008 -1.2500  0.4841
  525TIP3    H223067   5.868   1.705   1.512  1.3068 -2.2448  2.9072
  526TIP3   OH223068   3.981   0.783   2.309  0.2356  0.5353 -0.0215
  526TIP3    H123069   3.910   0.793   2.246  0.8667 -0.2005 -0.8599
  526TIP3    H223070   3.941   0.738   2.384 -0.1771  0.1493 -0.4778
  527TIP3   OH223071   2.273   2.195   1.649 -0.2379 -0.0586 -0.7396
  527TIP3    H123072   2.228   2.223   1.570  0.3962  0.3714 -0.9555
  527TIP3    H223073   2.205   2.191   1.716 -0.1063  3.4533 -0.3229
  528TIP3   OH223074   5.736   0.709   2.599 -0.8149 -0.0488  0.1530
  528TIP3    H123075   5.772   0.663   2.523 -0.1311 -0.3578  0.6650
  528TIP3    H223076   5.811   0.721   2.658 -1.7304 -1.5333  1.6497
  529TIP3   OH223077   1.989   6.265   4.692 -0.0162 -0.3387 -0.1333
  529TIP3    H123078   1.960   6.174   4.696  0.6442 -0.6336 -1.6389
  529TIP3    H223079   1.915   6.316   4.726  0.3813 -1.5573  2.7818
  530TIP3   OH223080   4.841   1.522  12.447  0.3138  0.0290  0.3666
  530TIP3    H123081   4.779   1.490  12.513  0.2889 -0.6454  0.0225
  530TIP3    H223082   4.919   1.469  12.459 -0.2462 -1.1964 -1.1768
  531TIP3   OH223083   3.807   3.479  15.129 -0.0819 -0.3737 -0.0004
  531TIP3    H123084   3.882   3.425  15.153  1.0376  1.3466  0.5053
  531TIP3    H223085   3.809   3.552  15.192 -2.1260 -0.2627 -0.0364
  532TIP3   OH223086   1.297   0.377   1.319  0.1031  0.1483 -1.2270
  532TIP3    H123087   1.267   0.422   1.398  0.2608 -2.9295  0.6886
  532TIP3    H223088   1.222   0.324   1.292  0.0041  1.2727 -3.2676
  533TIP3   OH223089   1.085   6.303  12.491  0.4574 -0.0513 -0.4405
  533TIP3    H123090   1.025   6.337  12.425 -2.0847 -2.4255  0.5363
  533TIP3    H223091   1.143   6.244  12.442 -1.0312 -1.3490 -0.6601
  534TIP3   OH223092   0.573   3.045   4.872  0.3807 -0.1004  0.6991
  534TIP3    H123093   0.651   2.991   4.863 -0.3299 -1.2608  1.3151
  534TIP3    H223094   0.513   3.012   4.805  0.2798  0.5387  0.4700
  535TIP3   OH223095   2.666   0.596  11.265 -0.1703  0.0170  0.2813
  535TIP3    H123096   2.759   0.594  11.289 -0.2110  0.1666  0.4570
  535TIP3    H223097   2.640   0.687  11.281 -0.3045  0.0156  0.0695
  536TIP3   OH223098   0.454   5.881  16.714 -0.2004 -0.7582  0.2307
  536TIP3    H123099   0.422   5.879  16.624  3.0266 -4.3715 -0.9482
  536TIP3    H223100   0.540   5.922  16.708 -0.2413 -0.4057  1.7968
  537TIP3   OH223101   6.329   0.817   4.276 -0.0780 -0.0449 -0.0585
  537TIP3    H123102   6.360   0.727   4.269  2.7708  0.7613  1.2649
  537TIP3    H223103   6.381   0.865   4.212 -2.6907  0.4348 -1.8853
  538TIP3   OH223104   5.178   5.639  12.147 -0.0547 -0.3517 -0.6109
  538TIP3    H123105   5.127   5.718  12.131 -0.7633 -0.4934  0.9142
  538TIP3    H223106   5.242   5.664  12.213  1.4274 -0.3638 -2.0050
  539TIP3   OH223107   4.713   4.632  15.184 -0.0588  0.1119  0.1589
  539TIP3    H123108   4.686   4.593  15.101  1.6366  0.0675 -0.3948
  539TIP3    H223109   4.691   4.566  15.250  0.7772 -0.8843 -0.5305
  540TIP3   OH223110   5.993   2.232   2.153  0.2041 -0.1391 -0.6728
  540TIP3    H123111   6.034   2.301   2.206  0.8745  0.6231 -2.1682
  540TIP3    H223112   6.021   2.151   2.194 -0.0074  0.4492  0.6757
  541TIP3   OH223113   5.159   5.332  16.926  0.5944  0.1713 -0.1753
  541TIP3    H123114   5.223   5.387  16.881  0.2970 -0.1633 -1.0160
  541TIP3    H223115   5.175   5.244  16.893  1.0048 -0.2415  1.1022
  542TIP3   OH223116   4.565   1.847  11.637 -0.1659  0.3127  0.0142
  542TIP3    H123117   4.487   1.803  11.672 -0.3083 -0.0147 -0.7096
  542TIP3    H223118   4.609   1.781  11.584  0.6769  0.4629  0.5165
  543TIP3   OH223119   2.149   6.549   0.810 -0.3042  0.3916  0.3522
  543TIP3    H123120   2.173   6.621   0.868 -0.8800 -0.0511  1.1544
  543TIP3    H223121   2.081   6.502   0.858 -0.6143 -0.1206 -0.5837
  544TIP3   OH223122   2.403   4.727   1.270 -0.0732 -0.3042  0.5864
  544TIP3    H123123   2.372   4.798   1.214 -1.3539 -1.0995  0.2658
  544TIP3    H223124   2.421   4.769   1.354  1.0573  0.7413 -0.1595
  545TIP3   OH223125   6.157   0.489   2.668  0.2099 -0.2047  0.1907
  545TIP3    H123126   6.150   0.516   2.759  1.4164 -0.2394  0.2931
  545TIP3    H223127   6.204   0.406   2.670  0.5139 -0.0556 -0.4867
  546TIP3   OH223128   0.326   2.078  14.601  0.5628  0.6571 -0.1551
  546TIP3    H123129   0.382   2.034  14.665  1.1396  2.7310  0.8252
  546TIP3    H223130   0.263   2.126  14.655 -1.4064 -0.6617 -1.2294
  547TIP3   OH223131   6.783   0.341  15.921  0.1971  0.4120  0.6439
  547TIP3    H123132   6.773   0.376  15.833  1.3270 -0.5087  0.1309
  547TIP3    H223133   6.721   0.268  15.925 -1.0996  1.5501  1.2072
  548TIP3   OH223134   5.135   4.844  15.484  0.3409  0.6299  0.2784
  548TIP3    H123135   5.126   4.826  15.577 -0.5892 -0.7093 -0.0597
  548TIP3    H223136   5.183   4.769  15.449 -1.2002  0.0572 -0.6810
  549TIP3   OH223137   3.627   0.560   4.599  0.2936 -0.1262  0.0915
  549TIP3    H123138   3.628   0.637   4.656  0.9022 -0.1812  0.1667
  549TIP3    H223139   3.595   0.592   4.515 -0.4382 -0.0064  0.4155
  550TIP3   OH223140   4.385   0.410  12.076  0.3045 -0.2578  0.4418
  550TIP3    H123141   4.315   0.346  12.080 -1.5473  1.7648  1.6085
  550TIP3    H223142   4.427   0.407  12.162 -0.3985  0.7329  0.8300
  551TIP3   OH223143   2.950   3.056  15.713  0.1941 -0.1369  0.6428
  551TIP3    H123144   3.008   3.132  15.718 -0.3548  0.4056 -0.9390
  551TIP3    H223145   2.891   3.065  15.788  1.3365 -0.0244  1.5373
  552TIP3   OH223146   2.763   1.298   0.841  0.1186  0.3343  0.3019
  552TIP3    H123147   2.813   1.236   0.893 -0.3365 -0.2583  0.0357
  552TIP3    H223148   2.682   1.252   0.820 -0.2757  1.0603  0.2084
  553TIP3   OH223149   2.351   5.824   5.638 -0.3983  0.8380 -0.8485
  553TIP3    H123150   2.305   5.851   5.718  0.1801 -0.7540  0.0416
  553TIP3    H223151   2.290   5.767   5.593  0.6784 -1.4057  0.4108
  554TIP3   OH223152   5.057   4.912  15.217  0.1495  0.4247  0.4750
  554TIP3    H123153   5.122   4.956  15.162  0.8835  0.0412  1.0391
  554TIP3    H223154   5.090   4.922  15.306 -1.8380  2.4106  1.0243
  555TIP3   OH223155   2.411   3.408   4.601  0.4824  0.2052  0.5536
  555TIP3    H123156   2.365   3.378   4.523  0.2659  1.4617  0.1974
  555TIP3    H223157   2.501   3.425   4.572  0.2327  1.3228  0.4230
  556TIP3   OH223158   4.374   0.268  15.592  0.5519 -0.9992  0.4260
  556TIP3    H123159   4.424   0.255  15.511 -0.8734 -0.8073 -0.5153
  556TIP3    H223160   4.373   0.363  15.604 -0.5907 -0.9030 -0.2503
  557TIP3   OH223161   2.974   0.044   3.014 -0.4990  0.1329 -0.0353
  557TIP3    H123162   3.012  -0.024   2.958 -0.6803  1.4629 -1.8160
  557TIP3    H223163   2.950   0.114   2.953 -2.4751  0.8215  1.4865
  558TIP3   OH223164   2.108   3.477  15.783  0.2841 -0.0438  0.5455
  558TIP3    H123165   2.062   3.395  15.768 -0.5889  0.4103  0.7086
  558TIP3    H223166   2.186   3.452  15.833 -0.6716 -0.6100  1.7819
  559TIP3   OH223167   1.040   2.585  13.968  0.7776  0.5444  0.4335
  559TIP3    H123168   1.003   2.622  13.888  0.3995 -0.4781  0.1242
  559TIP3    H223169   1.037   2.656  14.031  1.0459  1.3478 -0.4558
  560TIP3   OH223170   5.759   1.164  15.787  0.0584 -0.0229  0.6439
  560TIP3    H123171   5.687   1.144  15.727  0.9455  1.3913 -0.9596
  560TIP3    H223172   5.719   1.220  15.854 -0.3418  0.8005 -0.2678
  561TIP3   OH223173   4.581   3.428   2.879  0.2643 -0.2301  0.3688
  561TIP3    H123174   4.541   3.356   2.830  0.2092  0.4387 -0.5865
  561TIP3    H223175   4.562   3.409   2.971 -2.7583  0.3966 -0.0922
  562TIP3   OH223176   6.074   1.982  15.014  0.6210 -0.0762 -0.4922
  562TIP3    H123177   6.128   1.923  14.963 -0.3283 -0.7963 -0.6845
  562TIP3    H223178   6.090   1.957  15.105 -0.5699 -1.3551 -0.6148
  563TIP3   OH223179   1.365   2.705  12.023  0.4909  0.1348 -0.1100
  563TIP3    H123180   1.378   2.675  11.933 -0.4162  0.1922 -0.2643
  563TIP3    H223181   1.453   2.727  12.053  0.6926  1.1285 -1.3397
  564TIP3   OH223182   2.983   5.746   6.669  0.2339 -0.0652 -0.2328
  564TIP3    H123183   2.983   5.660   6.709  2.7091  0.5538  1.1262
  564TIP3    H223184   3.061   5.748   6.614  0.3603  1.4089 -0.0315
  565TIP3   OH223185   3.951   5.958  15.511  0.2211 -0.3510 -0.2912
  565TIP3    H123186   4.014   5.967  15.583 -1.2013  1.6427  0.7796
  565TIP3    H223187   3.982   6.019  15.444  0.5570 -0.8682 -0.6012
  566TIP3   OH223188   2.770   6.150  14.834 -0.6029 -0.4608  0.7401
  566TIP3    H123189   2.675   6.156  14.839 -0.6013  0.3462 -0.1396
  566TIP3    H223190   2.793   6.193  14.752  0.4949 -0.9631  0.7712
  567TIP3   OH223191   1.321   5.048  14.908  0.0278 -0.7543 -0.1825
  567TIP3    H123192   1.270   5.042  14.827  0.4775 -0.7477 -0.4672
  567TIP3    H223193   1.260   5.022  14.976 -0.2609 -1.0809 -0.5608
  568TIP3   OH223194   0.159   0.079  15.462 -0.2599 -0.0990 -0.3386
  568TIP3    H123195   0.226   0.148  15.464 -0.9853  0.6004  1.1010
  568TIP3    H223196   0.176   0.028  15.541 -1.1662 -0.1599 -0.1807
  569TIP3   OH223197   5.991   5.001   1.281  0.0821  0.3644 -0.3336
  569TIP3    H123198   5.911   5.029   1.325 -0.4844  0.3941 -1.3555
  569TIP3    H223199   6.024   4.929   1.335  0.6805  1.9092  1.4112
  570TIP3   OH223200   1.130   2.518   3.484 -0.5296 -0.1856 -0.2135
  570TIP3    H123201   1.191   2.494   3.414 -0.7822  0.0207 -0.5099
  570TIP3    H223202   1.047   2.534   3.438 -0.5595  0.4884  0.0633
  571TIP3   OH223203   3.945   3.921   5.488 -0.0829  0.6850  0.0461
  571TIP3    H123204   3.909   3.848   5.539 -0.9497  0.0256 -1.4887
  571TIP3    H223205   3.868   3.966   5.452  0.4791  1.8434  0.2417
  572TIP3   OH223206   3.622   5.260  12.756 -0.0545 -0.2474  0.5375
  572TIP3    H123207   3.570   5.213  12.690  1.6268  1.8152 -2.3594
  572TIP3    H223208   3.574   5.341  12.770  0.6099  0.1769  0.3701
  573TIP3   OH223209   5.905   3.908  12.113  0.3406 -0.2386  0.1361
  573TIP3    H123210   5.989   3.954  12.120 -0.6643  1.5340  0.7118
  573TIP3    H223211   5.856   3.957  12.047 -0.1312 -1.4878 -0.4713
  574TIP3   OH223212   4.413   4.216   0.599  0.0304  0.4973 -0.5363
  574TIP3    H123213   4.345   4.203   0.664  0.2644  0.1064 -0.3685
  574TIP3    H223214   4.384   4.166   0.523  0.7500 -0.7146 -0.0201
  575TIP3   OH223215   2.702   6.442  12.270  0.1088  0.0943  0.2602
  575TIP3    H123216   2.671   6.483  12.189  0.4536 -1.3088 -0.5900
  575TIP3    H223217   2.622   6.415  12.315 -0.0170 -1.8663 -1.0671
  576TIP3   OH223218   5.724   2.253  14.380 -0.3739 -0.0201  0.4802
  576TIP3    H123219   5.771   2.315  14.436 -1.4946 -0.3214  1.7842
  576TIP3    H223220   5.755   2.167  14.409 -1.8381 -0.2323  1.4955
  577TIP3   OH223221   2.088   3.310   5.025 -0.3710  0.5682 -0.3732
  577TIP3    H123222   2.051   3.390   4.988 -2.8920 -0.3328  0.0522
  577TIP3    H223223   2.036   3.295   5.105 -0.5653 -1.9358 -0.9170
  578TIP3   OH223224   4.188   3.388  16.110  0.6408 -0.3055  0.0834
  578TIP3    H123225   4.140   3.307  16.091  0.9881 -0.2254 -1.2245
  578TIP3    H223226   4.166   3.446  16.037  0.4185  0.7788  0.9949
  579TIP3   OH223227   0.176   3.405  12.053 -0.2795  0.1594 -0.2573
  579TIP3    H123228   0.175   3.485  12.002  1.1353 -0.6397 -1.5766
  579TIP3    H223229   0.251   3.356  12.020 -1.8579 -2.2823 -0.3823
  580TIP3   OH223230   6.177   6.700   2.371  0.4681 -0.0114 -0.0718
  580TIP3    H123231   6.174   6.622   2.426  2.8601  0.6418  1.0394
  580TIP3    H223232   6.098   6.748   2.393 -0.4574 -1.5731  0.0599
  581TIP3   OH223233   5.692   1.165   1.928 -0.4796 -0.0110  0.6862
  581TIP3    H123234   5.649   1.233   1.979  0.6538  0.1015  1.5158
  581TIP3    H223235   5.771   1.144   1.978  0.8981  0.4332 -1.2543
  582TIP3   OH223236   1.201   2.326  11.061  0.6173  0.2788  0.4940
  582TIP3    H123237   1.222   2.418  11.046  0.2926 -0.0013 -1.8220
  582TIP3    H223238   1.105   2.322  11.053  0.6371 -0.2684  0.5294
  583TIP3   OH223239   0.594   2.798   2.167  0.2916  0.1177 -0.0127
  583TIP3    H123240   0.673   2.765   2.123 -0.1389  0.6315 -1.1907
  583TIP3    H223241   0.597   2.758   2.254  0.1598 -2.4921 -1.1511
  584TIP3   OH223242   3.619   1.575   3.213 -0.4976 -0.2653  0.2995
  584TIP3    H123243   3.538   1.588   3.262 -2.4129 -1.7698 -2.3156
  584TIP3    H223244   3.616   1.642   3.144  1.3759  0.8212  1.2439
  585TIP3   OH223245   2.005   6.614   6.261  0.5873  0.0919  0.1208
  585TIP3    H123246   1.934   6.678   6.265  0.8994  0.3793  1.2116
  585TIP3    H223247   1.989   6.566   6.179 -1.8346 -0.9807  1.1718
  586TIP3   OH223248   4.008   4.676  12.971 -0.0574 -0.2165 -0.0883
  586TIP3    H123249   3.940   4.680  13.038 -0.0576  1.4799 -0.1715
  586TIP3    H223250   4.061   4.600  12.995 -0.5529 -0.1219  1.3397
  587TIP3   OH223251   4.893   5.604  13.838 -0.3472 -0.7678 -0.4276
  587TIP3    H123252   4.815   5.659  13.841  0.7263  0.7371  0.5911
  587TIP3    H223253   4.924   5.600  13.928  1.8660  0.2881 -1.1061
  588TIP3   OH223254   1.988   2.638  15.977 -0.2434 -0.1641  0.4415
  588TIP3    H123255   1.978   2.594  15.893 -0.7667 -0.6172  0.7362
  588TIP3    H223256   2.082   2.656  15.984 -0.2462  0.1454 -0.3738
  589TIP3   OH223257   4.068   3.745   5.722 -0.0157 -0.1314 -0.4451
  589TIP3    H123258   4.006   3.692   5.672 -1.6238  3.2577 -2.2763
  589TIP3    H223259   4.131   3.776   5.656 -0.2056  1.6610  0.1754
  590TIP3   OH223260   6.491   2.801  12.294 -0.0475 -0.2960 -0.5475
  590TIP3    H123261   6.460   2.757  12.214  1.6024  1.3660 -2.1478
  590TIP3    H223262   6.585   2.785  12.294  0.3371  1.9269 -0.3199
  591TIP3   OH223263   0.642   0.048  12.306  0.6663 -0.6676 -0.0829
  591TIP3    H123264   0.699   0.105  12.358 -0.1244 -1.1014  1.2924
  591TIP3    H223265   0.702  -0.004  12.253  1.4553  0.3676 -0.2272
  592TIP3   OH223266   1.611   3.183   2.700  0.0175 -0.3020 -0.0189
  592TIP3    H123267   1.553   3.187   2.624  0.9308 -1.6305 -0.8170
  592TIP3    H223268   1.599   3.095   2.735 -0.4796  0.3341  1.4659
  593TIP3   OH223269   2.902   0.537   1.706  0.5867  0.1968 -0.8481
  593TIP3    H123270   2.861   0.452   1.691  0.4077  0.1042  0.1909
  593TIP3    H223271   2.956   0.525   1.783 -0.8576  1.5140  0.4076
  594TIP3   OH223272   6.410   3.700   5.905  0.2164 -0.2077  0.0760
  594TIP3    H123273   6.360   3.728   5.981  0.5304  3.1855 -0.8962
  594TIP3    H223274   6.500   3.725   5.925  0.5823 -0.8641 -0.6936
  595TIP3   OH223275   6.767   1.047  16.722 -0.2872  0.4206 -0.4062
  595TIP3    H123276   6.803   0.961  16.740 -0.6601  0.0209 -1.4951
  595TIP3    H223277   6.690   1.054  16.779 -0.6594 -0.2590 -0.8148
  596TIP3   OH223278   3.292   4.963  16.092 -0.1375  0.3175 -0.1455
  596TIP3    H123279   3.387   4.971  16.079 -0.1582 -0.2640 -0.6853
  596TIP3    H223280   3.283   4.934  16.182  0.2944 -1.3194 -0.5908
  597TIP3   OH223281   2.602   3.420  14.712 -0.0574  0.2627 -0.9338
  597TIP3    H123282   2.565   3.377  14.788  2.6133  0.1053  0.3533
  597TIP3    H223283   2.665   3.357  14.676  0.9921  1.5199 -1.3895
  598TIP3   OH223284   5.166   3.343  12.204  1.1147  0.1289  0.0929
  598TIP3    H123285   5.161   3.427  12.251 -1.0741 -0.9274  1.7920
  598TIP3    H223286   5.197   3.367  12.116  0.5375  2.7135  0.5567
  599TIP3   OH223287   2.401   4.868   0.933  0.3145  0.0356 -0.2001
  599TIP3    H123288   2.382   4.928   0.862  2.4364  1.3661  0.3051
  599TIP3    H223289   2.425   4.786   0.890 -0.4053  0.2229 -0.9546
  600TIP3   OH223290   3.336   4.022   6.179 -0.0194  0.1385 -0.0226
  600TIP3    H123291   3.289   4.076   6.115  0.0577  0.1505 -0.0691
  600TIP3    H223292   3.421   4.064   6.187 -0.0871  0.2300  0.2096
  601TIP3   OH223293   0.911   1.271  11.412  0.0519  0.2893  0.3816
  601TIP3    H123294   0.822   1.252  11.383  0.0589  1.1671 -0.2268
  601TIP3    H223295   0.965   1.255  11.335  0.1249  2.1731  0.0139
  602TIP3   OH223296   6.035   3.457  15.951  0.0205 -0.0712  0.4936
  602TIP3    H123297   5.995   3.376  15.919  2.3973 -0.8335 -0.6502
  602TIP3    H223298   6.031   3.516  15.876  1.5945 -0.3656  0.1745
  603TIP3   OH223299   3.109   5.955   0.940 -0.0646 -0.6911 -0.2411
  603TIP3    H123300   3.113   5.929   1.032 -1.1840  1.0175  0.3206
  603TIP3    H223301   3.130   5.875   0.891  1.3166 -1.4109  1.5066
  604TIP3   OH223302   2.884   5.568  12.356  0.7149 -0.3685  0.1370
  604TIP3    H123303   2.805   5.621  12.369  0.2459 -0.7061 -1.3057
  604TIP3    H223304   2.934   5.580  12.437 -0.3151  0.6938  0.6315
  605TIP3   OH223305   6.491   1.444   4.949 -0.5839  0.1915  0.2006
  605TIP3    H123306   6.485   1.402   4.863  2.4220  1.1053 -0.5348
  605TIP3    H223307   6.487   1.372   5.011  0.6319 -0.8532 -0.8897
  606TIP3   OH223308   5.290   5.140   6.147  0.2070  0.0113  0.1932
  606TIP3    H123309   5.312   5.047   6.159  3.0509  0.2193 -2.6713
  606TIP3    H223310   5.195   5.142   6.142  0.0128 -2.5501  1.8345
  607TIP3   OH223311   0.848   4.090   0.009  1.0340 -0.2403  0.0614
  607TIP3    H123312   0.794   4.169   0.003  1.8042  0.2349 -0.6502
  607TIP3    H223313   0.820   4.036  -0.064  2.7250  0.7701 -1.3758
  608TIP3   OH223314   4.318   5.539  11.587  0.2131  0.0667  0.0119
  608TIP3    H123315   4.370   5.474  11.540  2.0298  0.8580  0.8650
  608TIP3    H223316   4.299   5.498  11.671 -1.6170 -0.6935 -0.7407
  609TIP3   OH223317   0.783   3.417  14.835  0.4785 -0.7033  0.7333
  609TIP3    H123318   0.780   3.339  14.889 -1.7801 -0.6516  0.7163
  609TIP3    H223319   0.870   3.453  14.849  0.4925 -1.5998  3.0342
  610TIP3   OH223320   3.984   5.461  15.352 -0.2087 -0.1363 -0.4843
  610TIP3    H123321   3.983   5.512  15.433 -1.2929  0.8429 -1.1047
  610TIP3    H223322   4.076   5.459  15.326 -0.2218  1.9999 -0.7565
  611TIP3   OH223323   3.440   5.473  11.656  0.2747 -0.0190  0.2958
  611TIP3    H123324   3.375   5.466  11.726 -0.5508 -1.5414 -0.5851
  611TIP3    H223325   3.514   5.518  11.696 -0.3633 -0.4487  2.0074
  612TIP3   OH223326   0.217   6.163   5.142 -0.2294  0.4919 -0.4816
  612TIP3    H123327   0.243   6.070   5.139 -0.2365  0.4850 -0.2875
  612TIP3    H223328   0.248   6.194   5.227 -0.8297  0.4980 -0.2696
  613TIP3   OH223329   2.599   1.950   5.572  0.2546 -0.5770 -0.3029
  613TIP3    H123330   2.627   1.914   5.657 -0.0553 -1.4697 -0.5797
  613TIP3    H223331   2.616   2.044   5.580  2.2950 -0.9333 -0.0440
  614TIP3   OH223332   2.610   3.568   5.652  0.0622 -0.4080 -0.0777
  614TIP3    H123333   2.537   3.507   5.650 -0.7471  0.5533 -0.2425
  614TIP3    H223334   2.683   3.516   5.686 -0.4848 -1.5870 -0.6527
  615TIP3   OH223335   3.858   4.500   2.316  0.0044  0.3949 -0.0955
  615TIP3    H123336   3.925   4.566   2.335 -1.5930  2.0511 -0.1035
  615TIP3    H223337   3.775   4.542   2.340 -1.0423 -1.6460 -0.0107
  616TIP3   OH223338   1.034   5.095  11.504 -0.2575  0.3939 -0.0394
  616TIP3    H123339   0.990   5.010  11.504 -0.2746  0.4019 -0.4938
  616TIP3    H223340   0.969   5.155  11.467  0.2001  0.3698 -0.8925
  617TIP3   OH223341   3.292   0.411   1.678 -0.1654 -0.2976  0.3733
  617TIP3    H123342   3.381   0.445   1.677 -0.4584  0.5221  1.6667
  617TIP3    H223343   3.253   0.442   1.596 -0.0812  1.5323  1.0213
  618TIP3   OH223344   3.533   2.518  16.220  0.0494 -0.0921 -0.3414
  618TIP3    H123345   3.537   2.541  16.127  0.2301 -2.1427 -0.8500
  618TIP3    H223346   3.440   2.513  16.240  0.0102  0.3841 -0.3841
  619TIP3   OH223347   6.166   4.291   2.329  0.2020  0.3218  0.0154
  619TIP3    H123348   6.148   4.198   2.314 -1.0322  0.5952 -0.2618
  619TIP3    H223349   6.190   4.325   2.243  0.0453  0.3860 -0.0041
  620TIP3   OH223350   6.319   5.101  10.702  0.1703  0.5811  0.1120
  620TIP3    H123351   6.397   5.084  10.648  1.1643  4.0283  0.3382
  620TIP3    H223352   6.352   5.098  10.792 -0.0973  1.3305  0.2351
  621TIP3   OH223353   0.900   2.290  13.219 -0.1076  0.3617  0.0607
  621TIP3    H123354   0.945   2.260  13.297 -2.2178  1.5480  1.8134
  621TIP3    H223355   0.826   2.341  13.252 -0.7914  1.2910 -2.7157
  622TIP3   OH223356   1.060   1.584   5.762  0.2440  0.1171 -0.2521
  622TIP3    H123357   1.074   1.492   5.785 -1.4552 -0.4280 -1.2490
  622TIP3    H223358   1.076   1.587   5.667  0.0654  0.7904 -0.2633
  623TIP3   OH223359   6.804   6.229  12.640  0.0967 -0.6665 -0.3798
  623TIP3    H123360   6.836   6.169  12.573  0.3120  1.2032 -1.9992
  623TIP3    H223361   6.884   6.267  12.677 -0.0781 -0.3237 -0.3549
  624TIP3   OH223362   1.312   2.979   5.461  0.3808  0.4073 -0.0881
  624TIP3    H123363   1.237   3.036   5.447 -0.5152 -0.7861 -0.2577
  624TIP3    H223364   1.387   3.028   5.427 -0.7133  0.5209 -2.4314
  625TIP3   OH223365   1.817   6.529   0.311 -0.2374 -0.1028  0.4892
  625TIP3    H123366   1.789   6.552   0.399 -0.8016 -4.1901  1.4357
  625TIP3    H223367   1.909   6.503   0.321 -0.5151 -1.2940  0.0312
  626TIP3   OH223368   4.338   4.702  14.202  0.0372 -1.1740 -0.2664
  626TIP3    H123369   4.369   4.726  14.115 -3.0448  1.4191 -0.7496
  626TIP3    H223370   4.281   4.627  14.187 -0.0459 -1.0848 -0.3959
  627TIP3   OH223371   6.673   3.477  10.810  0.3036 -0.8281  0.2833
  627TIP3    H123372   6.757   3.465  10.856  0.1188 -1.4731  0.4537
  627TIP3    H223373   6.657   3.571  10.816  0.6972 -0.7868  0.8236
  628TIP3   OH223374   4.507   2.466  12.356  0.0324 -0.2980 -0.3270
  628TIP3    H123375   4.473   2.465  12.266  0.8936 -3.8979 -0.6970
  628TIP3    H223376   4.598   2.438  12.348  0.4834  0.5396  1.5706
  629TIP3   OH223377   4.656   0.213   2.184  0.1205 -0.2998  0.4604
  629TIP3    H123378   4.697   0.297   2.161 -0.5308 -0.1388 -0.0977
  629TIP3    H223379   4.647   0.217   2.280 -2.6835  1.5457  0.1743
  630TIP3   OH223380   1.851   4.029  15.091  0.1761  0.4835 -0.1595
  630TIP3    H123381   1.810   4.051  15.007 -0.5700 -0.0840  0.0526
  630TIP3    H223382   1.932   3.985  15.067 -1.2768 -2.0292 -0.6064
  631TIP3   OH223383   1.049   3.056   6.178 -0.0336  0.0794 -0.5234
  631TIP3    H123384   1.084   3.144   6.191  1.6939 -0.5602 -0.7405
  631TIP3    H223385   1.047   3.018   6.266  0.4886 -0.1365 -0.6067
  632TIP3   OH223386   3.406   5.515  14.278 -0.1835 -0.1767 -0.8950
  632TIP3    H123387   3.372   5.437  14.233  1.4882 -0.4597 -1.6872
  632TIP3    H223388   3.431   5.575  14.208  1.7109 -0.3079 -0.3629
  633TIP3   OH223389   6.428   6.203   1.317  0.4418  0.1375  0.4468
  633TIP3    H123390   6.462   6.254   1.244 -2.2831  2.6067  0.8016
  633TIP3    H223391   6.344   6.169   1.285  0.0294 -0.2112  1.8602
  634TIP3   OH223392   3.843   0.646   0.984 -0.3774 -0.5360 -0.0813
  634TIP3    H123393   3.872   0.719   1.039 -1.5600 -3.0340  4.0893
  634TIP3    H223394   3.777   0.684   0.926 -1.0808  1.6977  2.1095
  635TIP3   OH223395   6.005   0.897   2.449 -0.1057 -0.7726  0.3774
  635TIP3    H123396   6.069   0.927   2.514  0.4965 -2.0322  0.3800
  635TIP3    H223397   6.055   0.839   2.392 -0.7609 -0.1206 -0.8850
  636TIP3   OH223398   3.356   5.993  11.094 -0.1531  0.0983 -0.2608
  636TIP3    H123399   3.362   6.089  11.092  2.0731  0.0727  2.4104
  636TIP3    H223400   3.294   5.974  11.165 -2.2389 -0.4469 -2.1746
  637TIP3   OH223401   4.452   5.770   4.069  0.2109 -0.2482 -0.2604
  637TIP3    H123402   4.400   5.795   3.993 -0.0002 -1.4971 -0.5474
  637TIP3    H223403   4.399   5.703   4.112  0.5361  0.1291  0.7378
  638TIP3   OH223404   3.803   2.480  13.936  0.0302  0.0524  0.2478
  638TIP3    H123405   3.794   2.484  14.031 -0.9948  1.4879  0.0998
  638TIP3    H223406   3.812   2.571  13.909  0.9549 -0.3932 -0.9868
  639TIP3   OH223407   1.668   4.530   2.457  0.1198  0.2983  0.3772
  639TIP3    H123408   1.620   4.505   2.536  1.6830 -0.4700  1.1102
  639TIP3    H223409   1.760   4.514   2.479  0.5862  0.1945 -1.5563
  640TIP3   OH223410   4.852   0.428   3.890  0.4501  0.1326 -0.0216
  640TIP3    H123411   4.819   0.346   3.926  0.6886 -0.0574 -0.2357
  640TIP3    H223412   4.774   0.482   3.877  0.1907 -0.4391 -0.8501
  641TIP3   OH223413   6.494   5.379   2.841  0.0298 -0.4792  0.3324
  641TIP3    H123414   6.410   5.387   2.886 -0.9397  0.3338 -1.5982
  641TIP3    H223415   6.502   5.285   2.823  0.5861 -0.8738  2.4294
  642TIP3   OH223416   3.520   1.470  13.416  0.1662 -0.4611  0.0169
  642TIP3    H123417   3.435   1.504  13.444  0.2335  0.3516 -0.7421
  642TIP3    H223418   3.505   1.440  13.326  1.0038  0.9385 -0.6018
  643TIP3   OH223419   3.280   2.207  13.203  0.1998 -0.0665 -0.2559
  643TIP3    H123420   3.214   2.244  13.262  1.0956  0.8128  0.2088
  643TIP3    H223421   3.270   2.112  13.212 -1.7126  0.0494 -1.0017
  644TIP3   OH223422   4.859   6.794  14.914  0.2392  0.1162 -0.4485
  644TIP3    H123423   4.894   6.762  14.997 -3.2556 -0.7512  0.8016
  644TIP3    H223424   4.846   6.887  14.928  1.7119  0.3754 -0.7972
  645TIP3   OH223425   6.330   3.274  15.213  0.1642  0.3858 -0.3429
  645TIP3    H123426   6.277   3.348  15.240 -0.5747  0.2685 -1.4481
  645TIP3    H223427   6.290   3.244  15.132  0.4525 -1.2239  0.0892
  646TIP3   OH223428   4.704   1.446  16.786 -0.0442 -0.1900 -0.1348
  646TIP3    H123429   4.725   1.525  16.735 -1.4878  1.0508  1.1508
  646TIP3    H223430   4.612   1.456  16.809  0.5536 -0.7447  2.6611
  647TIP3   OH223431   5.117   3.544   2.329 -0.7119  0.1945 -0.0324
  647TIP3    H123432   5.103   3.623   2.277 -0.6352  0.3458  0.1763
  647TIP3    H223433   5.051   3.548   2.397 -0.6716  0.1080  0.0123
  648TIP3   OH223434   6.186   1.213   0.637  0.2351 -0.0339  0.2027
  648TIP3    H123435   6.260   1.269   0.614  0.0725 -0.1501 -0.6120
  648TIP3    H223436   6.197   1.135   0.583  1.1086 -1.3241  2.1662
  649TIP3   OH223437   1.408   6.310  16.747 -0.2059 -0.2327  0.6371
  649TIP3    H123438   1.334   6.371  16.743  0.3071  0.2641 -1.8958
  649TIP3    H223439   1.373   6.234  16.793 -2.1283  0.2364  0.0195
  650TIP3   OH223440   3.255   3.925  15.101  0.3829 -0.2161 -0.7508
  650TIP3    H123441   3.202   3.867  15.157  2.2980  1.1460  2.6524
  650TIP3    H223442   3.218   4.012  15.116  1.7905  0.3551 -0.4601
  651TIP3   OH223443   4.416   5.672   0.119  0.1746 -0.2476  0.1645
  651TIP3    H123444   4.402   5.594   0.173  0.7261  0.1337  0.8610
  651TIP3    H223445   4.366   5.655   0.039 -0.4754 -0.9101  0.7009
  652TIP3   OH223446   6.275   0.661  17.054  0.1749 -0.0522  0.1382
  652TIP3    H123447   6.255   0.568  17.065  1.2166 -0.1061  1.7133
  652TIP3    H223448   6.365   0.662  17.021 -0.0019  0.3862 -0.3318
  653TIP3   OH223449   0.635   1.986  11.607  0.1259  0.1201 -0.6464
  653TIP3    H123450   0.688   1.974  11.527 -0.2108 -1.6801 -0.6153
  653TIP3    H223451   0.634   2.081  11.620  0.9830  0.3802 -2.2514
  654TIP3   OH223452   3.511   6.135   3.188  0.2367  0.5032 -0.2584
  654TIP3    H123453   3.481   6.071   3.253  0.6013  1.0607  0.4622
  654TIP3    H223454   3.605   6.143   3.204  0.9638 -1.7252 -2.9254
  655TIP3   OH223455   5.374   3.200  13.149 -0.6134 -0.3492  0.2543
  655TIP3    H123456   5.379   3.164  13.060 -2.8500 -0.7425  0.2709
  655TIP3    H223457   5.353   3.293  13.136  2.6864  0.4780  0.2990
  656TIP3   OH223458   2.020   5.395   5.679  0.1060  0.4249 -0.1667
  656TIP3    H123459   2.031   5.338   5.755  1.4096  0.4972 -0.2826
  656TIP3    H223460   2.108   5.402   5.641 -0.2038  1.7620 -0.6912
  657TIP3   OH223461   2.988   2.470   2.591 -0.5662 -0.2517 -0.5903
  657TIP3    H123462   3.083   2.469   2.598 -0.6593  1.0003  1.0223
  657TIP3    H223463   2.958   2.417   2.665 -1.1156 -1.6344 -1.7666
  658TIP3   OH223464   1.051   1.229  16.869 -0.0661 -0.9355 -0.2615
  658TIP3    H123465   1.097   1.234  16.953 -2.0040  1.7373  0.7440
  658TIP3    H223466   1.076   1.310  16.824 -0.9217 -1.1927 -1.2098
  659TIP3   OH223467   0.539   3.012  12.301 -0.0304  0.0798 -0.2132
  659TIP3    H123468   0.583   3.081  12.250 -0.6050  0.7578  0.2017
  659TIP3    H223469   0.493   2.960  12.235  0.1338  0.2913 -0.4976
  660TIP3   OH223470   3.632   3.675  14.635 -0.3276 -0.4215 -0.0646
  660TIP3    H123471   3.586   3.596  14.608 -1.1895 -0.7928  2.3727
  660TIP3    H223472   3.666   3.654  14.722 -1.5007  2.2345  1.0852
  661TIP3   OH223473   4.890   4.182  16.547  0.3519  0.0485  0.2414
  661TIP3    H123474   4.946   4.139  16.611  0.7128  0.9816  0.5671
  661TIP3    H223475   4.943   4.253  16.512  0.5041 -1.0429 -1.8274
  662TIP3   OH223476   3.401   5.190  13.664  0.1964 -0.5335 -0.1781
  662TIP3    H123477   3.405   5.141  13.582 -1.1837  0.3755 -0.7996
  662TIP3    H223478   3.310   5.182  13.692  0.2158  0.7463  0.2880
  663TIP3   OH223479   4.234   5.281  12.869 -0.6746  0.6911  0.3873
  663TIP3    H123480   4.185   5.292  12.950 -1.3969 -1.4584  0.2657
  663TIP3    H223481   4.260   5.189  12.868  0.6951  1.0700 -1.0514
  664TIP3   OH223482   4.710   3.399   3.844 -0.6091  0.5065 -0.5525
  664TIP3    H123483   4.684   3.487   3.817 -0.7807  0.6523  0.0908
  664TIP3    H223484   4.796   3.386   3.803 -1.2242  0.4149 -1.8390
  665TIP3   OH223485   3.933   4.772  12.504 -0.3447 -0.0439  0.7617
  665TIP3    H123486   3.844   4.803  12.518  0.3458  1.6997  1.4707
  665TIP3    H223487   3.948   4.707  12.573 -0.4832  0.9516  1.7440
  666TIP3   OH223488   2.262   5.806   5.214 -0.2811  0.3146  0.0700
  666TIP3    H123489   2.346   5.764   5.196 -0.7033 -0.3150 -0.4475
  666TIP3    H223490   2.260   5.814   5.309 -0.1909 -0.8452  0.1814
  667TIP3   OH223491   4.944   5.823  11.919 -0.1752 -0.0933  0.2686
  667TIP3    H123492   5.037   5.848  11.914 -0.5112  1.1128 -0.2061
  667TIP3    H223493   4.921   5.834  12.011 -0.0367  0.3260  0.2546
  668TIP3   OH223494   3.217   5.806   5.276  1.2155  0.0561 -0.5484
  668TIP3    H123495   3.298   5.857   5.285  1.4519 -0.1455 -1.4555
  668TIP3    H223496   3.247   5.718   5.255  0.7544  0.0449 -1.1711
  669TIP3   OH223497   4.101   1.026  13.361  0.6149 -0.4158 -0.4252
  669TIP3    H123498   4.035   1.002  13.296  0.9254  0.1609 -0.9632
  669TIP3    H223499   4.138   0.942  13.389  1.0214 -0.6316 -1.5743
  670TIP3   OH223500   0.300   2.308   2.899 -0.3536 -0.2127  0.7287
  670TIP3    H123501   0.289   2.392   2.944 -0.5480 -0.0045  0.2988
  670TIP3    H223502   0.340   2.330   2.816  1.0899 -0.7269  1.2794
  671TIP3   OH223503   6.797   5.423  16.895  0.2704  0.3955 -0.0755
  671TIP3    H123504   6.796   5.409  16.801 -0.3627 -0.6421  0.0784
  671TIP3    H223505   6.710   5.457  16.916  0.2568  0.2116  0.1869
  672TIP3   OH223506   4.236   3.893   3.063 -0.1633  0.1470 -0.0392
  672TIP3    H123507   4.212   3.974   3.108 -0.9814 -0.2037  0.1594
  672TIP3    H223508   4.201   3.904   2.975 -1.3552 -0.4931  0.3397
  673TIP3   OH223509   1.440   6.738  14.125  0.2974 -1.1952  0.4517
  673TIP3    H123510   1.474   6.815  14.079 -0.3705 -1.4111 -0.4134
  673TIP3    H223511   1.436   6.670  14.058  0.3717 -1.8338  1.0915
  674TIP3   OH223512   1.196   3.551  13.439  0.1862 -0.1288 -0.2474
  674TIP3    H123513   1.185   3.470  13.389 -0.4509  0.1170 -0.5008
  674TIP3    H223514   1.111   3.594  13.434  0.6106  0.7002 -0.3549
  675TIP3   OH223515   0.436   0.360  14.407 -0.2102  0.2263 -0.5416
  675TIP3    H123516   0.395   0.287  14.362 -0.7564  1.5800 -2.2794
  675TIP3    H223517   0.371   0.386  14.473 -0.3795 -0.2916 -0.4991
  676TIP3   OH223518   3.245   6.421  12.701  0.3350 -0.2165 -0.0939
  676TIP3    H123519   3.253   6.506  12.658 -0.4550 -1.1765 -2.1641
  676TIP3    H223520   3.159   6.389  12.676 -0.6529 -0.3241  3.1505
  677TIP3   OH223521   5.226   0.260   1.637 -0.4614 -0.6225 -0.7914
  677TIP3    H123522   5.191   0.200   1.702  0.1385 -1.2144 -1.0077
  677TIP3    H223523   5.312   0.223   1.614  0.4246  0.9364 -0.0691
  678TIP3   OH223524   4.130   3.941   5.266 -0.5397  0.3411 -0.1064
  678TIP3    H123525   4.078   3.918   5.342  1.2037 -2.1020  0.3848
  678TIP3    H223526   4.191   4.008   5.298 -0.5643  0.1359  0.3646
  679TIP3   OH223527   6.803   4.412   1.675 -0.0665  0.1003  0.2162
  679TIP3    H123528   6.756   4.331   1.697  0.2311  0.3289  1.8286
  679TIP3    H223529   6.775   4.475   1.742  1.9585  0.4397  0.7934
  680TIP3   OH223530   2.300   5.310  14.723  0.3045 -0.2358  0.2884
  680TIP3    H123531   2.324   5.263  14.803 -0.6804  0.2080  0.8572
  680TIP3    H223532   2.282   5.400  14.752  1.9610  0.4583 -0.7491
  681TIP3   OH223533   6.467   1.746  15.923  0.1892  0.5441 -0.1826
  681TIP3    H123534   6.451   1.652  15.936 -1.0368  0.7159 -0.4396
  681TIP3    H223535   6.443   1.785  16.007 -1.2014  0.8573 -0.7204
  682TIP3   OH223536   4.672   3.888  16.643  0.8495 -0.5188 -0.2393
  682TIP3    H123537   4.585   3.901  16.605  1.5055 -1.4328 -2.1201
  682TIP3    H223538   4.701   3.976  16.667 -0.2460 -0.1159 -0.3398
  683TIP3   OH223539   0.165   4.046   4.267  0.4221 -0.3722 -0.2437
  683TIP3    H123540   0.250   4.002   4.267  0.2651 -0.7437  2.2964
  683TIP3    H223541   0.101   3.975   4.254  0.4069 -0.2524 -0.8696
  684TIP3   OH223542   3.532   5.692  13.688  0.0325 -0.1578  0.1497
  684TIP3    H123543   3.446   5.666  13.720  0.2366 -1.0867 -0.0397
  684TIP3    H223544   3.529   5.677  13.594  0.2544  0.2287  0.0769
  685TIP3   OH223545   1.147   2.988   1.753 -0.2117  0.4930 -0.0637
  685TIP3    H123546   1.126   2.908   1.801 -0.6697  1.4056  1.2874
  685TIP3    H223547   1.103   2.978   1.669  2.3318 -2.0795 -1.2122
  686TIP3   OH223548   1.102   1.676  12.325  0.1122  0.6606  0.4746
  686TIP3    H123549   1.087   1.582  12.317  1.1637  0.6082 -0.9175
  686TIP3    H223550   1.146   1.686  12.409  0.8451 -0.1895  0.1909
  687TIP3   OH223551   5.166   4.029  15.879  0.0985 -0.1929 -0.1842
  687TIP3    H123552   5.206   4.032  15.966 -1.3647 -0.4924  0.5071
  687TIP3    H223553   5.082   3.986  15.892 -0.0679 -0.3899 -1.7854
  688TIP3   OH223554   5.246   4.618   0.680 -0.7040  0.7185  0.0576
  688TIP3    H123555   5.304   4.600   0.754  0.2486  1.8337 -0.4141
  688TIP3    H223556   5.288   4.689   0.632 -1.8267  0.6976 -0.9973
  689TIP3   OH223557   6.639   3.047   2.940  0.0036  0.2692  0.4875
  689TIP3    H123558   6.674   3.099   2.867  0.9696 -0.6470  0.2755
  689TIP3    H223559   6.703   3.058   3.010 -0.7473  0.8676  1.0754
  690TIP3   OH223560   1.716   5.753  13.592  0.2623 -0.5381  0.2300
  690TIP3    H123561   1.658   5.733  13.665 -0.4649 -2.9560 -0.9735
  690TIP3    H223562   1.658   5.758  13.516  1.4132 -1.4499 -0.7274
  691TIP3   OH223563   5.286   2.851   3.422  0.1345  0.5637 -0.4295
  691TIP3    H123564   5.301   2.887   3.509  2.0469 -0.1597 -0.4245
  691TIP3    H223565   5.197   2.816   3.424 -0.7202  2.7098  0.4504
  692TIP3   OH223566   4.873   4.570  16.340 -0.4081 -0.3662 -0.3664
  692TIP3    H123567   4.778   4.570  16.339 -0.4542  0.8453  1.2776
  692TIP3    H223568   4.897   4.652  16.297 -0.1291 -0.3769 -0.2340
  693TIP3   OH223569   1.710   2.055  11.542  0.6053 -0.6205  0.0292
  693TIP3    H123570   1.649   2.128  11.536  0.0669 -0.9203  1.4548
  693TIP3    H223571   1.688   1.999  11.468  1.0098  0.6402 -1.0557
  694TIP3   OH223572   0.179   5.067  17.119 -0.3035 -0.0002 -0.1203
  694TIP3    H123573   0.194   5.055  17.025  1.8430  0.1612  0.1771
  694TIP3    H223574   0.243   5.133  17.145 -0.4494 -0.5141  1.5853
  695TIP3   OH223575   4.471   4.754   2.670 -0.1292 -0.1383 -0.1693
  695TIP3    H123576   4.473   4.714   2.583  0.4936 -1.0078  0.2427
  695TIP3    H223577   4.540   4.820   2.668 -0.6575  0.4092 -0.5975
  696TIP3   OH223578   2.985   0.822   2.225 -0.7795 -0.1331  0.2003
  696TIP3    H123579   2.986   0.742   2.173  1.0049 -2.0237  2.9714
  696TIP3    H223580   2.904   0.816   2.277  0.6082 -1.4471  2.2615
  697TIP3   OH223581   5.474   3.825  15.876 -0.6424 -0.4006 -0.0552
  697TIP3    H123582   5.566   3.847  15.865 -0.0541 -2.5483  0.3346
  697TIP3    H223583   5.455   3.848  15.967 -0.4815 -0.0059 -0.1184
  698TIP3   OH223584   1.172   2.542   3.066 -0.0881  0.5822  0.4949
  698TIP3    H123585   1.127   2.459   3.080  1.6579 -0.2738  1.1929
  698TIP3    H223586   1.232   2.549   3.140  0.4086  2.0471 -0.0284
  699TIP3   OH223587   4.029   3.532   4.116 -0.0497 -0.4378  0.5159
  699TIP3    H123588   3.999   3.460   4.061 -0.7363  0.8420 -0.8242
  699TIP3    H223589   4.000   3.508   4.204 -1.0716 -1.3680 -0.0621
  700TIP3   OH223590   4.220   3.274   5.300 -0.3808  0.0841 -0.1242
  700TIP3    H123591   4.149   3.334   5.321 -1.3571 -0.9364 -0.5067
  700TIP3    H223592   4.177   3.194   5.271  0.8914  0.4253 -3.2252
  701TIP3   OH223593   0.565   3.708   2.209  0.0079  0.4587 -0.5018
  701TIP3    H123594   0.632   3.684   2.144  1.8576  2.1949  0.7153
  701TIP3    H223595   0.592   3.794   2.241 -2.2220  0.6980  0.8332
  702TIP3   OH223596   4.061   0.773  17.289  0.1138 -0.3420  0.2391
  702TIP3    H123597   4.018   0.797  17.207  0.3369 -0.9154 -0.0520
  702TIP3    H223598   4.000   0.801  17.357 -1.2831 -2.1923 -0.1983
  703TIP3   OH223599   6.710   4.082   0.197  0.4719 -0.5107  0.4904
  703TIP3    H123600   6.763   4.158   0.174 -0.6088  0.5583  1.3989
  703TIP3    H223601   6.743   4.055   0.283  1.0483 -1.2588  0.0391
  704TIP3   OH223602   0.797   5.003  11.410  0.1654 -0.3654 -0.0576
  704TIP3    H123603   0.778   5.051  11.330 -2.4799 -0.9110  0.1931
  704TIP3    H223604   0.782   4.911  11.388  0.0869 -0.5806  0.8518
  705TIP3   OH223605   3.068   5.823  14.668 -0.2335 -1.0284 -0.0149
  705TIP3    H123606   2.984   5.869  14.671 -0.8857 -2.2914  2.1895
  705TIP3    H223607   3.127   5.875  14.722  0.0099 -0.9184 -0.3820
  706TIP3   OH223608   0.308   2.178  12.110  0.2373  0.2025  0.5144
  706TIP3    H123609   0.273   2.097  12.074  0.3067  0.2404  0.3615
  706TIP3    H223610   0.279   2.246  12.050  0.9737  0.1760  0.1176
  707TIP3   OH223611   2.750   4.138  14.580 -0.2063  0.6791 -0.0611
  707TIP3    H123612   2.716   4.052  14.604  1.1808  0.0873 -0.2213
  707TIP3    H223613   2.832   4.147  14.629 -1.9000  3.2780  2.5419
  708TIP3   OH223614   0.673   1.864   4.887  0.6145 -0.3728 -0.2340
  708TIP3    H123615   0.764   1.837   4.897 -0.0617 -3.9608 -2.7640
  708TIP3    H223616   0.667   1.896   4.798 -0.3716  0.9218  0.2875
  709TIP3   OH223617   1.021   2.206   3.941  0.5955 -0.2956  0.3890
  709TIP3    H123618   1.024   2.197   3.846 -0.8773  0.3020  0.2792
  709TIP3    H223619   1.112   2.197   3.969  1.0973  0.0535 -1.1249
  710TIP3   OH223620   6.505   0.992  15.173  0.1254 -0.5795  0.1865
  710TIP3    H123621   6.521   0.949  15.258 -1.7802  0.2255  0.9959
  710TIP3    H223622   6.460   0.925  15.121  1.3915 -1.1104 -0.2516
  711TIP3   OH223623   2.589   1.998   0.119 -0.1341 -0.0922 -0.2074
  711TIP3    H123624   2.502   2.036   0.130 -0.2155 -0.0361 -1.0569
  711TIP3    H223625   2.626   1.997   0.208 -0.1554  1.9035 -0.1510
  712TIP3   OH223626   4.705   4.969  12.173  0.5352  0.4321 -0.4767
  712TIP3    H123627   4.663   5.051  12.197  1.4105  0.6384  0.3647
  712TIP3    H223628   4.677   4.907  12.240 -0.7914 -0.1763 -1.5713
  713TIP3   OH223629   5.619   3.965  15.142  0.1682  0.2918 -0.0271
  713TIP3    H123630   5.624   4.037  15.204 -0.9752  0.9809 -0.7049
  713TIP3    H223631   5.558   3.996  15.075 -1.6100 -1.9369  0.4966
  714TIP3   OH223632   1.955   2.808  15.728 -0.0087 -0.6630 -0.5611
  714TIP3    H123633   1.996   2.724  15.707  0.2001 -0.2254 -1.9731
  714TIP3    H223634   2.011   2.846  15.796 -0.2126 -1.7453  0.2205
  715TIP3   OH223635   2.474   4.782  16.364  0.3570 -0.0666 -0.0652
  715TIP3    H123636   2.386   4.750  16.344  0.8284 -0.1594 -2.0673
  715TIP3    H223637   2.473   4.797  16.458 -1.6651 -0.4930 -0.0014
  716TIP3   OH223638   1.592   4.633   0.886  0.2915 -0.4162  0.8112
  716TIP3    H123639   1.612   4.602   0.975 -0.1686 -1.6112  0.5097
  716TIP3    H223640   1.630   4.566   0.829  1.6869  0.9792  0.0572
  717TIP3   OH223641   4.227   1.648  12.227 -0.0526 -0.2761  0.2591
  717TIP3    H123642   4.202   1.595  12.152 -0.5228 -0.4046  0.5055
  717TIP3    H223643   4.152   1.643  12.287 -0.1102  0.6729  0.2781
  718TIP3   OH223644   4.767   0.505  14.320  0.3247 -0.6664  0.7007
  718TIP3    H123645   4.861   0.522  14.318  0.1211  0.4967  1.1098
  718TIP3    H223646   4.760   0.410  14.310  1.5142 -0.6866 -0.0410
  719TIP3   OH223647   1.648   1.065   4.963 -0.3615 -0.8418 -0.3301
  719TIP3    H123648   1.574   1.116   4.995  0.1372  0.1908 -0.8032
  719TIP3    H223649   1.668   1.004   5.034  0.5221  1.1974  1.2368
  720TIP3   OH223650   1.271   5.121   2.871  0.5276 -0.2391 -0.9175
  720TIP3    H123651   1.334   5.101   2.940 -0.7320 -1.4301 -0.0945
  720TIP3    H223652   1.322   5.116   2.790  1.4544 -1.4149 -0.2723
  721TIP3   OH223653   1.357   0.723  12.100  0.3346 -0.0106  0.1029
  721TIP3    H123654   1.443   0.741  12.062  0.1386  0.8338  0.0517
  721TIP3    H223655   1.295   0.750  12.033 -0.0187  1.8243  1.1400
  722TIP3   OH223656   2.366   5.156   1.771 -0.1166  0.1058  0.3425
  722TIP3    H123657   2.367   5.251   1.759 -0.0966  0.0393 -0.1922
  722TIP3    H223658   2.450   5.137   1.813 -0.6269  0.4595  1.5478
  723TIP3   OH223659   1.228   6.166  14.691  0.2001  0.2596 -0.3501
  723TIP3    H123660   1.255   6.169  14.783 -1.2992 -1.6373  0.1790
  723TIP3    H223661   1.144   6.211  14.689  0.4531  0.7235 -0.9022
  724TIP3   OH223662   6.515   2.421  16.863  0.3874 -0.1737  0.0188
  724TIP3    H123663   6.448   2.488  16.849 -1.8356 -1.8017  2.2852
  724TIP3    H223664   6.470   2.339  16.842  1.2159 -1.4272  2.9397
  725TIP3   OH223665   0.737   4.785   2.216  0.3328 -0.2518 -0.3817
  725TIP3    H123666   0.828   4.806   2.234  0.3609 -0.5201 -0.2026
  725TIP3    H223667   0.707   4.739   2.295 -0.3856  1.1600  0.1885
  726TIP3   OH223668   5.668   5.276   0.612 -0.9170  0.2196  0.0516
  726TIP3    H123669   5.736   5.286   0.545 -1.9589 -0.6085 -1.1327
  726TIP3    H223670   5.695   5.337   0.681  1.1816 -0.2974 -0.2715
  727TIP3   OH223671   5.534   5.279   0.367 -0.1953  0.3751 -0.6065
  727TIP3    H123672   5.629   5.281   0.356  0.1229 -1.3181  1.4827
  727TIP3    H223673   5.519   5.321   0.452 -1.2316 -0.1416 -0.5229
  728TIP3   OH223674   1.379   6.022   7.033 -0.4032 -0.0660  0.2124
  728TIP3    H123675   1.383   5.977   6.949 -1.9916 -0.2117  0.1938
  728TIP3    H223676   1.346   5.956   7.094 -1.9305  0.7967  0.3595
  729TIP3   OH223677   0.766   2.129  15.711  0.0996  0.3924  0.0419
  729TIP3    H123678   0.805   2.078  15.782  0.6136 -1.2612 -1.3760
  729TIP3    H223679   0.707   2.190  15.754  0.6409 -0.3666  1.8991
  730TIP3   OH223680   5.943   0.630  12.667  0.0595 -0.6812 -0.0233
  730TIP3    H123681   5.938   0.621  12.762 -0.9015 -2.4079 -0.2103
  730TIP3    H223682   5.918   0.720  12.650  2.9382  0.4601  1.5472
  731TIP3   OH223683   2.837   4.755  11.371  0.2219  0.2521 -0.0430
  731TIP3    H123684   2.925   4.787  11.351  0.7589 -0.6594  0.7785
  731TIP3    H223685   2.852   4.687  11.438 -1.1026  0.0948  0.0921
  732TIP3   OH223686   3.547   6.642  10.990  0.1582  0.0470  0.3659
  732TIP3    H123687   3.530   6.560  10.943  2.8961  0.8229 -2.1644
  732TIP3    H223688   3.620   6.621  11.048  1.2722  0.8343 -0.7400
  733TIP3   OH223689   5.163   0.658   0.761  0.3430 -0.3953  0.3627
  733TIP3    H123690   5.168   0.631   0.853 -2.0154  1.3695  1.0675
  733TIP3    H223691   5.070   0.650   0.739  0.6309  0.7871 -1.3559
  734TIP3   OH223692   1.403   1.336  16.842  0.8103 -0.2017  0.3624
  734TIP3    H123693   1.378   1.311  16.931  1.1816  0.6640  0.7201
  734TIP3    H223694   1.324   1.376  16.806  1.4280  1.9854  1.2859
  735TIP3   OH223695   4.425   2.827  16.056  0.1718 -0.1730  0.0257
  735TIP3    H123696   4.502   2.870  16.094  1.0840 -1.4134 -0.3866
  735TIP3    H223697   4.430   2.847  15.962  2.5243 -3.9451 -0.7713
  736TIP3   OH223698   2.824   1.765  13.174 -0.1013  0.1303 -0.0306
  736TIP3    H123699   2.741   1.747  13.129 -0.1347 -2.1470  0.8689
  736TIP3    H223700   2.799   1.783  13.265  0.3679 -0.2645  0.1780
  737TIP3   OH223701   4.253   1.056   0.744 -0.2613  0.1383  0.3742
  737TIP3    H123702   4.210   1.139   0.727  2.9463  1.8772  0.3278
  737TIP3    H223703   4.212   1.023   0.824 -2.1297  1.3337 -0.0679
  738TIP3   OH223704   4.793   3.390  12.083  0.0486  0.0511  0.3044
  738TIP3    H123705   4.715   3.338  12.102  0.8799 -1.1446  0.4947
  738TIP3    H223706   4.823   3.359  11.998  0.2828  0.5406  0.2078
  739TIP3   OH223707   5.966   5.253   1.595  1.1446  0.4540  0.4584
  739TIP3    H123708   6.043   5.236   1.542  0.9024  2.0548 -0.4230
  739TIP3    H223709   5.928   5.332   1.558 -0.4361  0.1718  1.4346
  740TIP3   OH223710   6.453   3.262  15.541  0.2086 -0.5406 -0.5575
  740TIP3    H123711   6.531   3.298  15.499  0.2449  1.0459  0.8151
  740TIP3    H223712   6.385   3.329  15.526 -1.1086 -2.1961 -2.3287
  741TIP3   OH223713   4.229   0.535   0.208  0.0020  0.5142 -0.0247
  741TIP3    H123714   4.164   0.543   0.138 -1.8907 -0.1273  1.5994
  741TIP3    H223715   4.246   0.625   0.235 -1.7406  0.6274  0.8284
  742TIP3   OH223716   1.238   2.967  16.814  0.3786  0.0779 -0.0856
  742TIP3    H123717   1.309   2.903  16.814  0.7972  0.5267 -2.1592
  742TIP3    H223718   1.281   3.051  16.795 -0.5472  0.5233 -0.2565
  743TIP3   OH223719   1.390   5.759  11.912 -0.7861  0.0015 -0.0340
  743TIP3    H123720   1.366   5.698  11.842 -0.4117 -0.0721 -0.0997
  743TIP3    H223721   1.322   5.747  11.979 -0.8531 -0.3043 -0.1586
  744TIP3   OH223722   3.927   2.300  10.125  0.0112 -0.0557  0.5309
  744TIP3    H123723   3.991   2.234  10.151 -0.6589 -0.9286  0.0294
  744TIP3    H223724   3.938   2.372  10.187  2.0429  0.1649 -0.0609
  745TIP3   OH223725   0.542   5.203   0.968 -0.2138 -0.0258  0.2010
  745TIP3    H123726   0.612   5.256   0.929  0.9873 -1.5188  0.2988
  745TIP3    H223727   0.558   5.206   1.062 -1.0028  0.6128  0.3244
  746TIP3   OH223728   3.192   4.598  17.181  0.4159 -0.5770  0.2147
  746TIP3    H123729   3.274   4.637  17.212  0.4104  0.1527 -0.6855
  746TIP3    H223730   3.180   4.633  17.093 -0.6791 -0.9628  0.1996
  747TIP3   OH223731   1.390   2.668   4.066 -0.0467  0.6026  0.3004
  747TIP3    H123732   1.315   2.713   4.104  0.6002  2.0244 -0.0607
  747TIP3    H223733   1.459   2.677   4.132 -0.0288 -0.2133  0.3947
  748TIP3   OH223734   3.824   2.358  12.682  0.0910 -0.2337  0.6058
  748TIP3    H123735   3.781   2.272  12.679  0.3239 -0.3106 -1.0502
  748TIP3    H223736   3.865   2.361  12.768  2.1732 -2.8516 -0.2191
  749TIP3   OH223737   0.790   2.920   2.525  0.0324 -0.3188 -0.0693
  749TIP3    H123738   0.758   2.965   2.604 -1.7782 -1.5932 -0.0606
  749TIP3    H223739   0.711   2.899   2.476  1.1149 -0.1965 -1.8809
  750TIP3   OH223740   0.116   2.041   5.675 -0.1118 -0.2709 -0.0324
  750TIP3    H123741   0.154   2.015   5.591 -3.1304 -2.2483 -0.8753
  750TIP3    H223742   0.022   2.035   5.661 -0.6752 -0.4201  3.4569
  751TIP3   OH223743   6.434   2.250  11.986  0.0821  0.0255  0.0906
  751TIP3    H123744   6.369   2.317  11.965 -1.2882 -1.4849 -0.5866
  751TIP3    H223745   6.516   2.284  11.951 -0.7489  0.9647 -0.9716
  752TIP3   OH223746   1.603   1.150  11.363 -0.3893  0.2048 -0.0529
  752TIP3    H123747   1.508   1.149  11.371 -0.3242  0.8862  0.9196
  752TIP3    H223748   1.622   1.094  11.288 -1.3242 -3.1425  2.0703
  753TIP3   OH223749   1.901   3.901   4.620  0.4267 -0.3381  0.2655
  753TIP3    H123750   1.952   3.912   4.540  0.2199 -0.0720  0.1680
  753TIP3    H223751   1.846   3.824   4.603  0.9238 -0.7372  0.4424
  754TIP3   OH223752   6.798   6.096   5.768  0.1231  0.3045 -0.2071
  754TIP3    H123753   6.817   6.119   5.859  0.0455  0.5675 -0.2579
  754TIP3    H223754   6.842   6.012   5.755 -1.0318 -0.4204  0.4907
  755TIP3   OH223755   1.010   0.053  13.691  0.4577 -0.2340  0.2484
  755TIP3    H123756   1.047   0.001  13.763  1.1936 -0.7449 -0.4925
  755TIP3    H223757   1.055   0.137  13.697 -1.4766  0.7217  2.0932
  756TIP3   OH223758   3.568   0.231  15.136 -0.5061 -0.3001 -0.2246
  756TIP3    H123759   3.564   0.154  15.193 -0.4256  0.8065  1.3123
  756TIP3    H223760   3.624   0.204  15.063 -0.7675 -1.8010  0.1029
  757TIP3   OH223761   6.294   1.910   4.811  0.3510  0.2519 -0.0724
  757TIP3    H123762   6.245   1.852   4.754 -0.1397  0.2657  0.3323
  757TIP3    H223763   6.245   1.909   4.894  0.3413  1.2359 -0.0648
  758TIP3   OH223764   1.155   4.060  17.121  0.2497  0.0848 -0.0598
  758TIP3    H123765   1.178   4.153  17.118 -0.9322  0.3269 -2.8811
  758TIP3    H223766   1.064   4.059  17.151  0.9503 -0.3414  2.1622
  759TIP3   OH223767   1.975   1.739   6.019  0.6274 -0.4179  0.4279
  759TIP3    H123768   1.893   1.729   6.066  0.1509 -1.6803 -0.6441
  759TIP3    H223769   1.988   1.655   5.975  1.6213  0.3576 -0.7935
  760TIP3   OH223770   3.684   2.564  13.658  0.1965  0.6477  0.3727
  760TIP3    H123771   3.680   2.475  13.622 -0.1599  0.3007  1.2531
  760TIP3    H223772   3.732   2.614  13.592  2.4348 -0.7091  0.9291
  761TIP3   OH223773   4.659   2.331  12.549  0.1196 -0.8916  0.4894
  761TIP3    H123774   4.665   2.247  12.594 -1.6236 -1.0514  0.4423
  761TIP3    H223775   4.684   2.312  12.459  1.2374 -1.0478  0.8263
  762TIP3   OH223776   1.337   6.000   0.678 -0.0893 -0.6435  0.5728
  762TIP3    H123777   1.256   5.955   0.700 -0.6193  0.2841  0.5209
  762TIP3    H223778   1.368   6.036   0.761  0.6922 -1.6519  0.7412
  763TIP3   OH223779   2.856   5.111   4.523 -0.1732 -0.2288 -0.6025
  763TIP3    H123780   2.932   5.154   4.483  0.6035 -0.3994  0.6515
  763TIP3    H223781   2.892   5.064   4.598 -1.4045 -0.9976 -0.4768
  764TIP3   OH223782   1.251   2.091  13.108  0.3528  0.3180 -0.4542
  764TIP3    H123783   1.176   2.138  13.073  0.9646  2.2281  0.6995
  764TIP3    H223784   1.319   2.100  13.041 -0.3224 -1.1195 -1.3483
  765TIP3   OH223785   1.803   0.598   2.105  0.4546  0.2559  0.2665
  765TIP3    H123786   1.755   0.528   2.149 -1.2225  1.3124  0.1456
  765TIP3    H223787   1.879   0.614   2.162 -0.8433  0.5139  1.9687
  766TIP3   OH223788   6.338   5.706   2.335  0.2907 -0.4849 -0.1834
  766TIP3    H123789   6.317   5.697   2.428  0.7968  1.5142  0.1542
  766TIP3    H223790   6.432   5.725   2.334 -0.0147  1.0748 -0.9740
  767TIP3   OH223791   6.078   6.659  10.765  0.5292  0.7965 -0.0387
  767TIP3    H123792   5.989   6.692  10.783  0.9016  2.1219 -0.5604
  767TIP3    H223793   6.102   6.700  10.682  0.8401 -1.1937 -0.9729
  768TIP3   OH223794   2.383   4.109  13.595 -0.6795 -0.6293  0.3845
  768TIP3    H123795   2.438   4.147  13.663 -0.4523 -0.3385  0.0433
  768TIP3    H223796   2.294   4.119  13.628 -0.5083 -1.3999  1.0851
  769TIP3   OH223797   0.286   3.101  11.062  0.6109 -0.5102 -0.2898
  769TIP3    H123798   0.328   3.187  11.065  1.3457 -0.8736  0.0538
  769TIP3    H223799   0.355   3.042  11.034 -0.8257 -0.4554 -4.2526
  770TIP3   OH223800   0.479   0.455   4.521  0.3422  0.6030  0.3380
  770TIP3    H123801   0.464   0.429   4.430 -0.6582  2.0615  0.0673
  770TIP3    H223802   0.506   0.547   4.515 -3.3821  1.8745  1.7379
  771TIP3   OH223803   6.213   2.386  15.251 -0.1875  0.0048  0.4125
  771TIP3    H123804   6.239   2.477  15.240  1.5296 -0.6967 -1.7739
  771TIP3    H223805   6.163   2.366  15.171 -1.9355 -0.5339  1.6049
  772TIP3   OH223806   1.838   6.535  11.883  0.6053  0.2068  0.0350
  772TIP3    H123807   1.797   6.546  11.797  0.6647  0.2281  0.0098
  772TIP3    H223808   1.779   6.581  11.944  0.8865  0.7256 -0.0820
  773TIP3   OH223809   0.252   0.894   1.542 -0.1655 -0.0885  0.1349
  773TIP3    H123810   0.207   0.905   1.458 -0.4621  0.0508  0.3150
  773TIP3    H223811   0.255   0.799   1.554  1.3113 -0.1988 -0.8151
  774TIP3   OH223812   4.626   6.169  10.389  0.0242  0.1174 -0.4269
  774TIP3    H123813   4.704   6.123  10.420 -0.5599 -0.8009 -0.3113
  774TIP3    H223814   4.617   6.244  10.448 -0.3523 -0.9151  0.8507
  775TIP3   OH223815   2.875   2.784   3.110 -0.3594  0.7328 -0.3043
  775TIP3    H123816   2.838   2.697   3.097 -0.0315  0.9927 -3.5178
  775TIP3    H223817   2.943   2.771   3.177 -1.4694 -1.1248  0.4969
  776TIP3   OH223818   1.400   3.687   3.220 -0.3774  0.0411  0.5205
  776TIP3    H123819   1.484   3.651   3.193 -0.4507 -0.4047  0.8808
  776TIP3    H223820   1.336   3.646   3.162 -0.3762  0.1679  0.4299
  777TIP3   OH223821   4.638   6.805  14.767  0.0463  0.3125 -0.0969
  777TIP3    H123822   4.722   6.787  14.808  0.2122 -0.5108 -0.7757
  777TIP3    H223823   4.579   6.737  14.800  0.3428 -0.7461 -1.6769
  778TIP3   OH223824   4.010   4.155   0.507  0.4443  0.2546  0.3157
  778TIP3    H123825   4.091   4.160   0.457  0.3710 -2.3716 -0.1525
  778TIP3    H223826   4.033   4.103   0.585 -0.4442  0.6835  0.8720
  779TIP3   OH223827   2.569   3.935  15.643 -0.6212 -0.6121  0.1577
  779TIP3    H123828   2.622   3.861  15.615 -0.0386 -1.3806  3.1416
  779TIP3    H223829   2.482   3.898  15.658 -0.3943 -0.6447  1.4061
  780TIP3   OH223830   5.820   2.633  13.193 -0.2458  0.4725 -0.0860
  780TIP3    H123831   5.798   2.541  13.208 -1.2213  0.3620 -2.0193
  780TIP3    H223832   5.904   2.630  13.147  0.2051  0.5853  0.7344
  781TIP3   OH223833   5.285   0.682   3.266  0.0166 -0.5821 -0.0954
  781TIP3    H123834   5.359   0.693   3.206  0.1073 -1.8238 -0.2139
  781TIP3    H223835   5.311   0.729   3.345  0.6066 -0.3740 -0.4104
  782TIP3   OH223836   1.673   4.330  13.734 -0.3903  0.3401 -0.0840
  782TIP3    H123837   1.727   4.408  13.749 -0.1206 -0.0644  1.0495
  782TIP3    H223838   1.620   4.322  13.813 -0.4594 -0.5922 -0.2281
  783TIP3   OH223839   5.536   5.202   2.225  0.3187  0.4098  0.1293
  783TIP3    H123840   5.468   5.214   2.158  1.2060 -1.1040 -1.0969
  783TIP3    H223841   5.602   5.267   2.204 -0.4174  1.4103  0.8897
  784TIP3   OH223842   2.967   4.604  11.562 -0.3910 -0.0623 -0.4409
  784TIP3    H123843   3.010   4.605  11.477 -0.5945  2.2943 -0.5465
  784TIP3    H223844   3.027   4.650  11.620 -0.9247 -0.3316  0.3392
  785TIP3   OH223845   2.683   1.052  13.322 -0.0145 -0.0570  0.6010
  785TIP3    H123846   2.768   1.077  13.286 -0.3885 -0.2747 -0.4587
  785TIP3    H223847   2.701   1.029  13.413  0.9757  0.3731  0.5166
  786TIP3   OH223848   6.545   6.446  16.353  0.0488 -0.5725  0.3858
  786TIP3    H123849   6.551   6.538  16.330 -0.5905 -0.6723 -0.1729
  786TIP3    H223850   6.591   6.439  16.437  0.3387  0.1980  0.2869
  787TIP3   OH223851   3.435   4.716  17.229  0.6888  0.0406  0.4636
  787TIP3    H123852   3.458   4.695  17.139 -1.6069 -0.0251 -0.1443
  787TIP3    H223853   3.416   4.810  17.228  0.4698  0.0030  0.8382
  788TIP3   OH223854   0.219   2.920  15.480  0.0894  0.0077 -0.5277
  788TIP3    H123855   0.288   2.902  15.416  0.3730  0.2978 -0.3078
  788TIP3    H223856   0.220   3.015  15.489  0.3360 -0.0593  0.2164
  789TIP3   OH223857   5.517   5.184   2.725  0.3101 -0.3192  0.3520
  789TIP3    H123858   5.449   5.247   2.703 -0.0910 -0.7503  0.3356
  789TIP3    H223859   5.508   5.115   2.659  0.9694 -0.2236  0.1591
  790TIP3   OH223860   3.208   3.683   3.786 -0.2745  0.1542  0.3524
  790TIP3    H123861   3.224   3.768   3.744 -1.6718  0.4416  0.3587
  790TIP3    H223862   3.221   3.700   3.880  1.7041 -0.2043  0.1485
  791TIP3   OH223863   5.323   0.233   1.151  0.2615 -0.2178  0.0128
  791TIP3    H123864   5.240   0.278   1.171 -0.0041 -0.4626 -0.5339
  791TIP3    H223865   5.371   0.235   1.233 -0.6376 -0.8149  0.5687
  792TIP3   OH223866   4.779   4.631  17.056 -0.5315 -0.1808 -0.0760
  792TIP3    H123867   4.788   4.707  16.999 -2.3570 -0.6157 -0.9978
  792TIP3    H223868   4.703   4.584  17.021 -0.4869 -1.5002  1.5287
  793TIP3   OH223869   5.663   0.544  16.546 -0.7385  0.3573  0.0708
  793TIP3    H123870   5.662   0.623  16.599 -0.4008  1.0368 -0.9354
  793TIP3    H223871   5.647   0.574  16.457 -2.6047 -0.9171 -0.0501
  794TIP3   OH223872   5.446   4.863  14.489 -0.1426 -0.2353  0.0027
  794TIP3    H123873   5.480   4.919  14.559 -0.6903 -0.7403  0.6908
  794TIP3    H223874   5.492   4.780  14.501  0.1945 -0.1389 -0.6105
  795TIP3   OH223875   0.889   4.095   5.282  0.4646  0.2892  0.8952
  795TIP3    H123876   0.927   4.010   5.258 -0.3858 -0.1967  1.2378
  795TIP3    H223877   0.827   4.074   5.352 -1.8162  0.7722 -0.9205
  796TIP3   OH223878   5.042   5.414  15.929  0.3831  0.0854 -0.0214
  796TIP3    H123879   5.130   5.381  15.908 -0.0799 -0.7727 -0.6367
  796TIP3    H223880   5.058   5.492  15.982  1.5179 -0.2540  0.1530
  797TIP3   OH223881   5.555   3.216  15.314  0.4136  0.1956 -0.2600
  797TIP3    H123882   5.631   3.269  15.289  0.7377  0.5309  1.3732
  797TIP3    H223883   5.536   3.163  15.237  0.6814  2.0006 -1.5711
  798TIP3   OH223884   2.561   6.783   0.046  0.1310 -0.5940  0.4214
  798TIP3    H123885   2.653   6.775   0.072 -0.1950 -1.5375  1.3747
  798TIP3    H223886   2.527   6.855   0.099  0.0688 -0.9332  0.8482
  799TIP3   OH223887   4.754   1.791   6.319 -0.3629  0.2229 -0.0737
  799TIP3    H123888   4.784   1.758   6.403  0.3788 -0.0393 -0.4460
  799TIP3    H223889   4.822   1.851   6.290 -0.8610  0.7181 -0.2456
  800TIP3   OH223890   5.513   0.259  14.820  0.3169 -0.5722  0.0193
  800TIP3    H123891   5.537   0.265  14.728  2.4719  1.1228  0.6485
  800TIP3    H223892   5.589   0.219  14.862  0.9297  2.0981  1.6060
  801TIP3   OH223893   3.382   2.752   3.000 -0.8530  0.6539 -0.8519
  801TIP3    H123894   3.354   2.788   3.084 -1.6228 -0.0005 -0.8163
  801TIP3    H223895   3.464   2.706   3.019 -1.3439 -0.0158 -0.3291
  802TIP3   OH223896   6.711   4.445  14.124 -0.3247 -0.5875 -0.1059
  802TIP3    H123897   6.741   4.354  14.128  3.2522  0.5876  1.0970
  802TIP3    H223898   6.710   4.465  14.030 -0.3999 -1.6142 -0.3353
  803TIP3   OH223899   5.716   4.518   0.876 -0.5274 -0.5480 -0.3706
  803TIP3    H123900   5.764   4.437   0.894 -1.7174 -1.3636 -0.8102
  803TIP3    H223901   5.728   4.532   0.782 -1.8084 -1.1980 -0.6414
  804TIP3   OH223902   1.191   2.261   6.663 -0.5219 -0.2684  0.3576
  804TIP3    H123903   1.248   2.193   6.626 -1.0438 -0.4340 -0.1413
  804TIP3    H223904   1.149   2.217   6.737  0.0870 -0.1071  0.8101
  805TIP3   OH223905   1.833   4.312  13.108 -0.0781 -0.0425  0.2981
  805TIP3    H123906   1.818   4.221  13.130 -2.6772  0.6829  1.6662
  805TIP3    H223907   1.756   4.359  13.141 -0.3221  2.2343 -3.1896
  806TIP3   OH223908   1.453   3.989  16.753 -0.4435  0.2043  0.3331
  806TIP3    H123909   1.482   3.945  16.673 -0.1965 -1.6220  1.4027
  806TIP3    H223910   1.372   3.946  16.777 -2.3769  3.0754 -0.7915
  807TIP3   OH223911   1.144   4.506  16.801  0.2215  0.1182  0.0660
  807TIP3    H123912   1.075   4.487  16.738 -0.4816 -0.4515  1.0008
  807TIP3    H223913   1.225   4.480  16.757 -0.2289  0.0951 -0.7465
  808TIP3   OH223914   6.115   4.959  12.860 -0.0573 -0.7408 -0.9035
  808TIP3    H123915   6.111   5.008  12.777  3.3681  1.9558  0.4123
  808TIP3    H223916   6.183   4.894  12.845  0.4416 -0.3635 -0.2992
  809TIP3   OH223917   0.653   0.449  15.934  0.0034 -0.2304 -1.1100
  809TIP3    H123918   0.690   0.405  16.011 -0.9091  1.3315  0.2409
  809TIP3    H223919   0.691   0.537  15.936 -1.5171  0.4372 -1.3727
  810TIP3   OH223920   0.607   0.498  13.383 -0.3189 -0.2669  0.3934
  810TIP3    H123921   0.525   0.457  13.355  0.3138 -0.3035 -1.4579
  810TIP3    H223922   0.648   0.432  13.440 -0.2604 -1.4179 -0.9406
  811TIP3   OH223923   1.420   1.648   5.033 -0.2119 -0.2802  0.0337
  811TIP3    H123924   1.336   1.609   5.057 -0.0582 -1.2117 -0.8899
  811TIP3    H223925   1.428   1.724   5.089 -1.1711 -0.8039  0.9010
  812TIP3   OH223926   5.686   6.362   0.190  0.2473 -0.3153 -0.0867
  812TIP3    H123927   5.607   6.327   0.149 -1.1288  1.2485  1.1585
  812TIP3    H223928   5.687   6.454   0.164  2.1172 -0.5061 -0.7546
  813TIP3   OH223929   6.487   2.073  15.452  0.6321  0.0347 -0.2883
  813TIP3    H123930   6.480   2.049  15.360  0.8150 -0.9951 -0.0390
  813TIP3    H223931   6.577   2.106  15.461  1.4315 -2.1498  0.0290
  814TIP3   OH223932   6.465   4.919   1.607 -0.5791  0.0671 -0.3936
  814TIP3    H123933   6.393   4.929   1.669  0.9581 -1.9914  1.7950
  814TIP3    H223934   6.531   4.981   1.636 -1.2556  1.7022 -2.1977
  815TIP3   OH223935   0.760   4.801   0.843 -0.0635  0.3737 -0.1264
  815TIP3    H123936   0.762   4.897   0.842  0.6784  0.3658  0.3102
  815TIP3    H223937   0.693   4.778   0.779 -0.1601  1.1832 -0.3250
  816TIP3   OH223938   3.429   1.434  12.594  0.4639 -0.0305 -0.3099
  816TIP3    H123939   3.369   1.508  12.606 -1.9556 -2.1477  1.1006
  816TIP3    H223940   3.455   1.409  12.683  2.3152 -0.0556 -0.8429
  817TIP3   OH223941   3.461   0.869   4.572 -0.0597  1.2693 -0.0866
  817TIP3    H123942   3.371   0.837   4.578  0.5361 -0.3308  0.6963
  817TIP3    H223943   3.470   0.930   4.645 -0.1137  0.3924  0.6572
  818TIP3   OH223944   0.544   0.554  13.004  0.3580  0.0081  0.0217
  818TIP3    H123945   0.488   0.587  13.074 -0.5896  0.4296 -0.9154
  818TIP3    H223946   0.483   0.527  12.935  1.3028  0.5226 -1.0399
  819TIP3   OH223947   4.769   6.651  11.483  0.2157 -0.2207  0.9494
  819TIP3    H123948   4.856   6.642  11.523 -0.1589 -1.0059  1.5833
  819TIP3    H223949   4.762   6.576  11.424 -0.0552 -0.1784  0.9280
  820TIP3   OH223950   0.982   3.351  12.463 -0.1966 -0.3242 -0.2716
  820TIP3    H123951   0.936   3.267  12.464  1.2692 -1.1609 -0.6540
  820TIP3    H223952   1.023   3.355  12.377  1.9782 -0.4966  0.7051
  821TIP3   OH223953   0.361   5.724   3.199 -0.4528 -0.3532 -0.7727
  821TIP3    H123954   0.343   5.782   3.273 -0.1241  0.7194 -1.5099
  821TIP3    H223955   0.448   5.689   3.218 -1.6197 -2.4471  0.8282
  822TIP3   OH223956   1.129   0.561   1.481  0.3005 -0.0800  0.3734
  822TIP3    H123957   1.171   0.631   1.430  0.5896 -0.3622  0.2204
  822TIP3    H223958   1.139   0.588   1.572  0.5631 -0.0021  0.3219
  823TIP3   OH223959   3.346   2.463  13.988 -0.3324 -0.7418  0.1873
  823TIP3    H123960   3.415   2.486  14.049 -0.1142  1.3514 -0.8066
  823TIP3    H223961   3.266   2.500  14.027 -0.6998 -2.0554  0.7044
  824TIP3   OH223962   3.000   1.682  15.435  0.0218 -0.2419 -0.1166
  824TIP3    H123963   3.045   1.720  15.360 -0.0516 -1.2901 -0.7068
  824TIP3    H223964   3.050   1.603  15.456 -1.2821 -1.1984 -0.5187
  825TIP3   OH223965   5.874   5.196   3.284 -0.2519  0.0280  0.1742
  825TIP3    H123966   5.793   5.173   3.329 -0.0036 -0.3432  0.4322
  825TIP3    H223967   5.913   5.265   3.338 -1.2219  1.4105 -0.8388
  826TIP3   OH223968   3.367   4.999  17.162 -0.6840  0.1309  0.0965
  826TIP3    H123969   3.390   4.973  17.073 -0.8140  2.5630 -0.6889
  826TIP3    H223970   3.290   5.055  17.152 -0.3215  0.9575  1.6847
  827TIP3   OH223971   6.519   5.971   4.286  0.3802  0.4928 -0.0103
  827TIP3    H123972   6.457   5.957   4.358  0.9688 -1.7207  0.1134
  827TIP3    H223973   6.603   5.986   4.330  0.6228 -0.2422 -0.2148
  828TIP3   OH223974   5.363   4.614   1.263  0.0065  0.2858 -0.1504
  828TIP3    H123975   5.414   4.694   1.271 -1.3553  1.1818 -0.1323
  828TIP3    H223976   5.387   4.578   1.178  2.4916 -0.6458  0.9067
  829TIP3   OH223977   0.525   0.058   6.064  0.1161  0.1273  0.2904
  829TIP3    H123978   0.445   0.112   6.066 -0.3034 -0.5003  0.5096
  829TIP3    H223979   0.560   0.065   6.153 -0.9268 -1.4251  0.8477
  830TIP3   OH223980   3.100   0.878   4.761  0.7863  0.8604  0.0812
  830TIP3    H123981   3.182   0.908   4.800  0.8779 -0.1850  0.7145
  830TIP3    H223982   3.032   0.913   4.819  0.6660  3.2727 -1.4563
  831TIP3   OH223983   0.316   0.979  15.699  0.2234  0.3106  0.6798
  831TIP3    H123984   0.323   0.968  15.605  0.2093  0.0391  0.7106
  831TIP3    H223985   0.405   0.967  15.732  0.1396 -0.1236  0.7535
  832TIP3   OH223986   6.631   2.727   4.544 -0.2889  0.2957 -0.0206
  832TIP3    H123987   6.663   2.772   4.622  1.0013  0.0097 -0.3718
  832TIP3    H223988   6.693   2.655   4.531 -0.7100  0.1238 -1.0927
  833TIP3   OH223989   5.594   5.345  12.736 -0.9205  0.0232 -0.2416
  833TIP3    H123990   5.642   5.346  12.654 -0.8753  1.5718 -0.2052
  833TIP3    H223991   5.656   5.311  12.801 -0.5998 -0.1450 -0.6401
  834TIP3   OH223992   2.739   1.146  15.096 -0.5027 -0.5487 -0.3381
  834TIP3    H123993   2.651   1.122  15.067 -0.1189 -1.9432 -0.4049
  834TIP3    H223994   2.730   1.160  15.190 -0.9339  0.0007 -0.4595
  835TIP3   OH223995   5.226   4.187   2.305 -0.1845  0.6240 -0.4193
  835TIP3    H123996   5.181   4.108   2.336 -2.1126  1.6664 -0.4934
  835TIP3    H223997   5.281   4.214   2.379  0.9134 -1.0705 -0.5855
  836TIP3   OH223998   1.550   0.289   1.608 -0.6104 -0.5387 -0.2756
  836TIP3    H123999   1.623   0.268   1.665 -0.4706 -1.1131 -0.6630
  836TIP3    H224000   1.474   0.298   1.666 -0.3259 -0.4145  0.0723
  837TIP3   OH224001   4.168   6.084  14.544  0.1618 -0.5377 -0.1321
  837TIP3    H124002   4.194   6.025  14.614  1.4761  0.0955 -0.0747
  837TIP3    H224003   4.178   6.032  14.464 -0.9418 -1.1253  0.0929
  838TIP3   OH224004   4.860   5.658   4.282  0.0911  0.0320  0.1757
  838TIP3    H124005   4.781   5.618   4.319 -0.2177 -1.1868 -1.7596
  838TIP3    H224006   4.925   5.652   4.353 -0.6057 -1.8914  0.6833
  839TIP3   OH224007   4.005   1.532   0.520 -0.7761  0.2167 -0.1122
  839TIP3    H124008   4.057   1.580   0.585  0.4441 -1.4771  0.1732
  839TIP3    H224009   3.988   1.596   0.451 -0.0359  1.3459  0.7328
  840TIP3   OH224010   3.696   4.279  13.860 -0.3297 -0.0050 -0.1262
  840TIP3    H124011   3.673   4.349  13.800 -0.6464 -1.6518 -1.9636
  840TIP3    H224012   3.612   4.250  13.897 -0.2019  0.5557  0.6140
  841TIP3   OH224013   4.071   3.469  14.885 -0.6447  0.0946  0.1301
  841TIP3    H124014   4.078   3.553  14.929 -0.8008  0.2625 -0.1614
  841TIP3    H224015   4.020   3.487  14.806  0.8215  0.0858 -0.8443
  842TIP3   OH224016   1.995   0.582   6.032  0.0280  0.6219  0.0629
  842TIP3    H124017   1.991   0.671   6.067  1.2912  0.7797 -0.2003
  842TIP3    H224018   2.054   0.587   5.957 -1.1128 -0.1246 -0.9060
  843TIP3   OH224019   3.282   3.905  13.417 -0.9768 -0.7474  0.2236
  843TIP3    H124020   3.300   3.811  13.406  0.6763 -0.3320 -0.8201
  843TIP3    H224021   3.244   3.933  13.334  1.0015  0.0443 -0.4407
  844TIP3   OH224022   1.835   1.856  10.541 -0.1590 -0.1192  0.1181
  844TIP3    H124023   1.759   1.910  10.559  0.6037  0.6894  0.9191
  844TIP3    H224024   1.881   1.902  10.471  0.3553  0.1341  0.6222
  845TIP3   OH224025   5.517   1.837   1.490 -0.9567  0.1634 -0.1920
  845TIP3    H124026   5.458   1.910   1.470 -0.4592  0.5776 -0.1619
  845TIP3    H224027   5.566   1.866   1.567 -1.4779 -0.6275  0.4338
  846TIP3   OH224028   2.591   6.584   3.510 -0.2314  0.2273 -0.1331
  846TIP3    H124029   2.565   6.497   3.540  1.1688  0.2587  1.2581
  846TIP3    H224030   2.509   6.630   3.494 -0.9916 -0.9635  0.2671
  847TIP3   OH224031   4.980   4.269  11.866  0.1534  0.0076 -0.1009
  847TIP3    H124032   4.954   4.293  11.777 -1.0425 -3.3207 -0.7107
  847TIP3    H224033   4.903   4.288  11.920 -0.3016 -1.1680 -0.3423
  848TIP3   OH224034   1.298   6.098  13.741 -0.6012 -0.9201  0.0880
  848TIP3    H124035   1.207   6.101  13.711 -0.9109 -0.0923  1.0887
  848TIP3    H224036   1.292   6.105  13.836  0.5538 -0.1059  0.1056
  849TIP3   OH224037   0.550   2.310   3.507  0.7178  0.7546  0.0310
  849TIP3    H124038   0.557   2.327   3.413 -0.0191  0.7780 -0.0180
  849TIP3    H224039   0.638   2.280   3.532  0.5696 -0.5546 -0.9287
  850TIP3   OH224040   5.513   1.560  13.471  0.0144  0.2001  0.0181
  850TIP3    H124041   5.438   1.503  13.486 -0.3199  0.3478 -1.0551
  850TIP3    H224042   5.487   1.644  13.508 -0.5633  0.3927 -0.7941
  851TIP3   OH224043   5.348   6.191  15.497  0.7728 -0.5848 -0.5020
  851TIP3    H124044   5.378   6.268  15.546  1.2415 -1.7581  1.1152
  851TIP3    H224045   5.415   6.177  15.430 -0.2440  1.4731 -1.9602
  852TIP3   OH224046   6.695   5.421   3.054  0.0248  0.5022  0.8643
  852TIP3    H124047   6.632   5.408   2.984 -0.1372 -0.1876  1.1384
  852TIP3    H224048   6.759   5.483   3.017 -0.0205  0.0942  0.0866
  853TIP3   OH224049   2.372   0.361  13.919 -0.8538  0.4717 -0.0971
  853TIP3    H124050   2.445   0.417  13.894 -1.5503  1.2717 -0.3602
  853TIP3    H224051   2.412   0.291  13.971  0.0065  1.2989  0.3689
  854TIP3   OH224052   4.057   4.188   0.054 -0.1788 -0.3243 -0.5708
  854TIP3    H124053   3.992   4.130   0.094  0.0361 -0.1754  0.0015
  854TIP3    H224054   4.009   4.268   0.033 -0.0944 -0.0648  0.2185
  855TIP3   OH224055   4.023   6.098   6.606 -0.2770  0.0693 -0.2656
  855TIP3    H124056   4.050   6.016   6.648  1.9922  0.8014 -0.2183
  855TIP3    H224057   4.045   6.166   6.669  2.9976  1.1773 -2.4385
  856TIP3   OH224058   2.914   5.010   2.951  0.3832  0.1464 -0.2669
  856TIP3    H124059   2.859   5.071   2.902  0.1069  0.2179  0.1330
  856TIP3    H224060   2.989   4.993   2.893  0.2830  0.5846 -0.5241
  857TIP3   OH224061   1.082   3.191   1.268 -0.9035  0.3719 -0.3131
  857TIP3    H124062   1.086   3.175   1.363 -0.3851 -0.4370 -0.4617
  857TIP3    H224063   1.106   3.283   1.258 -0.5366  0.3496  0.3163
  858TIP3   OH224064   0.911   6.336  12.268  0.2934  0.5265 -0.0479
  858TIP3    H124065   0.949   6.311  12.184  1.6892 -0.8924  0.9852
  858TIP3    H224066   0.823   6.366  12.247  1.3521  2.2000 -2.2776
  859TIP3   OH224067   6.161   5.070  15.517  0.2679  0.5846  0.2505
  859TIP3    H124068   6.084   5.038  15.564  1.2151  0.8221  2.0152
  859TIP3    H224069   6.146   5.043  15.427 -1.3441 -0.3845  0.7713
  860TIP3   OH224070   0.708   0.927  12.870 -0.0631  0.5144 -0.6087
  860TIP3    H124071   0.779   0.983  12.901 -0.8825  1.3188 -0.1543
  860TIP3    H224072   0.685   0.962  12.785 -0.2193  0.5334 -0.5586
  861TIP3   OH224073   4.309   0.836  14.461  0.3153  0.3583 -0.0622
  861TIP3    H124074   4.247   0.871  14.525  1.0071 -0.3770  1.0492
  861TIP3    H224075   4.254   0.792  14.396 -0.3654  0.2588  0.5646
  862TIP3   OH224076   3.858   4.641   1.681 -0.1844 -0.0798 -0.2448
  862TIP3    H124077   3.842   4.562   1.629 -0.9356  1.4697 -2.4390
  862TIP3    H224078   3.820   4.621   1.766 -2.6259 -1.1947 -1.5206
  863TIP3   OH224079   1.728   3.561   4.901 -0.0724 -0.2579  0.0186
  863TIP3    H124080   1.789   3.526   4.967 -0.3493  1.1721  1.0689
  863TIP3    H224081   1.642   3.530   4.930 -0.0751 -0.5298 -0.2823
  864TIP3   OH224082   5.835   1.261   2.300  0.9599  0.0261  0.5064
  864TIP3    H124083   5.923   1.294   2.286  0.1317  2.7677  1.4106
  864TIP3    H224084   5.800   1.315   2.370 -1.2951 -1.3171  0.4757
  865TIP3   OH224085   1.955   3.356  14.774  0.6651 -0.8610  0.1172
  865TIP3    H124086   2.029   3.414  14.786  1.3308 -1.7687  0.4369
  865TIP3    H224087   1.881   3.414  14.755  1.4940  0.0249 -0.3945
  866TIP3   OH224088   1.847   3.918   2.874  0.0248 -0.2147 -0.4396
  866TIP3    H124089   1.818   3.831   2.849  0.1198  0.2021 -2.0789
  866TIP3    H224090   1.795   3.940   2.952  0.4475 -1.9606  0.3426
  867TIP3   OH224091   0.515   1.641   4.542 -0.7726 -0.2810  0.2989
  867TIP3    H124092   0.532   1.716   4.484 -1.0410 -0.5220 -0.0993
  867TIP3    H224093   0.423   1.621   4.528 -0.5009 -1.1970 -0.2129
  868TIP3   OH224094   6.567   0.938   4.837  0.1385  0.1537 -0.0809
  868TIP3    H124095   6.633   0.976   4.780  0.6127 -0.2690  0.1909
  868TIP3    H224096   6.554   1.003   4.906  1.0335 -0.2302  0.4489
  869TIP3   OH224097   1.552   0.091   1.890  0.0246 -0.2603 -0.2685
  869TIP3    H124098   1.482   0.152   1.912 -1.2641 -1.1246 -1.8742
  869TIP3    H224099   1.509   0.005   1.885  1.4482 -1.0100  0.0817
  870TIP3   OH224100   2.057   6.505  12.301 -0.5816 -0.1379  0.3901
  870TIP3    H124101   2.021   6.591  12.283 -0.2682 -0.1888 -0.5046
  870TIP3    H224102   1.985   6.456  12.339 -0.8250  0.4445  0.6885
  871TIP3   OH224103   4.815   3.051  11.587 -1.3584 -0.0587  0.6108
  871TIP3    H124104   4.752   2.982  11.565  0.4255 -1.3982 -0.4229
  871TIP3    H224105   4.790   3.124  11.530 -1.8294 -0.6805  0.0006
  872TIP3   OH224106   6.698   2.622   4.956 -0.1180  0.2694 -0.5556
  872TIP3    H124107   6.614   2.630   5.002 -1.0125  0.2916 -2.1308
  872TIP3    H224108   6.676   2.573   4.876  1.0751  1.5429 -1.6917
  873TIP3   OH224109   5.174   3.999  13.074  0.1230 -0.1745 -0.3599
  873TIP3    H124110   5.084   3.983  13.046  0.6357  0.2612 -2.3206
  873TIP3    H224111   5.215   4.043  12.999  1.8148  0.1043  0.7113
  874TIP3   OH224112   2.898   3.155  14.186 -0.3831  0.2011  0.0966
  874TIP3    H124113   2.936   3.067  14.190  0.7576  0.6627 -0.4059
  874TIP3    H224114   2.902   3.178  14.093 -0.9242  0.6768  0.1926
  875TIP3   OH224115   5.676   6.092  11.793 -0.3746  0.1721 -0.1235
  875TIP3    H124116   5.672   6.186  11.810  0.3568 -0.4388  3.9583
  875TIP3    H224117   5.586   6.062  11.802 -0.5967  0.4509 -1.3508
  876TIP3   OH224118   2.096   6.725   4.460  0.3030  0.1665 -0.2667
  876TIP3    H124119   2.056   6.802   4.500  0.2469 -0.4725  0.9499
  876TIP3    H224120   2.030   6.694   4.398  0.3811  1.1730 -0.8529
  877TIP3   OH224121   2.356   6.752   3.946  0.0531 -0.1339 -0.1377
  877TIP3    H124122   2.422   6.722   4.008  0.2794  2.3311  0.8735
  877TIP3    H224123   2.273   6.735   3.990  0.1723  0.6029  0.3745
  878TIP3   OH224124   5.557   6.690   2.672  0.0690  0.2258 -0.2923
  878TIP3    H124125   5.504   6.713   2.596 -0.0343  0.0728 -0.2671
  878TIP3    H224126   5.549   6.766   2.730 -0.7286 -0.1074  0.0338
  879TIP3   OH224127   4.208   3.084  13.175  0.4442 -0.2756  0.0069
  879TIP3    H124128   4.259   3.007  13.149 -0.3130 -0.7157 -0.1962
  879TIP3    H224129   4.127   3.048  13.211 -0.4420  0.4594 -1.2220
  880TIP3   OH224130   4.510   5.444   3.714  0.2536  0.1733  0.2959
  880TIP3    H124131   4.446   5.374   3.722  1.4053 -1.0845 -1.1920
  880TIP3    H224132   4.468   5.509   3.658 -0.2527 -0.0025  0.4714
  881TIP3   OH224133   0.567   2.359   3.957  0.2033 -0.4519 -0.8048
  881TIP3    H124134   0.586   2.384   4.047 -0.7352 -2.7954  0.0879
  881TIP3    H224135   0.598   2.433   3.904  3.0023 -0.0846  1.2322
  882TIP3   OH224136   3.338   4.916   1.191 -0.0867 -0.2686 -0.1670
  882TIP3    H124137   3.334   4.993   1.248  1.4622  1.5530 -2.4478
  882TIP3    H224138   3.385   4.850   1.242 -1.4283  0.2481  1.8018
  883TIP3   OH224139   5.669   6.786   2.012  0.0750  0.0087 -0.0768
  883TIP3    H124140   5.666   6.879   1.990 -3.4506 -0.1116 -0.3398
  883TIP3    H224141   5.649   6.782   2.105 -0.0112 -0.5062 -0.1155
  884TIP3   OH224142   0.472   3.177  13.060  0.7540  0.0386  0.2407
  884TIP3    H124143   0.506   3.148  12.975  2.0238 -0.0433  0.7626
  884TIP3    H224144   0.380   3.195  13.044  1.0390  0.2667 -1.2196
  885TIP3   OH224145   4.818   1.296  11.981 -0.0793  0.0933  0.6693
  885TIP3    H124146   4.783   1.328  12.064  0.8226  0.3070  0.9712
  885TIP3    H224147   4.910   1.275  11.999  0.2669  0.6255 -0.3904
  886TIP3   OH224148   4.502   4.563  14.455  0.0625 -0.5518  0.2760
  886TIP3    H124149   4.461   4.605  14.379  0.8435 -0.9682 -0.3841
  886TIP3    H224150   4.497   4.629  14.524  0.1425  0.1544 -0.3846
  887TIP3   OH224151   5.119   2.351  16.543  0.2001  0.0815  0.3782
  887TIP3    H124152   5.186   2.409  16.578 -0.3217  1.5119 -0.9266
  887TIP3    H224153   5.161   2.266  16.538  0.9269  0.2773  2.4935
  888TIP3   OH224154   5.674   5.876   4.366 -0.4506 -1.2139  0.2349
  888TIP3    H124155   5.653   5.811   4.433 -1.2235 -0.5526  0.6392
  888TIP3    H224156   5.760   5.850   4.334 -0.6726 -2.3326  0.5207
  889TIP3   OH224157   3.059   3.520   4.508  0.7053 -0.4430  0.1914
  889TIP3    H124158   3.014   3.476   4.580  1.0837 -0.3873  0.4626
  889TIP3    H224159   3.102   3.449   4.460  0.8302 -0.4313  0.2861
  890TIP3   OH224160   1.636   0.261  16.491 -0.4227  0.1250  0.6680
  890TIP3    H124161   1.698   0.299  16.554  1.6498 -1.1481 -0.5542
  890TIP3    H224162   1.666   0.171  16.480 -1.9775 -0.2549 -0.6449
  891TIP3   OH224163   5.417   5.081   0.200  0.3952  0.4843  0.5611
  891TIP3    H124164   5.419   5.146   0.270 -0.1614  1.0045  0.0988
  891TIP3    H224165   5.353   5.016   0.230 -2.0391  2.1781 -0.7287
  892TIP3   OH224166   5.845   3.998  16.188 -0.5862 -0.2282 -0.7398
  892TIP3    H124167   5.857   4.077  16.135 -0.1405  0.8345  0.8956
  892TIP3    H224168   5.853   4.029  16.279 -0.5537 -2.1302 -0.0726
  893TIP3   OH224169   5.028   1.286  15.592 -0.0225  0.2590 -0.7027
  893TIP3    H124170   5.116   1.294  15.628 -0.1749  1.2989 -0.5343
  893TIP3    H224171   5.037   1.316  15.501 -0.2476  0.6060 -0.6117
  894TIP3   OH224172   6.190   4.779  11.986 -0.0236  0.7196 -0.1446
  894TIP3    H124173   6.275   4.808  12.019 -0.4552  0.2975  1.4073
  894TIP3    H224174   6.196   4.790  11.891  2.2706 -0.6150 -0.1977
  895TIP3   OH224175   6.017   2.740   3.759 -0.1808  0.4695 -0.3129
  895TIP3    H124176   6.067   2.676   3.707 -3.2687 -1.3952 -1.0711
  895TIP3    H224177   6.006   2.815   3.700  0.4639  0.3155 -0.6368
  896TIP3   OH224178   1.005   3.452  11.500  0.4568  0.4346  0.4933
  896TIP3    H124179   1.080   3.507  11.479 -0.7979  1.6998 -0.7788
  896TIP3    H224180   0.977   3.416  11.416  0.5190 -1.1844  1.1520
  897TIP3   OH224181   6.471   1.789   1.215  0.2312  0.3834 -0.4237
  897TIP3    H124182   6.539   1.856   1.226  1.1898 -0.6847  0.2444
  897TIP3    H224183   6.412   1.804   1.289  0.4872  0.4343 -0.2284
  898TIP3   OH224184   4.024   6.029   1.922 -0.4869  0.1282 -0.2548
  898TIP3    H124185   4.102   6.063   1.878 -0.6003  0.5976 -0.0987
  898TIP3    H224186   4.029   5.934   1.910 -0.3752  0.2277 -1.0506
  899TIP3   OH224187   4.077   2.864  11.548  0.2480 -0.1851 -0.4477
  899TIP3    H124188   4.079   2.863  11.644  0.7001 -0.7592 -0.4612
  899TIP3    H224189   4.031   2.784  11.524  0.8210 -0.4373 -0.7235
  900TIP3   OH224190   2.468   1.747  15.508  0.2163 -0.0244 -0.3959
  900TIP3    H124191   2.414   1.788  15.576  1.2772 -0.0284  0.4629
  900TIP3    H224192   2.427   1.662  15.493  0.1502 -0.1517  0.4657
  901TIP3   OH224193   2.473   2.131   1.386  0.4709 -0.2841  0.0874
  901TIP3    H124194   2.533   2.154   1.457 -0.3136 -0.7187  0.9049
  901TIP3    H224195   2.503   2.046   1.356 -0.1678 -0.8365  0.9883
  902TIP3   OH224196   5.762   2.635   0.501 -0.2111  0.4781 -0.2009
  902TIP3    H124197   5.795   2.707   0.447  0.8186  1.9952  2.3531
  902TIP3    H224198   5.750   2.673   0.588 -3.2104 -1.5327  0.3583
  903TIP3   OH224199   5.696   0.291   2.973  0.2607  0.2982  0.0800
  903TIP3    H124200   5.769   0.243   2.934  0.9181  2.8083 -1.9446
  903TIP3    H224201   5.622   0.230   2.969  1.3510 -0.9672 -1.3115
  904TIP3   OH224202   0.660   3.063   4.532  0.5681 -0.4416  0.4414
  904TIP3    H124203   0.638   3.139   4.478  0.0924 -0.6401  0.3452
  904TIP3    H224204   0.638   2.988   4.478  3.1788 -0.6848 -0.3327
  905TIP3   OH224205   1.579   0.375   2.076 -0.1108  0.5319  0.0490
  905TIP3    H124206   1.644   0.318   2.035 -1.4049 -1.8528  1.2060
  905TIP3    H224207   1.499   0.359   2.026 -0.9083  0.0198  1.4685
  906TIP3   OH224208   1.756   0.760   3.972  0.0221  0.3398  0.0804
  906TIP3    H124209   1.758   0.851   3.941 -2.0911  0.2294 -0.4547
  906TIP3    H224210   1.776   0.766   4.065  0.7814  1.2468 -0.1243
  907TIP3   OH224211   6.154   3.087  16.178  0.0954  0.1322 -0.0481
  907TIP3    H124212   6.173   3.162  16.235  0.6958 -1.4144  1.8657
  907TIP3    H224213   6.059   3.076  16.183 -0.3701  2.4958 -2.6429
  908TIP3   OH224214   4.662   5.900  11.567  0.0111 -0.3694  0.5209
  908TIP3    H124215   4.671   5.899  11.662  1.0644 -2.6664  0.4499
  908TIP3    H224216   4.579   5.855  11.550  0.8845 -1.9598  0.3167
  909TIP3   OH224217   3.446   6.406  11.360 -0.0863 -0.0959 -0.5897
  909TIP3    H124218   3.405   6.368  11.438 -0.1562 -1.5339 -1.3094
  909TIP3    H224219   3.539   6.390  11.372 -0.2024 -1.4655 -1.3815
  910TIP3   OH224220   2.865   1.526  11.010 -0.1125 -0.5234  0.2224
  910TIP3    H124221   2.922   1.602  10.998  1.6579 -2.1866 -2.3242
  910TIP3    H224222   2.779   1.556  10.980  1.0998 -0.2049 -3.0910
  911TIP3   OH224223   1.725   4.476  11.354  0.6701  0.5883  0.0999
  911TIP3    H124224   1.717   4.411  11.424 -1.4815 -0.3993 -0.9967
  911TIP3    H224225   1.702   4.559  11.396 -0.7433 -0.0160  0.5727
  912TIP3   OH224226   2.521   3.342  14.959 -0.2687  0.0600 -0.1095
  912TIP3    H124227   2.580   3.306  15.025  3.0519  1.3914 -2.2233
  912TIP3    H224228   2.480   3.417  15.001  0.6264 -0.0307  0.9399
  913TIP3   OH224229   3.947   2.275   4.941 -0.3292  0.2638 -0.3511
  913TIP3    H124230   3.998   2.238   5.013 -0.6849 -0.5886 -0.5322
  913TIP3    H224231   3.871   2.217   4.933 -1.4283  1.6324  0.0510
  914TIP3   OH224232   4.889   4.148  14.426 -0.2327 -0.1532 -0.6522
  914TIP3    H124233   4.828   4.217  14.450  0.0955  0.9835 -3.0120
  914TIP3    H224234   4.974   4.178  14.460 -0.8470 -1.5527  2.2845
  915TIP3   OH224235   1.858   4.478  15.533  0.1750  0.1038  0.1191
  915TIP3    H124236   1.835   4.569  15.552  0.9735  0.5069 -0.7833
  915TIP3    H224237   1.906   4.483  15.451 -0.5515 -1.2416 -0.4019
  916TIP3   OH224238   3.612   3.677  12.608  0.3208 -0.2234 -0.5139
  916TIP3    H124239   3.618   3.744  12.676 -0.3737 -0.9414  0.2718
  916TIP3    H224240   3.525   3.690  12.569  0.4370 -0.2636 -0.7871
  917TIP3   OH224241   0.350   4.620   3.620 -0.0629 -0.1643 -0.6113
  917TIP3    H124242   0.326   4.527   3.627 -1.4151  0.2164  0.1167
  917TIP3    H224243   0.352   4.637   3.526  0.1629 -0.9307 -0.7493
  918TIP3   OH224244   1.152   4.333   2.807 -0.1689  0.4302 -0.1446
  918TIP3    H124245   1.219   4.389   2.845 -1.4837  1.2078  1.0546
  918TIP3    H224246   1.188   4.245   2.813  1.1803  0.9506 -0.4657
  919TIP3   OH224247   4.573   4.832  17.240  0.2119  0.2050  0.1442
  919TIP3    H124248   4.522   4.751  17.251  0.3548  0.3718  2.3551
  919TIP3    H224249   4.663   4.806  17.259  0.5760  0.4451 -1.2585
  920TIP3   OH224250   3.234   0.859   2.636 -0.0064 -0.0088 -0.2232
  920TIP3    H124251   3.277   0.796   2.694 -0.4369  0.3970  0.5398
  920TIP3    H224252   3.305   0.912   2.600  0.3221 -0.6604 -0.5628
  921TIP3   OH224253   6.528   2.620  13.649 -0.0919 -0.0381 -0.0093
  921TIP3    H124254   6.609   2.614  13.600  0.7465  0.6688  1.2441
  921TIP3    H224255   6.459   2.619  13.583  0.9528 -0.3612 -1.0992
  922TIP3   OH224256   3.700   4.110   3.331  0.2958 -0.0403 -0.5161
  922TIP3    H124257   3.763   4.133   3.263 -1.6351  0.3273 -2.2561
  922TIP3    H224258   3.688   4.016   3.322  0.4546 -0.0753 -0.3396
  923TIP3   OH224259   4.227   3.277  10.713  0.4907 -0.2052  0.4846
  923TIP3    H124260   4.313   3.250  10.745  0.1696 -0.1661  1.4014
  923TIP3    H224261   4.245   3.322  10.630  1.4316  0.5313  1.0755
  924TIP3   OH224262   1.508   4.136  11.660  0.7211  0.1528 -0.0442
  924TIP3    H124263   1.512   4.053  11.613  1.0172 -0.1721  0.5541
  924TIP3    H224264   1.428   4.177  11.629 -0.2017 -1.0074  0.7409
  925TIP3   OH224265   5.549   3.401   5.611  0.0323  0.3403  0.3688
  925TIP3    H124266   5.560   3.443   5.696  0.3014  2.2140 -0.5623
  925TIP3    H224267   5.461   3.365   5.613  0.8199 -1.6361  2.2696
  926TIP3   OH224268   6.250   0.270  16.065 -0.2347 -0.2838 -0.0139
  926TIP3    H124269   6.169   0.320  16.074 -0.5573 -1.0226  1.4385
  926TIP3    H224270   6.304   0.297  16.139  0.3390 -0.7150 -0.2698
  927TIP3   OH224271   0.547   3.340   2.200  0.4109  0.3434 -0.4772
  927TIP3    H124272   0.567   3.247   2.210 -0.8927 -0.0250 -1.1152
  927TIP3    H224273   0.475   3.356   2.260  1.3699  1.2199  0.4654
  928TIP3   OH224274   3.017   1.042  12.733 -0.4086 -0.2744 -0.5194
  928TIP3    H124275   3.076   1.029  12.659 -1.7238  3.1636 -2.3261
  928TIP3    H224276   2.934   1.004  12.704  0.1353 -2.5647  0.8681
  929TIP3   OH224277   4.620   6.236   6.122 -0.2846 -0.1571 -0.9024
  929TIP3    H124278   4.663   6.316   6.152  0.6443 -0.3162 -1.7850
  929TIP3    H224279   4.661   6.217   6.038 -1.2425 -0.9831 -1.1893
  930TIP3   OH224280   2.504   2.127  15.179 -0.3678  0.3130 -0.6203
  930TIP3    H124281   2.501   2.156  15.087 -1.8532 -0.9529 -0.9860
  930TIP3    H224282   2.558   2.048  15.177  0.2477  0.7202 -0.2687
  931TIP3   OH224283   5.017   4.276  13.507 -0.0129  0.7551 -0.5127
  931TIP3    H124284   5.025   4.269  13.412 -0.4703  1.0366 -0.5732
  931TIP3    H224285   4.931   4.240  13.526  1.0830 -1.6015  0.0571
  932TIP3   OH224286   1.891   3.981  11.589 -0.0223 -0.2939 -0.0322
  932TIP3    H124287   1.909   3.990  11.683  0.2088  0.2798 -0.1274
  932TIP3    H224288   1.970   3.938  11.554  0.3698  0.5032 -0.1412
  933TIP3   OH224289   1.146   4.143  11.993 -0.7187 -0.0582  0.4829
  933TIP3    H124290   1.202   4.211  11.954  0.5125 -0.3976  1.6266
  933TIP3    H224291   1.067   4.190  12.021 -1.0760  0.4108 -1.2414
  934TIP3   OH224292   2.618   3.175   2.327 -0.3995 -0.0512 -0.1698
  934TIP3    H124293   2.692   3.133   2.283 -0.2924  0.1084 -0.1400
  934TIP3    H224294   2.541   3.130   2.293 -0.3024 -0.0691 -0.3623
  935TIP3   OH224295   5.056   0.130   2.793  0.1241 -0.3328 -0.3226
  935TIP3    H124296   5.132   0.115   2.849 -0.3286 -2.5256 -0.2485
  935TIP3    H224297   5.006   0.048   2.797 -1.8186  0.7641 -1.0326
  936TIP3   OH224298   3.786   3.315   3.467 -0.1694  0.4700  0.0423
  936TIP3    H124299   3.691   3.307   3.471  0.0180 -1.4159  1.3234
  936TIP3    H224300   3.801   3.396   3.419 -2.3947 -0.7404 -2.8244
  937TIP3   OH224301   2.677   5.181  14.868  0.2404  0.2155 -0.1778
  937TIP3    H124302   2.736   5.225  14.930  0.9692  0.0827 -0.7684
  937TIP3    H224303   2.599   5.162  14.919  0.9529 -0.1727  0.7952
  938TIP3   OH224304   6.558   0.891  13.331 -0.2521 -0.4466 -0.0232
  938TIP3    H124305   6.557   0.840  13.251  0.8458 -0.3472 -0.0986
  938TIP3    H224306   6.465   0.900  13.354 -0.5349 -1.0684 -0.8904
  939TIP3   OH224307   2.865   4.200   0.072  0.3418 -0.8904  0.1261
  939TIP3    H124308   2.850   4.267   0.005 -2.2633  0.7600  2.2554
  939TIP3    H224309   2.958   4.205   0.090  0.5120  0.8856 -1.0768
  940TIP3   OH224310   3.955   0.616  16.593 -0.0936  0.3457  0.4475
  940TIP3    H124311   3.902   0.635  16.515 -0.4965  0.2313  0.6951
  940TIP3    H224312   3.924   0.530  16.622  1.3410 -0.4531 -0.3544
  941TIP3   OH224313   6.232   5.637   3.645 -0.2318  0.3437 -0.5493
  941TIP3    H124314   6.216   5.666   3.735  1.4227  0.6375 -0.3271
  941TIP3    H224315   6.163   5.679   3.594 -0.7122  0.8189  0.4702
  942TIP3   OH224316   1.587   4.224   0.390  0.2523 -0.4541 -0.4856
  942TIP3    H124317   1.547   4.138   0.378 -0.4679 -0.0560 -1.0312
  942TIP3    H224318   1.638   4.237   0.310  1.1261 -0.7716  0.0131
  943TIP3   OH224319   5.878   6.661  15.640  0.6392 -0.0646  0.0481
  943TIP3    H124320   5.970   6.654  15.665  1.2068 -0.7804 -2.1500
  943TIP3    H224321   5.839   6.579  15.668  0.8639 -0.1352  0.1572
  944TIP3   OH224322   4.626   4.783   6.431 -0.0202 -0.7174 -0.5243
  944TIP3    H124323   4.581   4.865   6.452  0.9412 -0.7014  1.5707
  944TIP3    H224324   4.559   4.716   6.441 -1.3292 -0.0707 -4.1242
  945TIP3   OH224325   1.883   5.109  10.752  0.0619  0.8658 -0.2732
  945TIP3    H124326   1.815   5.041  10.745 -0.4047  1.4508 -1.6981
  945TIP3    H224327   1.964   5.063  10.731 -0.3501  0.8945 -1.9988
  946TIP3   OH224328   1.996   5.606   4.402  0.4652 -0.0763 -0.1078
  946TIP3    H124329   2.078   5.580   4.444  0.6534 -0.8097 -0.9120
  946TIP3    H224330   1.945   5.525   4.395 -0.8473  0.5776  1.4833
  947TIP3   OH224331   0.413   0.498  12.365 -0.3820 -0.5796 -0.3014
  947TIP3    H124332   0.411   0.590  12.336  1.3090 -0.1984  0.7646
  947TIP3    H224333   0.495   0.490  12.413 -1.1570 -2.3310  0.7387
  948TIP3   OH224334   3.561   1.176  16.581 -0.3572  0.1459  0.1774
  948TIP3    H124335   3.468   1.179  16.560 -0.2036 -2.1572 -0.9548
  948TIP3    H224336   3.574   1.092  16.624  0.6636  1.7974  3.2861
  949TIP3   OH224337   6.173   3.824   3.994  0.0312 -0.3531  0.0492
  949TIP3    H124338   6.100   3.770   4.022 -0.2144 -0.0337  0.0318
  949TIP3    H224339   6.152   3.847   3.903 -0.0440  0.0667  0.1720
  950TIP3   OH224340   2.806   3.742  14.991 -0.8994  0.2822 -0.5629
  950TIP3    H124341   2.720   3.774  14.964 -0.5977  0.9552 -0.7454
  950TIP3    H224342   2.789   3.683  15.064 -1.5210  0.3580 -0.6487
  951TIP3   OH224343   5.356   0.487  14.643 -0.2192 -0.2343 -0.4574
  951TIP3    H124344   5.441   0.443  14.655 -0.3453 -0.5382 -0.6806
  951TIP3    H224345   5.369   0.542  14.565  0.0325  0.3605 -0.0033
  952TIP3   OH224346   1.436   5.482  15.097 -0.2755  0.0691 -0.3218
  952TIP3    H124347   1.523   5.512  15.071 -0.0865  1.5375  1.8572
  952TIP3    H224348   1.436   5.388  15.077  2.2059 -0.1713  0.6176
  953TIP3   OH224349   3.937   1.777   0.363  0.7470  0.4978  0.9065
  953TIP3    H124350   4.030   1.795   0.378  1.1503 -0.8343  0.0430
  953TIP3    H224351   3.920   1.813   0.275 -0.1003  2.7020  1.9369
  954TIP3   OH224352   3.902   0.711   5.765 -0.2791  0.1222  0.4756
  954TIP3    H124353   3.970   0.699   5.699  0.1855  0.9505  0.7985
  954TIP3    H224354   3.897   0.626   5.809 -0.2452 -0.2824 -0.2931
  955TIP3   OH224355   4.693   5.863   2.325 -0.3037  0.4328 -0.2494
  955TIP3    H124356   4.616   5.811   2.348  0.6784 -1.1009 -0.4456
  955TIP3    H224357   4.686   5.875   2.230  1.2851 -2.2762 -0.7347
  956TIP3   OH224358   0.661   2.027  16.283  0.0085 -0.1688 -0.0573
  956TIP3    H124359   0.659   2.084  16.360 -1.0651 -1.6391  1.0170
  956TIP3    H224360   0.569   2.014  16.260  0.2511 -1.2786 -0.4449
  957TIP3   OH224361   0.982   4.460  16.568  0.3121  0.1705  0.4203
  957TIP3    H124362   0.906   4.485  16.515 -0.0472 -1.7421  0.0109
  957TIP3    H224363   1.023   4.389  16.519  2.4629  1.2815  0.5672
  958TIP3   OH224364   1.044   5.861  12.084 -0.0350  0.0510  0.2261
  958TIP3    H124365   1.103   5.814  12.142  1.0410 -0.1706 -1.0324
  958TIP3    H224366   1.086   5.946  12.071 -0.6102  0.3495  0.3101
  959TIP3   OH224367   4.012   1.075  12.125 -0.0356 -0.0745  0.0248
  959TIP3    H124368   4.010   1.083  12.030  0.7176  0.6721  0.0630
  959TIP3    H224369   4.003   0.981  12.142 -3.1048  0.0508 -0.6801
  960TIP3   OH224370   2.209   0.953  15.200 -0.4491  0.1220  0.5538
  960TIP3    H124371   2.255   0.898  15.264  0.6635  1.2475  0.7572
  960TIP3    H224372   2.195   1.036  15.246 -3.8870 -0.6238  0.9283
  961TIP3   OH224373   5.015   4.812   0.571  0.1248  0.5821 -0.0713
  961TIP3    H124374   4.924   4.783   0.572 -0.1918  1.5559  0.6368
  961TIP3    H224375   5.010   4.908   0.566  1.1073  0.6506  0.0679
  962TIP3   OH224376   2.364   5.845  13.262  0.1398  0.0296  0.1650
  962TIP3    H124377   2.306   5.803  13.326  1.5827 -2.0210  0.1705
  962TIP3    H224378   2.440   5.873  13.313 -0.3352  1.7118 -0.0320
  963TIP3   OH224379   5.445   2.480   0.570  0.2628  0.1402 -0.3556
  963TIP3    H124380   5.455   2.397   0.524  1.6681  0.7089 -1.1045
  963TIP3    H224381   5.449   2.457   0.663  0.8933 -0.5983 -0.5660
  964TIP3   OH224382   5.742   3.529  10.991 -0.1853  0.0821 -0.2255
  964TIP3    H124383   5.745   3.602  11.054 -0.5366 -1.0912  1.1792
  964TIP3    H224384   5.825   3.484  11.004 -0.8371 -0.9667  0.3972
  965TIP3   OH224385   1.938   4.086  15.848  0.1040 -0.5577 -0.3568
  965TIP3    H124386   2.025   4.082  15.807  0.6458 -1.7308  0.8766
  965TIP3    H224387   1.877   4.072  15.775  0.8815  1.4401 -1.4301
  966TIP3   OH224388   2.656   2.951  12.203 -0.3026 -0.3030 -0.1623
  966TIP3    H124389   2.694   2.867  12.229  0.5375  0.4860  1.1792
  966TIP3    H224390   2.645   2.944  12.108  2.4037 -0.8423 -0.4529
  967TIP3   OH224391   6.023   5.900  11.627  0.6888 -0.0138  0.8043
  967TIP3    H124392   6.095   5.912  11.566  0.1731  1.8198  0.5388
  967TIP3    H224393   5.952   5.954  11.592  0.1146  0.4038  2.5825
  968TIP3   OH224394   0.369   2.688  12.690 -0.0397  0.2347 -0.5036
  968TIP3    H124395   0.411   2.654  12.769 -1.1653 -1.2732 -0.5160
  968TIP3    H224396   0.440   2.726  12.639  0.8302  0.4264  0.8277
  969TIP3   OH224397   6.558   6.782  14.875 -0.0966 -0.4864 -0.4506
  969TIP3    H124398   6.640   6.750  14.837  1.4316  0.2775  2.1167
  969TIP3    H224399   6.510   6.703  14.899  0.0966 -0.9264 -1.5001
  970TIP3   OH224400   0.972   2.824  16.714 -0.2536 -0.1366  0.0516
  970TIP3    H124401   1.009   2.789  16.633  0.3828  0.1770  0.2069
  970TIP3    H224402   1.047   2.851  16.766 -0.7780  3.2342 -0.8538
  971TIP3   OH224403   6.484   2.513   0.259 -0.0169 -0.3363  0.3998
  971TIP3    H124404   6.520   2.591   0.217 -0.8062 -0.0473  0.2419
  971TIP3    H224405   6.451   2.460   0.186  0.0745 -0.5910  0.5431
  972TIP3   OH224406   2.187   4.825   3.935  0.1133  0.2834  0.1027
  972TIP3    H124407   2.250   4.897   3.929  0.0463  0.1964 -1.9697
  972TIP3    H224408   2.215   4.764   3.867 -1.9292  0.0107 -0.5181
  973TIP3   OH224409   0.429   5.477  11.050 -0.1312  0.3237 -0.2567
  973TIP3    H124410   0.496   5.411  11.033 -1.2729 -0.5576 -1.3834
  973TIP3    H224411   0.479   5.556  11.070  1.2764 -0.0198 -2.2120
  974TIP3   OH224412   6.533   2.072  14.388 -0.1881  0.4762 -0.2570
  974TIP3    H124413   6.502   2.028  14.467 -0.6369 -0.8239 -1.1575
  974TIP3    H224414   6.458   2.124  14.359 -0.0833  0.8063  0.0516
  975TIP3   OH224415   5.636   6.266   4.180  0.8349  0.8417 -0.0826
  975TIP3    H124416   5.663   6.271   4.272  3.0011  0.4788 -0.6701
  975TIP3    H224417   5.619   6.356   4.155  1.7485  1.1228  0.2643
  976TIP3   OH224418   5.516   5.995  13.558  0.3946  0.3897 -0.1461
  976TIP3    H124419   5.485   5.969  13.644  0.6672  0.4794 -0.0202
  976TIP3    H224420   5.606   5.963  13.554  0.5672  0.8696 -0.1810
  977TIP3   OH224421   3.258   2.437  14.753 -0.2089  0.0971 -0.2633
  977TIP3    H124422   3.251   2.507  14.688  0.4582  0.5770  0.1694
  977TIP3    H224423   3.209   2.469  14.829 -1.0437 -0.4902 -0.5485
  978TIP3   OH224424   3.365   5.448   1.531 -0.1707  0.3021  0.0852
  978TIP3    H124425   3.298   5.427   1.466 -0.7537  1.0159  0.4456
  978TIP3    H224426   3.440   5.477   1.480 -1.2927  2.7595 -0.2338
  979TIP3   OH224427   3.054   0.922  17.081 -0.3676 -0.5424  0.6169
  979TIP3    H124428   2.970   0.966  17.093 -0.4570 -0.2815 -0.8896
  979TIP3    H224429   3.034   0.845  17.029  0.4157 -0.1881 -0.2172
  980TIP3   OH224430   3.395   4.623   4.594 -0.0322  0.6598 -0.4339
  980TIP3    H124431   3.386   4.705   4.642 -0.3427  1.2743 -1.5205
  980TIP3    H224432   3.305   4.595   4.578  0.0432 -0.9382  1.6414
  981TIP3   OH224433   2.626   3.835  16.837 -0.4151  0.1564 -0.4036
  981TIP3    H124434   2.649   3.890  16.762 -1.8772  1.7696  0.2949
  981TIP3    H224435   2.532   3.849  16.849 -0.5903 -1.6108  0.5271
  982TIP3   OH224436   3.952   1.893   0.799  0.2811  0.1812  0.0625
  982TIP3    H124437   3.951   1.832   0.873  0.1934 -1.3330 -1.1361
  982TIP3    H224438   3.863   1.927   0.794  0.2555  0.1842  0.5880
  983TIP3   OH224439   0.231   3.349   0.651  0.5643  0.9846 -0.5454
  983TIP3    H124440   0.242   3.375   0.559  1.8377  2.6876  0.0599
  983TIP3    H224441   0.296   3.280   0.664 -0.0501  0.2965 -1.0833
  984TIP3   OH224442   0.477   0.655   3.590  0.4858 -0.1565 -0.0798
  984TIP3    H124443   0.552   0.702   3.626  1.1511 -0.0423 -1.5489
  984TIP3    H224444   0.401   0.705   3.617  1.0112  0.2806  0.5999
  985TIP3   OH224445   4.239   2.643  12.393 -0.4234 -0.2066  0.0849
  985TIP3    H124446   4.316   2.634  12.450 -0.0203  1.5878 -0.1352
  985TIP3    H224447   4.176   2.580  12.428  0.8203 -1.0624  0.8232
  986TIP3   OH224448   1.426   2.523   6.552  0.9645  0.7500 -0.0022
  986TIP3    H124449   1.421   2.465   6.628  0.9607  0.5012 -0.1924
  986TIP3    H224450   1.338   2.560   6.545 -0.0155 -1.8443 -1.9424
  987TIP3   OH224451   0.831   6.697   0.054  0.0714  0.8014  0.0034
  987TIP3    H124452   0.820   6.757  -0.020  1.2719  0.6936 -0.2816
  987TIP3    H224453   0.905   6.733   0.102  0.9265 -0.5439 -0.2725
  988TIP3   OH224454   3.424   5.876  16.338  0.3363  0.1695 -0.0165
  988TIP3    H124455   3.377   5.882  16.421  1.8045  1.6575  0.7309
  988TIP3    H224456   3.355   5.859  16.273 -1.1618  1.6290  1.1383
  989TIP3   OH224457   1.990   2.171   4.168  0.2156  0.4958  0.0269
  989TIP3    H124458   1.957   2.091   4.126  0.5029  0.1251  0.5055
  989TIP3    H224459   1.933   2.184   4.244  0.5251  0.4242  0.2728
  990TIP3   OH224460   2.258   4.428   3.812  0.1081 -0.2598  0.7434
  990TIP3    H124461   2.235   4.373   3.887 -0.2681 -1.2308 -0.0784
  990TIP3    H224462   2.180   4.482   3.796 -0.2381 -0.8902  0.3085
  991TIP3   OH224463   3.114   0.061   2.616  0.3282  0.6410 -0.1937
  991TIP3    H124464   3.163   0.126   2.665  0.8979 -1.4910  2.1403
  991TIP3    H224465   3.169  -0.017   2.617 -2.4198 -1.3850  1.2919
  992TIP3   OH224466   2.503   2.496  15.502  0.8420 -0.5346  0.0430
  992TIP3    H124467   2.520   2.437  15.428  1.6361 -0.2662  0.0007
  992TIP3    H224468   2.590   2.516  15.537  0.5145 -0.1369  0.6421
  993TIP3   OH224469   1.527   6.259   5.033 -0.3949  0.5282 -0.3777
  993TIP3    H124470   1.599   6.237   5.092 -2.5621 -4.2469  0.7659
  993TIP3    H224471   1.547   6.212   4.952 -0.5928  1.8968 -1.2308
  994TIP3   OH224472   1.421   2.570  11.808 -0.1113  0.2543  0.0011
  994TIP3    H124473   1.459   2.487  11.837 -1.2607  0.0689  1.0184
  994TIP3    H224474   1.481   2.601  11.740  0.5555 -1.2029 -0.1025
  995TIP3   OH224475   6.242   3.977   6.777  0.5085  0.1377 -0.3974
  995TIP3    H124476   6.200   3.891   6.781  0.1814  0.3083 -0.1586
  995TIP3    H224477   6.171   4.037   6.753  0.6833  0.3762 -0.3175
  996TIP3   OH224478   6.004   4.550   3.630  0.0088 -0.3688  0.3507
  996TIP3    H124479   6.013   4.615   3.700 -1.5609 -0.0369  0.2611
  996TIP3    H224480   5.918   4.569   3.591  1.8418  1.0011 -3.2168
  997TIP3   OH224481   3.335   6.716  13.631 -0.0925 -0.2052 -0.4441
  997TIP3    H124482   3.325   6.621  13.633  1.6564 -0.4140  2.5988
  997TIP3    H224483   3.429   6.730  13.618  0.1860  0.9656  2.3320
  998TIP3   OH224484   1.668   5.989  16.807 -0.2985 -0.1447  0.2865
  998TIP3    H124485   1.717   5.996  16.889 -0.8362  0.5385  0.5534
  998TIP3    H224486   1.732   6.013  16.739  0.3009 -1.2530  0.4544
  999TIP3   OH224487   4.324   3.594   2.042  0.3325  0.0853 -0.4140
  999TIP3    H124488   4.361   3.654   1.977  1.1198  1.2862  1.1031
  999TIP3    H224489   4.373   3.513   2.032  1.2964  0.6728 -0.4769
 1000TIP3   OH224490   5.497   6.699   6.191 -0.0590  0.4076  0.8736
 1000TIP3    H124491   5.484   6.615   6.146 -0.0857  0.4156  0.8661
 1000TIP3    H224492   5.428   6.700   6.258 -2.0479  1.7763 -1.1164
 1001TIP3   OH224493   4.299   6.753   2.303  0.3508  0.3747 -1.0372
 1001TIP3    H124494   4.333   6.795   2.382  0.0634 -1.5926  0.1736
 1001TIP3    H224495   4.205   6.742   2.320  0.2115  0.3145 -1.8245
 1002TIP3   OH224496   3.792   1.879  13.558  0.6589  0.3772  0.5707
 1002TIP3    H124497   3.754   1.959  13.593 -1.2808 -0.0950 -0.3451
 1002TIP3    H224498   3.750   1.809  13.609  0.1609 -0.1613 -0.5602
 1003TIP3   OH224499   1.707   6.436   2.167 -0.3444  0.2698  0.0264
 1003TIP3    H124500   1.755   6.500   2.218 -1.1708  0.6665  0.3202
 1003TIP3    H224501   1.759   6.356   2.172 -0.1453  0.4653  1.0378
 1004TIP3   OH224502   5.580   3.549  14.943  0.1272  0.4052  0.4770
 1004TIP3    H124503   5.652   3.535  15.004 -1.0331  1.7125  2.2200
 1004TIP3    H224504   5.598   3.633  14.902 -0.6420  0.9822  1.2965
 1005TIP3   OH224505   6.675   2.112  11.855 -0.4205 -0.2106 -0.7106
 1005TIP3    H124506   6.694   2.117  11.761  0.7904 -0.7790 -0.5083
 1005TIP3    H224507   6.696   2.199  11.888  1.2518 -0.6326 -0.6112
 1006TIP3   OH224508   1.747   1.839  15.300 -0.0351 -0.0502  0.0028
 1006TIP3    H124509   1.670   1.892  15.282  1.0132  1.9507  1.2217
 1006TIP3    H224510   1.790   1.831  15.215  0.5652  2.3576  0.0407
 1007TIP3   OH224511   1.385   3.775   4.824 -0.4696 -0.3269  0.3266
 1007TIP3    H124512   1.433   3.858   4.827  1.7284 -1.5353 -0.5258
 1007TIP3    H224513   1.302   3.797   4.781  1.3700  0.8316 -2.7595
 1008TIP3   OH224514   4.193   3.875   5.018  0.0341 -0.2888  0.3077
 1008TIP3    H124515   4.222   3.962   4.990  2.9888 -0.6278  2.1657
 1008TIP3    H224516   4.146   3.890   5.100 -1.4605 -0.2091 -0.5526
 1009TIP3   OH224517   2.400   5.829   1.359 -0.1286 -0.1215 -0.8120
 1009TIP3    H124518   2.394   5.901   1.296  0.4601  0.7540  0.1090
 1009TIP3    H224519   2.494   5.809   1.363 -0.0610  0.4130  0.4248
 1010TIP3   OH224520   1.981   2.061   4.413 -0.8103  0.0480  0.2193
 1010TIP3    H124521   1.921   2.012   4.468 -2.4119 -0.8018 -2.2121
 1010TIP3    H224522   2.001   2.140   4.463 -1.3338 -1.2026  2.4578
 1011TIP3   OH224523   0.532   2.601   1.134  0.1812 -0.3377 -0.4008
 1011TIP3    H124524   0.461   2.590   1.197 -0.5561 -0.2261 -1.1896
 1011TIP3    H224525   0.589   2.668   1.172  1.0643 -2.0285  1.2741
 1012TIP3   OH224526   4.635   2.437  16.894  0.1849  0.1887  1.0229
 1012TIP3    H124527   4.542   2.441  16.871  0.1586  0.6049  1.2072
 1012TIP3    H224528   4.637   2.425  16.989  0.3150 -0.3361  0.9589
 1013TIP3   OH224529   4.381   1.910   1.944 -0.1350  0.4023  0.1544
 1013TIP3    H124530   4.346   1.985   1.992  0.9150  0.6485  0.5506
 1013TIP3    H224531   4.451   1.876   2.000  0.2173 -0.1198 -0.5896
 1014TIP3   OH224532   5.136   4.156  17.285  0.0687 -0.3297 -0.5468
 1014TIP3    H124533   5.141   4.235  17.338  0.0417 -0.5760 -0.1703
 1014TIP3    H224534   5.166   4.182  17.199  1.2346 -0.1897 -0.1041
 1015TIP3   OH224535   6.378   5.004  12.050 -0.0487 -0.4662  0.1619
 1015TIP3    H124536   6.310   5.018  12.116  0.5441 -2.1104  1.1401
 1015TIP3    H224537   6.403   5.092  12.022 -0.7505  0.2280  1.6638
 1016TIP3   OH224538   0.720   5.754   0.119  0.7785 -0.6914  0.1565
 1016TIP3    H124539   0.638   5.769   0.166  0.7233 -1.7533  0.4072
 1016TIP3    H224540   0.781   5.725   0.187  1.3680  0.1014 -0.0250
 1017TIP3   OH224541   4.105   6.688  15.747  0.1370  0.4584 -0.2767
 1017TIP3    H124542   4.143   6.774  15.764  2.8058 -0.6782 -0.2265
 1017TIP3    H224543   4.152   6.628  15.806 -0.4156 -1.3053 -1.5650
 1018TIP3   OH224544   1.060   0.424  13.970 -0.1747  0.0609 -0.0686
 1018TIP3    H124545   0.969   0.401  13.987 -0.0242 -0.7862 -0.4097
 1018TIP3    H224546   1.108   0.385  14.043 -0.0966  0.6287  0.1888
 1019TIP3   OH224547   3.541   2.918   3.560  0.4518  0.2400 -0.1344
 1019TIP3    H124548   3.576   2.836   3.527  2.1176  0.4011  1.1727
 1019TIP3    H224549   3.613   2.981   3.551 -0.6823  1.4808 -0.7854
 1020TIP3   OH224550   2.952   3.661   0.300  0.5257  0.4308  0.2717
 1020TIP3    H124551   3.022   3.666   0.235  0.5196  2.1008  0.3692
 1020TIP3    H224552   2.982   3.718   0.371 -0.6858  0.7298  0.5498
 1021TIP3   OH224553   0.460   2.465  13.032 -0.6590  0.4061 -0.2767
 1021TIP3    H124554   0.447   2.512  13.114 -0.4024 -0.8891  0.5026
 1021TIP3    H224555   0.378   2.417  13.018  0.7378 -2.5043  1.2537
 1022TIP3   OH224556   5.319   4.480  12.054 -0.4353  0.7787  0.2719
 1022TIP3    H124557   5.381   4.467  12.126 -0.7125  0.5449  0.4699
 1022TIP3    H224558   5.300   4.573  12.055 -1.4110  0.5743  1.3082
 1023TIP3   OH224559   5.283   5.515  16.730 -0.0939 -0.8050  0.5275
 1023TIP3    H124560   5.292   5.555  16.644 -0.5062  1.4881  1.5073
 1023TIP3    H224561   5.342   5.439  16.728  1.0458  0.0947 -1.2502
 1024TIP3   OH224562   1.257   6.765   1.633 -0.3702 -0.0141 -0.4038
 1024TIP3    H124563   1.277   6.736   1.544  1.2749  0.4488 -0.2043
 1024TIP3    H224564   1.170   6.803   1.627  0.5739  1.9597 -2.2926
 1025TIP3   OH224565   0.625   4.227   0.949 -0.3823  0.4738  0.6945
 1025TIP3    H124566   0.547   4.218   0.895  0.1880  1.6689 -0.3384
 1025TIP3    H224567   0.629   4.319   0.973  1.4713  0.7097 -0.4335
 1026TIP3   OH224568   1.556   2.122  13.984  0.1789 -0.0949  0.1332
 1026TIP3    H124569   1.636   2.081  13.951  1.1555  2.0952 -0.3795
 1026TIP3    H224570   1.501   2.132  13.906 -0.5106 -1.3826  0.4461
 1027TIP3   OH224571   4.140   5.569   0.932 -0.0775  0.5482  0.3854
 1027TIP3    H124572   4.061   5.622   0.924 -0.1769  0.4126  0.4542
 1027TIP3    H224573   4.158   5.567   1.026 -0.6231 -0.3333  0.4795
 1028TIP3   OH224574   4.022   4.509   3.891  0.4295  0.2023 -0.0869
 1028TIP3    H124575   4.094   4.449   3.909 -0.0829 -0.5743 -0.5568
 1028TIP3    H224576   3.958   4.491   3.961  0.2280  0.1145 -0.2921
 1029TIP3   OH224577   4.698   1.985  15.094 -0.3235 -0.0049  0.4742
 1029TIP3    H124578   4.664   1.896  15.080  0.2402 -0.4922  2.0276
 1029TIP3    H224579   4.793   1.973  15.100 -0.1053  0.9401 -0.9175
 1030TIP3   OH224580   3.679   1.914  10.364  0.4394  0.3072 -0.6176
 1030TIP3    H124581   3.670   2.005  10.391  1.7150  0.0015  0.8969
 1030TIP3    H224582   3.695   1.866  10.445 -0.6500 -1.3357 -1.3587
 1031TIP3   OH224583   3.985   6.791  11.697 -0.1334  0.9379 -0.2382
 1031TIP3    H124584   4.046   6.836  11.755  2.9069 -2.0247 -0.9738
 1031TIP3    H224585   4.012   6.816  11.608 -0.1784 -0.1617 -0.5726
 1032TIP3   OH224586   5.374   4.160  16.576  0.3344  0.0660  0.4872
 1032TIP3    H124587   5.404   4.247  16.551 -1.6294  0.5606 -0.2493
 1032TIP3    H224588   5.424   4.138  16.655  0.2392  2.1967  1.1580
 1033TIP3   OH224589   5.416   3.376  14.476 -0.6327 -0.0924 -0.6503
 1033TIP3    H124590   5.434   3.416  14.391 -2.3022  4.1926  0.9213
 1033TIP3    H224591   5.492   3.397  14.530 -0.7951 -0.4573 -0.2734
 1034TIP3   OH224592   0.323   5.897   3.410  0.1780 -0.3324  0.1812
 1034TIP3    H124593   0.329   5.987   3.378 -0.7423  0.4650  2.1369
 1034TIP3    H224594   0.401   5.885   3.464  1.5022 -1.5182 -1.9510
 1035TIP3   OH224595   3.463   3.869   3.016  0.4095 -0.4118 -0.1052
 1035TIP3    H124596   3.500   3.840   3.099 -1.3563 -1.4773  0.3422
 1035TIP3    H224597   3.483   3.798   2.955 -0.8019 -0.9623  0.1231
 1036TIP3   OH224598   0.954   3.435  11.774  0.1989 -0.0173 -0.3762
 1036TIP3    H124599   1.025   3.371  11.783  0.8566  0.8598  0.7835
 1036TIP3    H224600   0.946   3.448  11.679  1.7854  0.0708 -0.5213
 1037TIP3   OH224601   6.227   1.347  14.350  0.3369 -0.2888  0.1598
 1037TIP3    H124602   6.236   1.412  14.280 -1.5708 -0.1766 -0.0142
 1037TIP3    H224603   6.248   1.263  14.309 -1.7102 -0.3440 -0.8182
 1038TIP3   OH224604   4.574   5.480   6.560  0.5150 -0.0708 -0.5297
 1038TIP3    H124605   4.668   5.467   6.557  0.8368  1.0071  2.7018
 1038TIP3    H224606   4.560   5.569   6.528  0.4281 -0.7318 -2.3685
 1039TIP3   OH224607   6.096   6.227  14.651  0.6673 -0.4538  0.3676
 1039TIP3    H124608   6.069   6.163  14.717 -1.2380  0.6320  0.6624
 1039TIP3    H224609   6.102   6.177  14.570 -0.3551 -1.1090  0.6883
 1040TIP3   OH224610   5.235   4.162   1.788  0.5981  0.1180 -0.2136
 1040TIP3    H124611   5.147   4.165   1.752 -0.2171 -1.1644  1.5832
 1040TIP3    H224612   5.256   4.252   1.810 -1.2806  0.1446  1.6420
 1041TIP3   OH224613   3.673   3.648   4.658  0.3315 -0.3175 -0.6601
 1041TIP3    H124614   3.715   3.711   4.598 -0.3827  0.8728  0.0558
 1041TIP3    H224615   3.592   3.691   4.684 -0.4217 -1.7806 -0.5476
 1042TIP3   OH224616   1.605   3.036  15.368  0.9726  0.3144  0.4422
 1042TIP3    H124617   1.534   2.974  15.389  0.2858  1.0221  0.2394
 1042TIP3    H224618   1.603   3.100  15.439 -0.6477  2.1004 -1.1544
 1043TIP3   OH224619   3.132   3.598   0.088 -0.2647  0.5313  0.4112
 1043TIP3    H124620   3.148   3.504   0.095  0.9217  0.5799 -1.3838
 1043TIP3    H224621   3.072   3.607   0.013  0.5109  1.2896 -0.1250
 1044TIP3   OH224622   1.263   2.433  16.474  0.7829 -0.1256  0.2982
 1044TIP3    H124623   1.168   2.439  16.479  0.9970  2.9777  1.6328
 1044TIP3    H224624   1.282   2.341  16.491 -1.8242 -0.2300  3.0258
 1045TIP3   OH224625   0.337   5.752   1.537 -0.5000  0.3049  0.2304
 1045TIP3    H124626   0.284   5.751   1.457  0.5114 -0.8939 -0.4503
 1045TIP3    H224627   0.344   5.845   1.559  0.0971  0.7710 -1.7241
 1046TIP3   OH224628   0.105   4.877  14.917  0.1585 -0.1934  0.1808
 1046TIP3    H124629   0.191   4.918  14.909  0.6243 -1.0173  0.8647
 1046TIP3    H224630   0.051   4.943  14.960  0.1571  0.7135 -1.1685
 1047TIP3   OH224631   3.901   2.911   4.143 -0.2980 -0.7612  0.1656
 1047TIP3    H124632   3.994   2.899   4.163 -0.2188  0.5576  0.6104
 1047TIP3    H224633   3.882   2.843   4.078  1.0519 -0.8547 -0.1546
 1048TIP3   OH224634   0.464   5.139  12.795 -0.8104 -0.0652  0.0735
 1048TIP3    H124635   0.535   5.197  12.768 -0.3114 -1.3062 -1.3401
 1048TIP3    H224636   0.435   5.097  12.714 -0.6894 -2.3038  1.1466
 1049TIP3   OH224637   2.502   4.707  12.819  0.0247  0.3209 -0.0985
 1049TIP3    H124638   2.477   4.672  12.905  1.9555  2.6563  1.4725
 1049TIP3    H224639   2.438   4.669  12.758 -2.1302 -0.4240  2.5315
 1050TIP3   OH224640   3.359   0.247  13.635  0.0024 -0.4618  0.5246
 1050TIP3    H124641   3.291   0.252  13.568  0.0452  2.0467  0.6432
 1050TIP3    H224642   3.312   0.252  13.718  0.3042  1.3148  0.6070
 1051TIP3   OH224643   4.147   2.713  11.248  0.5323 -0.2352 -0.0590
 1051TIP3    H124644   4.086   2.725  11.321  1.3577  1.3589  0.3882
 1051TIP3    H224645   4.093   2.675  11.178 -1.0851  1.4864  0.2068
 1052TIP3   OH224646   1.924   0.875  13.433 -0.3867 -0.2661 -0.2346
 1052TIP3    H124647   1.931   0.780  13.441 -2.3239 -0.5030 -1.0033
 1052TIP3    H224648   1.829   0.892  13.428 -0.3103  2.0187  3.7412
 1053TIP3   OH224649   0.332   4.561  14.670 -0.6053  0.6671  0.1651
 1053TIP3    H124650   0.301   4.594  14.755 -1.9059 -2.0214  0.7810
 1053TIP3    H224651   0.291   4.618  14.606  0.4205  2.7760  1.3255
 1054TIP3   OH224652   2.278   2.219  11.313 -0.5540  0.4519  0.5259
 1054TIP3    H124653   2.230   2.204  11.232 -0.2956  1.9158  0.1005
 1054TIP3    H224654   2.234   2.162  11.377  0.5735 -2.3424 -1.0782
 1055TIP3   OH224655   6.440   4.194   5.878  0.0558 -0.3371 -0.0418
 1055TIP3    H124656   6.406   4.213   5.966  0.7112  2.0918 -0.2551
 1055TIP3    H224657   6.535   4.187   5.890  0.5216  3.2614 -0.9859
 1056TIP3   OH224658   5.710   0.015   5.298 -0.4006  0.3346  0.5562
 1056TIP3    H124659   5.727   0.005   5.204 -0.5480  1.5300  0.3840
 1056TIP3    H224660   5.616   0.033   5.304 -0.2985  0.7810  0.8840
 1057TIP3   OH224661   6.260   3.676  14.741 -0.0080 -0.0052 -0.0762
 1057TIP3    H124662   6.301   3.618  14.676  0.3230  0.2964 -0.1391
 1057TIP3    H224663   6.183   3.710  14.697 -0.6350 -1.0021  0.2336
 1058TIP3   OH224664   5.287   4.930  12.935  0.4607 -0.0830  0.6344
 1058TIP3    H124665   5.270   4.989  13.008  2.3271  0.9040  0.2923
 1058TIP3    H224666   5.226   4.958  12.867  1.6052  1.7384  0.3281
 1059TIP3   OH224667   3.614   6.518   5.050 -0.4265  0.2134  0.1550
 1059TIP3    H124668   3.590   6.611   5.054 -0.4440  0.1528  3.0093
 1059TIP3    H224669   3.532   6.473   5.032 -0.2394  0.7829 -2.3223
 1060TIP3   OH224670   2.019   5.313   1.606 -0.4790 -0.0266  0.2418
 1060TIP3    H124671   2.035   5.239   1.665 -0.5529 -0.9343 -0.8519
 1060TIP3    H224672   2.053   5.284   1.521  1.5687  2.0798  0.2874
 1061TIP3   OH224673   6.604   2.249   0.139  0.1401 -0.4111  0.0610
 1061TIP3    H124674   6.537   2.194   0.181  1.1131 -1.8268 -0.2142
 1061TIP3    H224675   6.604   2.221   0.048  0.0809  0.6361 -0.2706
 1062TIP3   OH224676   6.262   5.055   3.890  0.4218 -0.0205  0.2582
 1062TIP3    H124677   6.249   5.000   3.813  0.4653 -1.5731  1.3221
 1062TIP3    H224678   6.242   5.144   3.860  0.4693 -0.5866 -1.5362
 1063TIP3   OH224679   2.628   4.866   5.893  0.1863  0.1510  0.0831
 1063TIP3    H124680   2.643   4.789   5.948 -0.9127  0.4166  0.7693
 1063TIP3    H224681   2.696   4.928   5.920  0.5950 -0.2858  0.0677
 1064TIP3   OH224682   6.290   1.035  13.080 -0.2041  0.3129 -0.0895
 1064TIP3    H124683   6.220   1.016  13.142  0.5226 -2.9238 -0.1547
 1064TIP3    H224684   6.270   0.981  13.003  1.7942  0.0493 -0.4778
 1065TIP3   OH224685   2.479   0.575   4.835 -0.1623 -0.3884  0.1507
 1065TIP3    H124686   2.511   0.554   4.923 -0.5207 -1.1103  0.1088
 1065TIP3    H224687   2.414   0.644   4.850 -0.4416 -0.7199  0.4901
 1066TIP3   OH224688   0.326   4.062   4.818  0.4795  0.6704  0.2086
 1066TIP3    H124689   0.375   4.125   4.871  1.0019 -1.0464  1.8515
 1066TIP3    H224690   0.264   4.023   4.879 -1.0285  0.8281 -1.2097
 1067TIP3   OH224691   2.616   1.234  15.348 -0.3561  0.4264 -0.3171
 1067TIP3    H124692   2.707   1.263  15.354 -0.4616  1.1000 -1.6689
 1067TIP3    H224693   2.565   1.312  15.371 -0.6179  0.9246 -2.4486
 1068TIP3   OH224694   4.981   1.144  16.066  0.3594 -0.4855  0.1053
 1068TIP3    H124695   4.965   1.165  15.975  1.4740 -2.1374 -0.5102
 1068TIP3    H224696   5.077   1.145  16.075  0.2663 -0.4047  1.2273
 1069TIP3   OH224697   5.803   5.364   0.308 -0.3029 -0.3836  0.1730
 1069TIP3    H124698   5.895   5.338   0.295 -1.1611 -4.3086  1.0676
 1069TIP3    H224699   5.806   5.426   0.381  1.7834  0.7674 -0.8566
 1070TIP3   OH224700   3.258   4.072   3.096  0.6700 -0.3152 -0.1784
 1070TIP3    H124701   3.188   4.033   3.043  0.4126 -0.0611 -0.0242
 1070TIP3    H224702   3.327   4.006   3.095  0.3945 -0.6082 -0.2593
 1071TIP3   OH224703   2.638   2.188   0.469 -0.5280  0.1028 -0.2002
 1071TIP3    H124704   2.651   2.162   0.561  0.0181  0.5035 -0.1640
 1071TIP3    H224705   2.704   2.255   0.453 -1.1305  0.5901 -0.6646
 1072TIP3   OH224706   4.355   3.148  12.281  0.0322  0.0726  0.3571
 1072TIP3    H124707   4.326   3.105  12.362 -2.5875  2.3533  0.7441
 1072TIP3    H224708   4.326   3.090  12.211  0.1959 -0.7704  0.9767
 1073TIP3   OH224709   6.425   4.198  12.632  0.0731 -0.0045  0.0904
 1073TIP3    H124710   6.489   4.256  12.591  1.1777 -2.0977 -1.2717
 1073TIP3    H224711   6.347   4.252  12.644  0.5192  1.3522 -2.6534
 1074TIP3   OH224712   3.166   2.557  12.507 -0.6394  0.1401  0.1488
 1074TIP3    H124713   3.147   2.501  12.582  0.7259  0.6471  0.8996
 1074TIP3    H224714   3.156   2.500  12.431  0.2372 -0.9938  0.8723
 1075TIP3   OH224715   0.970   3.603   3.274  0.2392 -0.2245  0.0884
 1075TIP3    H124716   1.050   3.615   3.324 -0.7976 -0.2397  1.7725
 1075TIP3    H224717   0.996   3.550   3.198  1.9261  0.3136  0.2896
 1076TIP3   OH224718   2.469   4.524   5.102  0.1017  0.1097 -0.5687
 1076TIP3    H124719   2.464   4.582   5.178  0.2905 -0.4301 -0.1461
 1076TIP3    H224720   2.378   4.501   5.084 -0.0244  0.9785 -1.0814
 1077TIP3   OH224721   4.149   4.543  12.029  0.3243  0.1401 -0.3640
 1077TIP3    H124722   4.121   4.599  12.101  0.2946 -1.0773  0.5777
 1077TIP3    H224723   4.099   4.575  11.953 -2.0670 -0.6766  0.8410
 1078TIP3   OH224724   1.259   2.309   4.509 -0.0690  0.4502 -0.2552
 1078TIP3    H124725   1.334   2.359   4.475 -1.1008  0.8259 -2.0403
 1078TIP3    H224726   1.239   2.246   4.439 -1.5631  0.5000  0.1115
 1079TIP3   OH224727   5.866   2.166  11.681  0.2701 -0.5685  0.2882
 1079TIP3    H124728   5.821   2.132  11.759  1.1600 -0.8638  0.6798
 1079TIP3    H224729   5.913   2.090  11.646  0.6550 -0.2073  0.0178
 1080TIP3   OH224730   2.961   4.506   0.487 -0.5414  0.5792  0.2776
 1080TIP3    H124731   2.965   4.458   0.569  1.8518  1.2744  0.5923
 1080TIP3    H224732   2.892   4.462   0.437 -1.1076 -0.6731  2.1102
 1081TIP3   OH224733   2.451   6.799  12.603  0.0397  0.8903  0.8736
 1081TIP3    H124734   2.495   6.776  12.522 -2.7421 -1.2479 -0.1065
 1081TIP3    H224735   2.479   6.732  12.666  1.3987  1.9597  1.4381
 1082TIP3   OH224736   1.306   1.947  14.254  0.8506 -0.3253  0.1246
 1082TIP3    H124737   1.284   1.933  14.346  0.3342 -2.4615 -0.2821
 1082TIP3    H224738   1.230   1.991  14.217  0.0848 -1.5227  0.2405
 1083TIP3   OH224739   0.047   5.835   5.442  0.2382 -0.3151  0.1860
 1083TIP3    H124740   0.066   5.743   5.426  1.1767 -0.5017  2.2292
 1083TIP3    H224741   0.128   5.880   5.418 -0.2783  0.0236 -0.9821
 1084TIP3   OH224742   4.491   4.832  16.520  0.0045 -0.3165 -0.6374
 1084TIP3    H124743   4.562   4.893  16.544 -1.9655  0.1232  4.7536
 1084TIP3    H224744   4.436   4.883  16.461  2.4244  0.4423 -2.3301
 1085TIP3   OH224745   4.983   2.268   1.541  0.3120 -0.1994  0.1962
 1085TIP3    H124746   4.958   2.358   1.562 -1.3565 -0.7342  0.5725
 1085TIP3    H224747   5.048   2.277   1.472  0.3163  1.3123  0.3805
 1086TIP3   OH224748   5.151   4.167   0.562 -0.4936  0.2398 -0.0228
 1086TIP3    H124749   5.148   4.256   0.596  1.1802  0.7406 -1.0949
 1086TIP3    H224750   5.182   4.177   0.472 -0.3630 -1.4170 -0.1764
 1087TIP3   OH224751   4.534   4.157   2.344  0.0732  0.4499 -0.5767
 1087TIP3    H124752   4.523   4.077   2.293  0.9690 -0.4289  0.5502
 1087TIP3    H224753   4.488   4.139   2.427  0.7734  0.8744 -0.0893
 1088TIP3   OH224754   3.852   5.199   6.147 -0.5606  0.2942 -0.6925
 1088TIP3    H124755   3.853   5.118   6.197  2.9300  0.9443  0.4099
 1088TIP3    H224756   3.842   5.268   6.213  0.0417  0.9471 -1.2746
 1089TIP3   OH224757   6.567   6.280   3.432 -0.5560 -0.4735 -0.0684
 1089TIP3    H124758   6.561   6.206   3.493 -0.0713 -1.5800 -1.3550
 1089TIP3    H224759   6.621   6.248   3.360  1.0997  1.7164  0.1797
 1090TIP3   OH224760   1.704   2.167  16.822 -0.4937  0.9250  0.4493
 1090TIP3    H124761   1.648   2.172  16.900 -0.0653  0.0655  0.8185
 1090TIP3    H224762   1.703   2.074  16.798 -1.3853  1.3080 -1.1437
 1091TIP3   OH224763   1.521   0.151   4.476  0.6348 -0.1595  0.3417
 1091TIP3    H124764   1.578   0.116   4.544 -0.7680 -1.5878  0.8010
 1091TIP3    H224765   1.443   0.180   4.522  0.9084  1.6867 -0.2991
 1092TIP3   OH224766   2.470   6.194   1.901 -0.5313 -0.0710 -0.3691
 1092TIP3    H124767   2.410   6.120   1.891 -4.4853  2.8673  0.7050
 1092TIP3    H224768   2.476   6.232   1.813 -1.0096  0.2126 -0.2786
 1093TIP3   OH224769   2.340   6.424   2.624  0.3712  0.0248  0.5972
 1093TIP3    H124770   2.402   6.453   2.557 -0.0760 -0.7533 -0.1677
 1093TIP3    H224771   2.329   6.330   2.607  0.5172 -0.2511  1.9834
 1094TIP3   OH224772   2.286   3.293  13.232  0.0950  0.2012  0.0512
 1094TIP3    H124773   2.297   3.360  13.299 -2.0936  0.1167  0.5325
 1094TIP3    H224774   2.331   3.328  13.155  0.0806  1.6396  0.6824
 1095TIP3   OH224775   6.774   2.436  14.654  0.4527 -0.1459 -0.2983
 1095TIP3    H124776   6.751   2.513  14.706 -0.3836 -0.4898 -0.1492
 1095TIP3    H224777   6.813   2.471  14.575 -0.3939  0.4550 -0.4604
 1096TIP3   OH224778   4.095   5.704  10.487 -0.0770  0.0638  0.2573
 1096TIP3    H124779   4.174   5.738  10.445 -0.8812  0.5526 -0.8714
 1096TIP3    H224780   4.040   5.782  10.500 -0.1704 -0.1991  1.4959
 1097TIP3   OH224781   2.419   4.043   5.826  0.0840  0.9353 -0.2465
 1097TIP3    H124782   2.470   3.981   5.774 -0.1377  0.9932 -0.5326
 1097TIP3    H224783   2.329   4.033   5.795 -0.2441  0.1633  0.9065
 1098TIP3   OH224784   6.134   4.780  15.865 -0.3524 -0.0044 -0.0142
 1098TIP3    H124785   6.043   4.793  15.889 -0.1706  2.1061 -0.3874
 1098TIP3    H224786   6.132   4.764  15.770 -0.4785 -1.7032  0.2672
 1099TIP3   OH224787   5.423   2.869  15.335 -0.9099 -0.3114  0.5547
 1099TIP3    H124788   5.470   2.944  15.372 -1.1747 -0.0366  0.3335
 1099TIP3    H224789   5.490   2.819  15.290 -1.2352  1.3626 -1.8634
 1100TIP3   OH224790   4.519   3.495  14.906 -0.2575 -0.0712 -0.0729
 1100TIP3    H124791   4.485   3.568  14.855 -0.4506 -0.5937 -0.7107
 1100TIP3    H224792   4.550   3.534  14.987 -0.7000  0.6628 -0.2523
 1101TIP3   OH224793   4.714   4.584   0.817 -0.4693  0.0284  0.2442
 1101TIP3    H124794   4.739   4.667   0.858 -0.3312 -0.0019  0.2214
 1101TIP3    H224795   4.636   4.556   0.864  0.8002 -0.9901  1.8094
 1102TIP3   OH224796   6.182   5.475   0.717  0.6021  0.5285  0.2892
 1102TIP3    H124797   6.169   5.513   0.631  1.1309  0.3836  0.1446
 1102TIP3    H224798   6.096   5.481   0.760 -0.0213 -0.7085 -0.7638
 1103TIP3   OH224799   2.778   2.153  10.819 -0.6251  0.1151  0.0792
 1103TIP3    H124800   2.797   2.066  10.853 -1.6709 -0.5129 -0.9205
 1103TIP3    H224801   2.720   2.138  10.745 -0.2754  1.6216 -0.5229
 1104TIP3   OH224802   2.567   2.813   6.410  0.2556  0.3263 -0.0352
 1104TIP3    H124803   2.568   2.906   6.433 -0.2369 -0.0170  1.4252
 1104TIP3    H224804   2.474   2.792   6.397  0.3066 -0.1104  0.2865
 1105TIP3   OH224805   1.365   0.031   5.555  0.1265 -0.0016 -0.0567
 1105TIP3    H124806   1.399  -0.058   5.565  2.2922  0.8917  0.8154
 1105TIP3    H224807   1.440   0.081   5.523 -0.6379  1.8405  1.0046
 1106TIP3   OH224808   0.506   1.835  15.382 -0.1529 -0.3003  0.1914
 1106TIP3    H124809   0.528   1.821  15.474 -0.4342 -0.9386  0.1626
 1106TIP3    H224810   0.567   1.902  15.352 -1.3236  1.3401  1.3706
 1107TIP3   OH224811   4.206   0.792   0.502 -0.1755 -0.3772 -0.0301
 1107TIP3    H124812   4.242   0.711   0.539  0.3777 -0.0678  0.1011
 1107TIP3    H224813   4.206   0.777   0.407  2.1620  0.3920 -0.1758
 1108TIP3   OH224814   1.988   1.716   5.288  0.1397 -0.1632 -0.5257
 1108TIP3    H124815   2.054   1.713   5.219 -1.0987  0.0091 -1.7379
 1108TIP3    H224816   1.931   1.789   5.263 -1.2101 -1.0706 -0.1384
 1109TIP3   OH224817   2.131   6.048  13.154 -0.0817  0.0339 -0.0756
 1109TIP3    H124818   2.074   6.043  13.231 -0.5796  0.9659 -0.3743
 1109TIP3    H224819   2.203   5.989  13.173  0.4570  1.2382  1.6472
 1110TIP3   OH224820   3.204   5.704   0.877  0.1803 -0.6628 -0.1425
 1110TIP3    H124821   3.199   5.658   0.960  0.6309 -0.4246  0.0198
 1110TIP3    H224822   3.293   5.687   0.845  0.6497  0.7808  0.3343
 1111TIP3   OH224823   3.805   5.270  15.140  0.4457  0.2680  0.0441
 1111TIP3    H124824   3.855   5.350  15.154  0.1155  0.8719 -2.0639
 1111TIP3    H224825   3.733   5.296  15.082 -1.1105 -1.0262  1.3258
 1112TIP3   OH224826   6.400   6.129   6.004  0.1993  0.0970 -0.6032
 1112TIP3    H124827   6.454   6.081   6.067 -0.8706 -1.1468 -0.6090
 1112TIP3    H224828   6.444   6.117   5.920  0.3573 -0.2278 -0.4733
 1113TIP3   OH224829   4.736   5.181   2.199  0.0517 -0.1551  0.3908
 1113TIP3    H124830   4.754   5.254   2.258  0.3836  0.9313 -1.0320
 1113TIP3    H224831   4.811   5.123   2.209  0.7538  0.6862  0.0551
 1114TIP3   OH224832   6.102   5.635  13.798  0.4209  0.4442 -0.3589
 1114TIP3    H124833   6.043   5.578  13.748 -1.4752  0.7181  1.5272
 1114TIP3    H224834   6.158   5.574  13.846  0.3710  0.1900 -0.6162
 1115TIP3   OH224835   4.946   5.685  14.825 -0.2908 -0.4363 -0.0218
 1115TIP3    H124836   4.964   5.594  14.801 -0.0483 -0.4251  0.1242
 1115TIP3    H224837   4.850   5.690  14.831 -0.5993  0.2063 -3.7011
 1116TIP3   OH224838   5.014   3.804  13.606  0.2618 -0.1294  0.4493
 1116TIP3    H124839   5.012   3.712  13.580  2.0094  0.1366 -0.7058
 1116TIP3    H224840   4.939   3.843  13.563 -0.4893 -1.0067  0.9478
 1117TIP3   OH224841   3.754   6.612  11.193 -0.0210 -0.0453 -0.4480
 1117TIP3    H124842   3.843   6.649  11.187  0.3557 -0.6886  0.9720
 1117TIP3    H224843   3.742   6.594  11.286 -1.5062 -0.3302 -0.6867
 1118TIP3   OH224844   1.189   4.120   4.153  0.4930 -0.5483  0.5515
 1118TIP3    H124845   1.280   4.125   4.125  0.0343  1.4174 -0.7174
 1118TIP3    H224846   1.165   4.210   4.173 -1.0105 -1.1244  1.4348
 1119TIP3   OH224847   6.087   6.568  15.940  0.0635  0.2667  0.4940
 1119TIP3    H124848   6.106   6.585  15.847 -0.3309 -1.8328  0.0228
 1119TIP3    H224849   6.033   6.643  15.966 -0.6980  0.3683 -1.2500
 1120TIP3   OH224850   1.137   1.282  14.979  0.5455  0.2929 -0.6860
 1120TIP3    H124851   1.097   1.305  15.062 -0.9125  0.9472 -1.5512
 1120TIP3    H224852   1.133   1.187  14.975  2.7322  0.1015  1.0082
 1121TIP3   OH224853   1.209   5.946   5.218  0.8564 -0.3362 -0.6034
 1121TIP3    H124854   1.188   5.866   5.265 -1.7431  0.4482 -0.3580
 1121TIP3    H224855   1.133   5.962   5.162  1.4757  1.7695 -0.9088
 1122TIP3   OH224856   2.864   1.060   1.460  0.1402 -0.5779  0.0652
 1122TIP3    H124857   2.779   1.035   1.497 -1.1086  0.6437 -1.8596
 1122TIP3    H224858   2.865   1.156   1.464  2.3660 -0.6253  1.9881
 1123TIP3   OH224859   5.902   3.176  15.442  0.0345  0.2595 -0.1271
 1123TIP3    H124860   5.853   3.235  15.499 -0.3895  0.1322 -0.3584
 1123TIP3    H224861   5.932   3.231  15.370  1.3581  0.6206  0.6787
 1124TIP3   OH224862   6.757   2.664  14.819 -0.4957  0.2976  0.0219
 1124TIP3    H124863   6.700   2.688  14.746 -1.5418 -0.5828  0.5368
 1124TIP3    H224864   6.743   2.733  14.884 -1.7790 -0.4731  0.5749
 1125TIP3   OH224865   4.743   0.595  15.768  0.0321  0.0339  0.3279
 1125TIP3    H124866   4.760   0.661  15.702  2.3450  1.6907  2.4529
 1125TIP3    H224867   4.826   0.587  15.815 -0.9175 -2.6299  1.6798
 1126TIP3   OH224868   2.304   3.273  15.421 -0.5948  0.1532  0.3339
 1126TIP3    H124869   2.227   3.330  15.429 -0.9166 -0.4094  1.2873
 1126TIP3    H224870   2.373   3.318  15.470  0.4187  1.8869 -2.5570
 1127TIP3   OH224871   5.661   5.728  14.157 -0.3738  0.3102  0.1026
 1127TIP3    H124872   5.658   5.690  14.245 -0.4938  2.4770  1.0697
 1127TIP3    H224873   5.755   5.733  14.136 -0.3422 -0.1535  0.1376
 1128TIP3   OH224874   0.339   1.294  15.501  0.1371 -0.5681  0.4896
 1128TIP3    H124875   0.269   1.322  15.559 -0.9176 -1.4340 -0.3561
 1128TIP3    H224876   0.302   1.300  15.413  0.7652 -2.0259  0.1116
 1129TIP3   OH224877   6.561   4.717  11.038  0.4481 -0.7838  0.0266
 1129TIP3    H124878   6.616   4.789  11.008 -0.1960 -0.4992 -0.5039
 1129TIP3    H224879   6.509   4.755  11.110  0.7869 -0.9853  0.3761
 1130TIP3   OH224880   5.196   1.876  13.266 -0.1042  0.6213  0.7616
 1130TIP3    H124881   5.177   1.909  13.178  0.3294  1.6046  1.0240
 1130TIP3    H224882   5.213   1.955  13.318  2.5488 -0.0777  1.0443
 1131TIP3   OH224883   6.755   3.445   0.512 -0.2771 -0.1057  0.3009
 1131TIP3    H124884   6.823   3.425   0.448 -0.4946  0.3061 -0.0684
 1131TIP3    H224885   6.780   3.531   0.547  0.0443 -0.5004  1.0437
 1132TIP3   OH224886   0.582   4.602   1.907 -0.8039  0.6395  0.1361
 1132TIP3    H124887   0.559   4.691   1.881 -0.1721  1.1502  1.2954
 1132TIP3    H224888   0.677   4.604   1.919 -0.8015 -0.1646  0.2826
 1133TIP3   OH224889   6.372   3.072  13.593 -0.6263 -0.4937  0.1689
 1133TIP3    H124890   6.391   3.005  13.659 -0.0534  0.7155  1.2586
 1133TIP3    H224891   6.454   3.085  13.547 -0.4625  0.1794  0.6410
 1134TIP3   OH224892   4.515   5.646  17.101  0.1310 -0.3460 -0.3956
 1134TIP3    H124893   4.591   5.599  17.134 -0.1284  0.4967  1.4895
 1134TIP3    H224894   4.451   5.578  17.080  0.5428 -0.9387  0.2513
 1135TIP3   OH224895   0.802   0.960  11.084 -0.0658  0.0837 -0.2426
 1135TIP3    H124896   0.861   0.970  11.009 -0.3368 -0.6781 -0.5661
 1135TIP3    H224897   0.847   0.897  11.141 -1.0417 -1.2946 -0.9851
 1136TIP3   OH224898   6.395   2.060  17.088  0.2923 -0.0417 -0.6182
 1136TIP3    H124899   6.462   2.085  17.150  0.2071 -0.7227 -0.2451
 1136TIP3    H224900   6.399   1.964  17.085  0.3715 -0.0151 -1.7410
 1137TIP3   OH224901   3.598   4.794  12.365  0.3689 -0.7855  0.4114
 1137TIP3    H124902   3.543   4.852  12.418 -0.1211 -0.3329 -0.5814
 1137TIP3    H224903   3.605   4.714  12.418 -1.0859 -0.7765  0.6504
 1138TIP3   OH224904   1.496   0.271  13.255  0.3372  0.4486  0.0712
 1138TIP3    H124905   1.504   0.182  13.289 -0.7195 -0.8575 -2.9646
 1138TIP3    H224906   1.424   0.309  13.305  1.6338  0.0636  2.2760
 1139TIP3   OH224907   6.590   5.964  11.562 -0.0676 -0.2130  0.1484
 1139TIP3    H124908   6.636   5.907  11.500  0.2104 -0.4309  0.5547
 1139TIP3    H224909   6.653   5.978  11.633 -0.4221 -0.0472  0.4307
 1140TIP3   OH224910   6.224   5.881   1.873 -0.4295 -0.0717 -0.5321
 1140TIP3    H124911   6.164   5.811   1.846 -1.3774  0.3046  0.5755
 1140TIP3    H224912   6.215   5.885   1.968  2.2757 -0.8332 -0.2020
 1141TIP3   OH224913   1.682   1.893   1.001 -0.8060 -0.2999 -0.0247
 1141TIP3    H124914   1.776   1.912   1.002 -0.8913  0.1601 -0.5133
 1141TIP3    H224915   1.641   1.979   0.992 -1.1752 -0.8068 -4.1823
 1142TIP3   OH224916   1.966   1.215   6.219 -0.3326 -0.0112 -0.6807
 1142TIP3    H124917   2.014   1.179   6.144 -0.9346 -0.5484 -0.8136
 1142TIP3    H224918   1.890   1.158   6.228 -0.3709  0.1795  0.2173
 1143TIP3   OH224919   4.280   1.683   5.279 -0.4702 -0.0725  0.2657
 1143TIP3    H124920   4.224   1.622   5.327 -0.5855 -0.6189 -0.5502
 1143TIP3    H224921   4.268   1.659   5.187  1.3403 -0.3992  0.0940
 1144TIP3   OH224922   2.103   1.125   0.454 -0.1411 -0.0905 -0.3784
 1144TIP3    H124923   2.098   1.177   0.534  1.0723  0.3938 -0.6145
 1144TIP3    H224924   2.156   1.048   0.477 -2.7206 -1.7548  0.2389
 1145TIP3   OH224925   6.022   0.545  11.924 -0.0576  0.4947  0.2086
 1145TIP3    H124926   5.967   0.467  11.921  1.2119 -0.3853 -0.5506
 1145TIP3    H224927   6.011   0.585  11.838  1.6902 -0.5410 -0.5183
 1146TIP3   OH224928   6.798   4.337  13.496  0.1983  0.4196  0.5985
 1146TIP3    H124929   6.808   4.422  13.453 -1.7503  1.9097  2.9805
 1146TIP3    H224930   6.705   4.316  13.487  0.4102 -0.8494  1.1608
 1147TIP3   OH224931   3.699   4.674   0.977  0.3229  0.3075  0.2597
 1147TIP3    H124932   3.618   4.718   0.952  2.1645  2.8134 -1.4549
 1147TIP3    H224933   3.696   4.590   0.932 -0.4808  1.1529 -1.2893
 1148TIP3   OH224934   5.490   5.444   1.126 -0.1998  0.3146  0.6005
 1148TIP3    H124935   5.395   5.431   1.125  0.0919 -2.3311  2.2278
 1148TIP3    H224936   5.503   5.527   1.170 -1.8521  2.1512 -2.2353
 1149TIP3   OH224937   2.100   5.145  16.379  0.3057 -0.7749  0.2172
 1149TIP3    H124938   2.145   5.069  16.341 -0.6579 -1.2916  0.0940
 1149TIP3    H224939   2.059   5.110  16.459 -1.1832 -0.6954 -0.4861
 1150TIP3   OH224940   3.310   5.887   3.992  0.9231 -0.0009  0.5525
 1150TIP3    H124941   3.292   5.923   3.905 -1.0637 -1.9263  0.1223
 1150TIP3    H224942   3.394   5.925   4.018  0.2095  2.7314 -1.0402
 1151TIP3   OH224943   1.121   5.443   0.357  0.0223  0.5429  0.4970
 1151TIP3    H124944   1.103   5.530   0.392  1.2256  0.7870  0.5390
 1151TIP3    H224945   1.096   5.383   0.427 -2.7049  0.7343 -0.2784
 1152TIP3   OH224946   4.021   4.573  14.385 -0.1658  0.7045  0.1308
 1152TIP3    H124947   4.057   4.554  14.299  0.2834  2.2054 -0.0187
 1152TIP3    H224948   4.093   4.612  14.434 -1.0586  2.0822  0.4009
 1153TIP3   OH224949   5.589   5.186   3.786 -0.8015  0.0518 -0.3093
 1153TIP3    H124950   5.540   5.104   3.787  2.0215 -1.6902 -1.1014
 1153TIP3    H224951   5.675   5.163   3.821 -0.7531  3.2263  1.8788
 1154TIP3   OH224952   6.235   6.713   1.420 -0.3038 -0.2806  0.0269
 1154TIP3    H124953   6.208   6.792   1.467 -0.5475 -0.2416 -0.1738
 1154TIP3    H224954   6.221   6.734   1.327  0.1318 -0.3718 -0.0614
 1155TIP3   OH224955   0.828   3.685  15.408 -0.6308  0.5992  0.8100
 1155TIP3    H124956   0.915   3.666  15.373 -0.3762  1.4355  0.9676
 1155TIP3    H224957   0.840   3.766  15.459 -1.9255  1.9454 -0.9349
 1156TIP3   OH224958   6.486   6.793  11.359 -0.0754  0.0794  0.2304
 1156TIP3    H124959   6.509   6.704  11.334  0.5032  0.0901  0.7264
 1156TIP3    H224960   6.390   6.791  11.367 -0.1738 -0.2064 -0.8561
 1157TIP3   OH224961   2.547   6.729  16.415  0.5400 -0.5210  0.7462
 1157TIP3    H124962   2.552   6.722  16.319 -0.8397  0.2479  0.6004
 1157TIP3    H224963   2.519   6.643  16.444 -0.0507 -0.4638  0.3603
 1158TIP3   OH224964   3.718   6.361   4.829 -0.4491  0.0566  0.0557
 1158TIP3    H124965   3.813   6.368   4.837 -0.4121  1.1679 -1.2259
 1158TIP3    H224966   3.684   6.399   4.910  0.1717  1.0029 -0.1162
 1159TIP3   OH224967   4.343   4.964   4.236 -0.2932 -0.2005 -0.3913
 1159TIP3    H124968   4.282   4.943   4.165  0.1526  0.0519 -0.8464
 1159TIP3    H224969   4.350   4.882   4.286 -0.0010 -0.6056 -1.0911
 1160TIP3   OH224970   5.452   0.622   1.170  0.9065  0.0550  0.7899
 1160TIP3    H124971   5.478   0.603   1.080 -1.5022  0.2321  0.0415
 1160TIP3    H224972   5.475   0.543   1.218  1.9588 -0.1487 -0.0195
 1161TIP3   OH224973   0.773   2.798   3.091  0.3839 -0.1516  0.6904
 1161TIP3    H124974   0.783   2.824   2.999 -2.3496  0.3383  0.5130
 1161TIP3    H224975   0.862   2.771   3.117  1.6524  1.8013 -1.4197
 1162TIP3   OH224976   5.295   5.810  13.578  0.1712 -0.0780 -0.9538
 1162TIP3    H124977   5.291   5.893  13.530  0.0024  0.7272  0.4348
 1162TIP3    H224978   5.203   5.785  13.590  0.0962  1.3356  1.6807
 1163TIP3   OH224979   2.280   0.912  17.107  0.8704 -0.3727  0.2975
 1163TIP3    H124980   2.307   0.902  17.016  0.8369 -0.0085  0.2482
 1163TIP3    H224981   2.340   0.856  17.156  0.9048 -0.5472  0.0539
 1164TIP3   OH224982   3.866   1.621  11.539 -0.6283  0.2019  0.2216
 1164TIP3    H124983   3.888   1.626  11.446 -1.7879 -0.7613 -0.1146
 1164TIP3    H224984   3.778   1.584  11.541 -1.5257  2.3194  1.6161
 1165TIP3   OH224985   2.938   3.206   1.141 -0.9424  0.8864 -0.5466
 1165TIP3    H124986   2.997   3.169   1.206 -2.9408 -0.0590  0.7746
 1165TIP3    H224987   2.987   3.279   1.104  1.6481 -0.7960 -0.6045
 1166TIP3   OH224988   1.714   2.431  11.609 -0.3663  0.1629 -0.0578
 1166TIP3    H124989   1.652   2.396  11.672  0.9762  0.7621  1.6360
 1166TIP3    H224990   1.704   2.375  11.532 -1.1828 -1.3276  1.0976
 1167TIP3   OH224991   1.504   6.088   5.864  0.3535  0.7040 -0.1678
 1167TIP3    H124992   1.476   6.084   5.956 -0.2285 -0.0289 -0.3741
 1167TIP3    H224993   1.488   6.179   5.838 -0.7779  0.5748  0.0539
 1168TIP3   OH224994   5.817   4.710   3.792 -0.1407  0.2377  0.8272
 1168TIP3    H124995   5.819   4.779   3.725  0.4670  0.7357  1.3635
 1168TIP3    H224996   5.778   4.635   3.747  0.4654  0.5032 -0.1556
 1169TIP3   OH224997   0.018   6.656  17.005  0.0944 -0.4234 -0.4018
 1169TIP3    H124998  -0.010   6.585  17.063  0.8756  0.1315  0.6710
 1169TIP3    H224999   0.091   6.619  16.955 -0.5044 -0.8652 -0.9584
 1170TIP3   OH225000   3.779   1.441  12.310  0.5821 -0.2625  0.0089
 1170TIP3    H125001   3.709   1.388  12.350  1.8001 -1.8785  0.0562
 1170TIP3    H225002   3.733   1.503  12.254 -0.9050 -1.4625 -0.1408
 1171TIP3   OH225003   3.454   0.176  13.943  0.1715 -0.0570  0.2874
 1171TIP3    H125004   3.541   0.215  13.940  0.5468 -0.9101  0.0197
 1171TIP3    H225005   3.396   0.244  13.909  0.8318  0.2468 -0.2411
 1172TIP3   OH225006   5.839   2.791   0.761 -0.2018 -0.4025 -0.6662
 1172TIP3    H125007   5.754   2.794   0.805 -0.6574  0.9111 -1.6007
 1172TIP3    H225008   5.898   2.752   0.825 -1.2565 -0.2647  0.4075
 1173TIP3   OH225009   0.879   1.412  16.415 -0.0873  0.0344  0.1197
 1173TIP3    H125010   0.790   1.404  16.381  0.2250  0.9449 -0.9433
 1173TIP3    H225011   0.881   1.354  16.492 -1.6489  0.1813  0.2824
 1174TIP3   OH225012   6.651   1.384   2.673 -0.2173  0.0908  0.2066
 1174TIP3    H125013   6.639   1.304   2.724 -1.0579  1.5924  2.4646
 1174TIP3    H225014   6.658   1.453   2.739  1.6981  1.7339 -1.6692
 1175TIP3   OH225015   2.289   5.452   5.636  0.2456  0.1182  0.2593
 1175TIP3    H125016   2.326   5.421   5.553 -0.2239  0.1431  0.0380
 1175TIP3    H225017   2.339   5.405   5.703 -0.0995 -0.7203 -0.0606
 1176TIP3   OH225018   6.549   3.611  16.653  0.1245 -0.0950  0.2592
 1176TIP3    H125019   6.522   3.589  16.564  0.2864  0.4145  0.0808
 1176TIP3    H225020   6.614   3.544  16.676 -0.0697 -0.3452  0.0706
 1177TIP3   OH225021   2.087   2.707   2.793 -0.0290 -0.5851  0.6871
 1177TIP3    H125022   2.095   2.613   2.810  0.9568 -0.2555  2.1591
 1177TIP3    H225023   2.081   2.747   2.880 -0.9698  0.6751  0.0569
 1178TIP3   OH225024   1.396   3.812  13.185  0.0495 -0.5457  0.0922
 1178TIP3    H125025   1.434   3.788  13.100  0.3648  1.8480 -0.4837
 1178TIP3    H225026   1.315   3.858  13.163 -0.0555 -0.2216  1.1180
 1179TIP3   OH225027   5.396   1.049   3.088 -0.7796 -0.2369 -0.0223
 1179TIP3    H125028   5.320   1.069   3.034 -1.4682 -2.2911  0.1309
 1179TIP3    H225029   5.398   0.954   3.092  0.4587 -0.1660  1.8746
 1180TIP3   OH225030   3.753   6.504   3.774  0.0262 -0.0349 -0.0669
 1180TIP3    H125031   3.804   6.427   3.800  1.5617  0.3412 -1.8081
 1180TIP3    H225032   3.723   6.542   3.856  0.9602 -1.3708  0.9095
 1181TIP3   OH225033   4.497   2.851   4.259 -0.2293  0.1485 -0.4917
 1181TIP3    H125034   4.563   2.883   4.198  0.8841 -0.4370  0.3687
 1181TIP3    H225035   4.448   2.930   4.285  1.8363  1.0348  0.8539
 1182TIP3   OH225036   5.325   5.630   1.822 -0.2524 -0.6737  0.1531
 1182TIP3    H125037   5.340   5.621   1.728 -0.8913 -0.7202  0.0552
 1182TIP3    H225038   5.380   5.704   1.849 -2.0508  1.0298 -0.7341
 1183TIP3   OH225039   1.424   4.397  14.435  0.3135 -0.2707  0.0064
 1183TIP3    H125040   1.380   4.313  14.448 -0.5185  0.3177  1.1065
 1183TIP3    H225041   1.418   4.440  14.520  1.6392  0.4845 -0.2684
 1184TIP3   OH225042   3.673   3.171   0.373 -0.0062 -0.3255  0.2765
 1184TIP3    H125043   3.660   3.111   0.445 -1.0685 -0.3819  0.0418
 1184TIP3    H225044   3.644   3.256   0.406  0.5067 -0.1388  0.2617
 1185TIP3   OH225045   0.081   3.476  14.978  0.4313 -0.1789  0.3880
 1185TIP3    H125046   0.084   3.571  14.969 -0.2560 -0.0343  1.5945
 1185TIP3    H225047   0.169   3.446  14.955  0.6167  0.7420 -0.0971
 1186TIP3   OH225048   5.550   3.117  13.810 -0.2654 -0.0993 -0.5764
 1186TIP3    H125049   5.456   3.114  13.828 -0.4774  2.6843 -1.0001
 1186TIP3    H225050   5.557   3.170  13.731  1.6247 -0.7833 -0.8727
 1187TIP3   OH225051   2.763   2.378  14.851  0.2642 -0.4352  0.5500
 1187TIP3    H125052   2.857   2.362  14.853  0.4121  0.4689  1.3185
 1187TIP3    H225053   2.754   2.460  14.802 -0.1520 -0.7058  0.1702
 1188TIP3   OH225054   0.134   5.582   5.583  0.3731 -0.3963 -0.7006
 1188TIP3    H125055   0.086   5.515   5.535 -0.5497 -0.5785  0.4607
 1188TIP3    H225056   0.212   5.537   5.616  0.3868 -0.5763 -0.9802
 1189TIP3   OH225057   6.614   1.667   2.777  0.3141 -0.1356  0.1308
 1189TIP3    H125058   6.529   1.663   2.732  0.2288 -3.1315  0.4410
 1189TIP3    H225059   6.591   1.683   2.869  0.1791  0.4418  0.0012
 1190TIP3   OH225060   0.170   0.922   1.259  0.4001 -0.0930 -0.3534
 1190TIP3    H125061   0.116   0.919   1.180 -0.8367 -0.5443  0.5011
 1190TIP3    H225062   0.249   0.970   1.232 -0.7175  1.1800 -1.4262
 1191TIP3   OH225063   6.459   6.198  14.572 -0.2576  0.2876 -0.1755
 1191TIP3    H125064   6.553   6.186  14.555  0.5066  2.0897  2.4228
 1191TIP3    H225065   6.420   6.204  14.485  2.2071  0.7375 -1.3130
 1192TIP3   OH225066   1.062   5.100   4.427 -0.3392  1.0912 -0.1643
 1192TIP3    H125067   1.152   5.087   4.456 -0.0096 -0.5649 -1.8054
 1192TIP3    H225068   1.015   5.129   4.505  1.2769  0.3677  1.1019
 1193TIP3   OH225069   5.485   6.590   0.565 -0.2546 -0.1565  0.2163
 1193TIP3    H125070   5.564   6.594   0.619 -0.4751 -0.3703  0.5563
 1193TIP3    H225071   5.413   6.597   0.628 -0.5167 -0.7595 -0.0156
 1194TIP3   OH225072   6.182   5.476  16.824  0.3518 -0.3915  0.1428
 1194TIP3    H125073   6.162   5.525  16.744 -0.4309  1.1300  1.2452
 1194TIP3    H225074   6.110   5.497  16.884  0.5021 -2.1538  0.9900
 1195TIP3   OH225075   4.479   0.295  15.339  0.2622 -0.2569 -0.5484
 1195TIP3    H125076   4.489   0.389  15.356  0.5226 -0.4875  0.6316
 1195TIP3    H225077   4.470   0.289  15.244  1.0271  0.8936 -0.7069
 1196TIP3   OH225078   5.332   2.768  12.719  0.1675 -0.4152  0.4621
 1196TIP3    H125079   5.239   2.782  12.736  0.3363 -0.1972  1.2152
 1196TIP3    H225080   5.338   2.762  12.624 -0.3529  1.3895  0.3071
 1197TIP3   OH225081   0.681   3.081  13.205  0.2367  0.1622  0.1699
 1197TIP3    H125082   0.701   3.168  13.238  1.7756  0.2762 -1.0126
 1197TIP3    H225083   0.605   3.095  13.147  0.1219  0.6211  0.4305
 1198TIP3   OH225084   5.174   5.259   1.480 -0.3405 -0.0381  0.6702
 1198TIP3    H125085   5.117   5.334   1.495 -0.4496 -0.2671  1.3742
 1198TIP3    H225086   5.122   5.183   1.504  0.8873 -0.1390  3.1136
 1199TIP3   OH225087   0.371   6.303   4.659  0.4352  0.8774 -0.4993
 1199TIP3    H125088   0.289   6.270   4.697  0.4091 -0.7131 -1.8960
 1199TIP3    H225089   0.433   6.302   4.732 -0.4089  0.7474  0.2264
 1200TIP3   OH225090   6.065   4.610   1.308 -0.2598  0.4023  0.4968
 1200TIP3    H125091   6.152   4.649   1.299 -1.8804  4.1433  0.4576
 1200TIP3    H225092   6.055   4.597   1.403  0.5931 -0.7423  0.4455
 1201TIP3   OH225093   6.320   3.943   3.494  0.2990 -0.5337 -0.7237
 1201TIP3    H125094   6.316   4.039   3.502  0.1753 -0.6835  1.0315
 1201TIP3    H225095   6.402   3.926   3.449  0.4160  0.3815 -0.8711
 1202TIP3   OH225096   3.638   6.410   0.950 -0.0687  0.7231  0.1578
 1202TIP3    H125097   3.690   6.376   0.878  0.7400  1.1235  0.5527
 1202TIP3    H225098   3.554   6.434   0.910 -0.0872 -0.2618 -0.4053
 1203TIP3   OH225099   4.295   6.810   5.015 -0.0309 -0.3042  0.3150
 1203TIP3    H125100   4.261   6.728   5.051  1.2155 -0.9582  0.0362
 1203TIP3    H225101   4.291   6.797   4.920  0.3991 -0.1430  0.2761
 1204TIP3   OH225102   0.072   0.374   4.564  0.6067  0.0395  0.6190
 1204TIP3    H125103   0.011   0.332   4.624 -0.5649  1.2261  0.2857
 1204TIP3    H225104   0.150   0.319   4.566 -0.0680 -0.8865  1.8925
 1205TIP3   OH225105   1.001   4.043   4.779  0.6152  0.0795 -0.1875
 1205TIP3    H125106   1.083   4.072   4.739  0.0290  1.0424 -0.6989
 1205TIP3    H225107   1.010   3.948   4.784  2.7321  0.3316  1.8984
 1206TIP3   OH225108   6.347   6.024   0.072 -0.2656  0.3202 -0.1509
 1206TIP3    H125109   6.392   6.068   0.144 -0.7103 -0.4857  0.6314
 1206TIP3    H225110   6.298   6.094   0.028  0.7423  0.9796 -0.2454
 1207TIP3   OH225111   4.532   5.193  12.201  0.1610 -0.5577  0.2549
 1207TIP3    H125112   4.595   5.255  12.239  0.9863 -1.0211 -0.3347
 1207TIP3    H225113   4.475   5.248  12.147 -0.1797 -0.0815  1.0970
 1208TIP3   OH225114   3.791   6.423   1.608  0.5147 -0.3075  0.5022
 1208TIP3    H125115   3.781   6.411   1.702 -1.6838 -1.4120  0.1656
 1208TIP3    H225116   3.784   6.335   1.571 -1.6915  0.3814 -0.8919
 1209TIP3   OH225117   3.809   6.419  12.351 -0.0026  0.0915 -0.4199
 1209TIP3    H125118   3.846   6.372  12.276  0.2241  1.0963 -0.9330
 1209TIP3    H225119   3.884   6.458  12.395  0.0704 -1.9411  1.3542
 1210TIP3   OH225120   0.213   6.642   3.177 -0.2178 -0.5174  0.4349
 1210TIP3    H125121   0.220   6.584   3.253 -0.3692 -0.9018  0.1543
 1210TIP3    H225122   0.298   6.635   3.133  0.2171  0.4495  1.1023
 1211TIP3   OH225123   6.316   6.102   4.161  0.1726  0.1299  0.3339
 1211TIP3    H125124   6.396   6.070   4.203 -0.6949  1.1119  2.8029
 1211TIP3    H225125   6.298   6.038   4.092  1.3795 -1.7814  1.7555
 1212TIP3   OH225126   1.520   6.450  11.900 -0.0194  0.3490  0.1528
 1212TIP3    H125127   1.465   6.510  11.951  2.5217  2.2929  0.7589
 1212TIP3    H225128   1.491   6.461  11.810 -0.4628  1.5390  0.4331
 1213TIP3   OH225129   4.823   6.360   1.006 -0.0011 -0.0122 -0.2547
 1213TIP3    H125130   4.728   6.368   1.010  0.0735  2.0283 -2.1165
 1213TIP3    H225131   4.854   6.410   1.082 -0.4377 -2.1318  1.3710
 1214TIP3   OH225132   6.169   0.576   4.605 -0.1880 -0.0290  0.4015
 1214TIP3    H125133   6.119   0.649   4.568  0.1613 -0.8005 -1.6834
 1214TIP3    H225134   6.259   0.594   4.577  0.0474 -0.7365  0.7232
 1215TIP3   OH225135   2.909   3.826   1.983  0.2776 -0.3079  0.0802
 1215TIP3    H125136   2.856   3.837   1.904  0.4408  0.6628  0.0968
 1215TIP3    H225137   2.993   3.867   1.961  0.1881  0.3118  0.8810
 1216TIP3   OH225138   2.694   1.612  13.589 -0.1441 -0.2285  0.3521
 1216TIP3    H125139   2.650   1.682  13.540 -0.1413 -1.0876 -0.9055
 1216TIP3    H225140   2.684   1.535  13.534  1.0114 -0.9269  1.1056
 1217TIP3   OH225141   5.816   6.542   1.653 -0.5106  0.4193  0.1515
 1217TIP3    H125142   5.897   6.517   1.698 -0.7430  0.7497  0.7638
 1217TIP3    H225143   5.765   6.461   1.648  0.6946 -0.2465 -2.0349
 1218TIP3   OH225144   0.702   1.497  13.201  0.2831  0.6325 -0.2629
 1218TIP3    H125145   0.690   1.463  13.112 -1.1210  0.1155  0.1202
 1218TIP3    H225146   0.796   1.514  13.207  1.0368 -3.0110 -0.5556
 1219TIP3   OH225147   4.930   5.286   5.209 -0.2946  0.7679  1.2053
 1219TIP3    H125148   4.860   5.222   5.199 -0.9655  1.4581  1.4634
 1219TIP3    H225149   4.973   5.262   5.291 -0.1429  0.2661  0.9810
 1220TIP3   OH225150   3.192   2.313   4.922 -0.5354 -0.2433  0.2115
 1220TIP3    H125151   3.242   2.383   4.881 -1.8393  0.1362 -0.7504
 1220TIP3    H225152   3.111   2.354   4.951 -0.9035 -1.1460  0.5048
 1221TIP3   OH225153   0.469   3.757  16.955  0.2754  0.3822  0.1149
 1221TIP3    H125154   0.458   3.852  16.961 -2.1288 -0.0315  3.6107
 1221TIP3    H225155   0.393   3.726  16.906 -0.3050  0.0168  1.2374
 1222TIP3   OH225156   4.575   0.856  12.652  0.5963 -0.2780  0.1081
 1222TIP3    H125157   4.559   0.948  12.632  0.6357 -0.2318  0.2852
 1222TIP3    H225158   4.506   0.832  12.714 -0.0897 -0.6806 -0.7983
 1223TIP3   OH225159   4.654   2.617   0.579 -0.2757 -0.1357  0.0012
 1223TIP3    H125160   4.716   2.672   0.626  0.0680 -0.2409 -0.3291
 1223TIP3    H225161   4.605   2.678   0.524 -0.8539  0.0198  0.6893
 1224TIP3   OH225162   1.997   5.144  13.767  0.5270  0.7005 -0.8760
 1224TIP3    H125163   1.910   5.116  13.738  0.5622 -2.4442  1.7492
 1224TIP3    H225164   2.056   5.111  13.698 -0.0840  0.1145 -1.1302
 1225TIP3   OH225165   2.130   2.913   5.539  0.4187  0.0168 -0.3218
 1225TIP3    H125166   2.157   2.869   5.459  0.7834 -0.0132 -0.1850
 1225TIP3    H225167   2.212   2.931   5.585  0.3995  2.0834 -1.0300
 1226TIP3   OH225168   3.527   4.560  14.873  0.5746  0.3925 -0.0094
 1226TIP3    H125169   3.509   4.470  14.844  1.1941  0.9842 -2.2995
 1226TIP3    H225170   3.442   4.592  14.905  0.3603 -1.0044  0.8827
 1227TIP3   OH225171   2.132   4.309  10.769 -0.0623  0.0331  0.0886
 1227TIP3    H125172   2.174   4.356  10.696 -0.1270  0.3721  0.2683
 1227TIP3    H225173   2.100   4.379  10.826 -5.6243  0.0361 -2.6408
 1228TIP3   OH225174   0.456   4.438   2.895  0.7783 -0.2543 -0.4222
 1228TIP3    H125175   0.382   4.468   2.948 -0.7796 -1.8827 -1.6516
 1228TIP3    H225176   0.472   4.348   2.925  3.1359  0.5072  0.7578
 1229TIP3   OH225177   0.681   2.564  11.091  0.2808 -0.3191  0.3138
 1229TIP3    H125178   0.693   2.469  11.092 -2.5891 -0.7288  1.0243
 1229TIP3    H225179   0.598   2.578  11.135  0.3495  2.4935 -0.3494
 1230TIP3   OH225180   6.636   0.709   2.314  0.0051  0.2581  0.2580
 1230TIP3    H125181   6.682   0.791   2.329  0.1374 -0.2460  2.7620
 1230TIP3    H225182   6.589   0.722   2.231  0.3838  2.6603  0.4058
 1231TIP3   OH225183   3.167   2.468   3.564  0.3173  0.1695  0.4444
 1231TIP3    H125184   3.225   2.533   3.523  0.3254  0.5781  1.0997
 1231TIP3    H225185   3.116   2.518   3.627 -0.1045 -0.3584  0.5193
 1232TIP3   OH225186   5.527   1.921  11.631  0.5165 -0.3711 -0.5070
 1232TIP3    H125187   5.436   1.913  11.602  0.6531  0.4637 -1.1819
 1232TIP3    H225188   5.536   2.013  11.656  1.3537 -0.3125 -1.0177
 1233TIP3   OH225189   1.347   0.289   1.951 -0.5894  0.5341  0.0254
 1233TIP3    H125190   1.269   0.294   2.006 -0.1777  2.8906  0.4431
 1233TIP3    H225191   1.317   0.319   1.865 -0.9448 -1.9781 -0.7671
 1234TIP3   OH225192   3.470   2.857   4.449  0.6158 -0.0052 -0.3179
 1234TIP3    H125193   3.505   2.945   4.439  1.0730 -0.1863 -0.3521
 1234TIP3    H225194   3.468   2.842   4.544 -2.1582  1.0963 -0.1495
 1235TIP3   OH225195   4.924   0.110  14.367  0.2582  0.3710 -0.3864
 1235TIP3    H125196   4.942   0.161  14.446  2.8687 -0.1340 -0.6174
 1235TIP3    H225197   4.844   0.149  14.331 -0.6322  0.9851  2.1672
 1236TIP3   OH225198   6.128   2.909   2.054  0.2557  0.1655  0.0710
 1236TIP3    H125199   6.121   2.886   1.961  1.0272  0.5301 -0.0781
 1236TIP3    H225200   6.219   2.937   2.065  0.7371 -1.8291  1.3907
 1237TIP3   OH225201   0.232   1.276   3.254 -0.4834  0.3967  0.4679
 1237TIP3    H125202   0.150   1.243   3.218 -0.3475  0.8451 -0.2505
 1237TIP3    H225203   0.255   1.351   3.199  2.3888 -2.0383 -1.7969
 1238TIP3   OH225204   1.567   2.779   6.489 -0.1987  0.0134 -0.3833
 1238TIP3    H125205   1.541   2.692   6.519  0.2400 -0.5318 -1.5397
 1238TIP3    H225206   1.662   2.780   6.499  0.0248 -0.3960 -2.2475
 1239TIP3   OH225207   4.422   3.871  13.086 -0.3762  0.2357 -0.4562
 1239TIP3    H125208   4.380   3.811  13.147  0.0618  1.0098  0.6215
 1239TIP3    H225209   4.401   3.958  13.119 -0.4442  0.6815 -1.6191
 1240TIP3   OH225210   0.009   5.971  13.954 -0.3084 -0.0412  0.4289
 1240TIP3    H125211   0.092   5.925  13.943  0.6908  1.6845  0.4656
 1240TIP3    H225212   0.029   6.062  13.931 -2.5242  0.1459 -0.8624
 1241TIP3   OH225213   1.203   3.350  13.639 -0.4460  0.4220 -0.1068
 1241TIP3    H125214   1.237   3.279  13.585  0.3938  1.9770 -1.6491
 1241TIP3    H225215   1.207   3.427  13.583 -0.4507  1.8846  1.8739
 1242TIP3   OH225216   4.886   1.178  14.639  0.4988  0.3605 -0.3311
 1242TIP3    H125217   4.958   1.242  14.636 -0.2849  1.2495 -0.3747
 1242TIP3    H225218   4.842   1.197  14.722 -1.3622  1.6800 -1.5820
 1243TIP3   OH225219   5.611   6.434  12.553 -0.0564 -0.1182 -0.0520
 1243TIP3    H125220   5.641   6.402  12.468 -0.2056  0.4157 -0.3025
 1243TIP3    H225221   5.625   6.359  12.612  2.1204  0.2315 -0.0721
 1244TIP3   OH225222   2.198   3.545  12.281  0.1380 -0.5619 -0.2771
 1244TIP3    H125223   2.147   3.478  12.327  0.7128 -0.7266  0.1153
 1244TIP3    H225224   2.283   3.504  12.266  0.1031 -0.3460 -1.0839
 1245TIP3   OH225225   2.266   3.262   3.682  0.2893  0.6501  0.3314
 1245TIP3    H125226   2.191   3.319   3.695 -1.3316 -1.1118 -0.9972
 1245TIP3    H225227   2.255   3.192   3.746 -0.6913 -1.0242 -1.5854
 1246TIP3   OH225228   5.771   0.721   2.944  0.7900 -0.2435 -0.7295
 1246TIP3    H125229   5.710   0.654   2.914  0.0863 -0.0944  0.3200
 1246TIP3    H225230   5.825   0.741   2.868 -0.8044 -0.0120 -1.8263
 1247TIP3   OH225231   1.296   4.296   5.702 -0.1812 -0.0850  0.1250
 1247TIP3    H125232   1.340   4.212   5.713 -0.0965  0.0760  1.1407
 1247TIP3    H225233   1.209   4.274   5.670 -0.0710 -0.5470  0.1441
 1248TIP3   OH225234   2.011   0.841  16.056  0.1426  0.4104  0.2186
 1248TIP3    H125235   1.989   0.763  16.107  0.6908  0.6434  0.8206
 1248TIP3    H225236   1.938   0.851  15.995  0.8230 -1.4661 -0.9547
 1249TIP3   OH225237   4.495   5.306  16.430 -0.3451  0.0224  0.0163
 1249TIP3    H125238   4.434   5.274  16.363 -0.7089  1.0065 -0.1263
 1249TIP3    H225239   4.490   5.401  16.424 -0.5360  0.1300  1.5849
 1250TIP3   OH225240   0.552   4.564  16.713 -0.5709  0.4976  0.0578
 1250TIP3    H125241   0.630   4.560  16.769 -0.7999  1.2060  0.4296
 1250TIP3    H225242   0.485   4.605  16.768 -1.2704 -0.3172 -0.1852
 1251TIP3   OH225243   6.782   2.284  12.699  0.1964 -0.0317 -0.0718
 1251TIP3    H125244   6.831   2.227  12.758 -1.6437 -1.0695  0.5089
 1251TIP3    H225245   6.823   2.370  12.708  2.3007 -1.0193 -0.1118
 1252TIP3   OH225246   3.255   6.118   2.677 -0.4709  0.2190  0.1320
 1252TIP3    H125247   3.228   6.097   2.767 -2.3293 -0.4993 -0.5499
 1252TIP3    H225248   3.178   6.161   2.639 -0.4344 -1.2803 -1.7049
 1253TIP3   OH225249   4.797   0.899  13.996  0.2872  0.1812  0.1194
 1253TIP3    H125250   4.868   0.862  14.049  1.4785  0.0091 -1.5441
 1253TIP3    H225251   4.818   0.872  13.906 -1.5198  0.7298 -0.4832
 1254TIP3   OH225252   0.672   1.347  11.837 -0.1126 -0.0924 -0.1625
 1254TIP3    H125253   0.712   1.273  11.792 -0.1406 -0.2869  0.1260
 1254TIP3    H225254   0.671   1.418  11.773  0.0044 -0.3137 -0.4066
 1255TIP3   OH225255   0.580   4.259   3.141  0.1694  0.1437 -0.6288
 1255TIP3    H125256   0.631   4.251   3.060  1.1970  1.2959 -0.1063
 1255TIP3    H225257   0.490   4.238   3.114  0.4896  0.5547 -2.0885
 1256TIP3   OH225258   3.917   0.152  15.161  0.6201  0.1378 -0.7005
 1256TIP3    H125259   3.921   0.247  15.176 -0.8542 -0.3229  3.0859
 1256TIP3    H225260   3.986   0.116  15.216 -1.9500 -1.3053  1.7090
 1257TIP3   OH225261   4.740   6.096   4.529 -0.3457 -0.6967  0.2833
 1257TIP3    H125262   4.707   6.048   4.453 -1.7494 -0.7809  0.9352
 1257TIP3    H225263   4.827   6.126   4.502 -1.3164  0.3461 -1.8107
 1258TIP3   OH225264   0.452   2.661   5.531  0.8619  0.7566 -0.1042
 1258TIP3    H125265   0.446   2.638   5.438 -0.3199  1.2733 -0.1748
 1258TIP3    H225266   0.373   2.622   5.570  1.1796  0.8322  0.6116
 1259TIP3   OH225267   1.822   3.787   3.987 -0.3348 -0.1364 -0.0987
 1259TIP3    H125268   1.823   3.693   3.966 -0.7543  0.2211 -1.8041
 1259TIP3    H225269   1.750   3.796   4.050  1.0578 -1.2672  1.6874
 1260TIP3   OH225270   4.827   4.789   0.067  0.3293 -0.2831  0.7885
 1260TIP3    H125271   4.891   4.723   0.043  0.1045  0.2809 -1.4506
 1260TIP3    H225272   4.880   4.861   0.103  0.9158 -0.0706 -0.4745
 1261TIP3   OH225273   0.205   2.186   0.451 -0.2148  0.8973  0.1809
 1261TIP3    H125274   0.222   2.259   0.391  2.0309  1.0874  1.0069
 1261TIP3    H225275   0.196   2.227   0.537  2.5552  0.1300  0.8918
 1262TIP3   OH225276   5.247   0.898  16.364  0.0010  0.1614  0.2437
 1262TIP3    H125277   5.333   0.934  16.386  0.1497 -0.3293  0.4747
 1262TIP3    H225278   5.255   0.804  16.382  0.1157 -0.2483 -1.8912
 1263TIP3   OH225279   6.444   5.143   2.558  0.0736 -0.8191 -0.0369
 1263TIP3    H125280   6.361   5.100   2.578 -1.0528  0.0937 -2.5383
 1263TIP3    H225281   6.422   5.236   2.553  1.0646 -0.6364 -1.4656
 1264TIP3   OH225282   3.366   0.430  14.741  0.1311 -0.4163  0.2544
 1264TIP3    H125283   3.361   0.520  14.772 -0.1618 -1.2235  2.6094
 1264TIP3    H225284   3.282   0.391  14.765  0.5162 -1.5096 -0.1288
 1265TIP3   OH225285   3.669   6.726  13.552 -0.2586 -0.4479 -0.3916
 1265TIP3    H125286   3.621   6.654  13.511  0.9305 -1.5420  0.1090
 1265TIP3    H225287   3.682   6.697  13.642 -2.5538  1.7898  0.7105
 1266TIP3   OH225288   0.915   6.044  14.504 -0.0935 -0.1701  0.0685
 1266TIP3    H125289   0.894   6.082  14.419  0.8504  2.0073  0.7856
 1266TIP3    H225290   0.998   5.999  14.490 -0.3530 -0.5287 -0.3528
 1267TIP3   OH225291   1.132   5.727  15.243  0.0431  0.0854 -0.4667
 1267TIP3    H125292   1.064   5.719  15.176 -0.6622 -0.0959  0.2481
 1267TIP3    H225293   1.178   5.808  15.222  0.7481 -0.7065 -1.9862
 1268TIP3   OH225294   6.150   3.882   3.728  0.2483 -0.2153 -0.1470
 1268TIP3    H125295   6.110   3.806   3.684 -0.7134 -0.5185  1.2149
 1268TIP3    H225296   6.184   3.936   3.656  1.8488 -2.4137 -1.0938
 1269TIP3   OH225297   0.189   0.061   3.894 -0.1174  0.5320  0.5234
 1269TIP3    H125298   0.184   0.094   3.984  1.7131 -0.3313  0.9771
 1269TIP3    H225299   0.282   0.065   3.873 -0.7819  2.8835 -2.1789
 1270TIP3   OH225300   1.500   2.620  13.498 -0.4294 -0.4425 -0.6174
 1270TIP3    H125301   1.514   2.590  13.588 -1.5764 -1.7480 -0.8592
 1270TIP3    H225302   1.413   2.660  13.499  1.4440  4.0005 -0.0583
 1271TIP3   OH225303   4.757   1.292  12.984  0.0631 -0.5686  0.1784
 1271TIP3    H125304   4.698   1.363  13.008 -1.0930 -2.3580  2.9312
 1271TIP3    H225305   4.829   1.298  13.047  0.4841 -1.1918 -0.2339
 1272TIP3   OH225306   4.652   6.245  13.193  0.0722  0.3190  0.1094
 1272TIP3    H125307   4.731   6.191  13.187 -0.1101  0.2283 -1.7251
 1272TIP3    H225308   4.655   6.302  13.116 -2.0603 -0.2575 -0.4483
 1273TIP3   OH225309   4.764   2.668  11.674  0.7350  0.6996 -0.3628
 1273TIP3    H125310   4.835   2.610  11.648  1.7366  1.6251  0.2903
 1273TIP3    H225311   4.799   2.719  11.746 -2.0136 -1.9050  3.0002
 1274TIP3   OH225312   0.332   1.912   1.284  1.0000  0.2248 -0.0472
 1274TIP3    H125313   0.424   1.906   1.258  0.5271 -1.1547 -1.5160
 1274TIP3    H225314   0.296   1.981   1.228  0.8008 -0.2972 -0.5719
 1275TIP3   OH225315   0.703   2.152  14.997 -0.1198 -0.0123 -0.1632
 1275TIP3    H125316   0.727   2.060  15.009  0.9103  0.1195 -1.1361
 1275TIP3    H225317   0.762   2.201  15.055 -0.4084  0.0604  0.0697
 1276TIP3   OH225318   1.652   6.376  12.129  0.2248  0.0801  0.5510
 1276TIP3    H125319   1.629   6.287  12.105  3.0904 -0.3186 -1.0166
 1276TIP3    H225320   1.635   6.428  12.050  0.0892  0.6276  0.9344
 1277TIP3   OH225321   1.007   1.991   2.583  0.5111  0.1390 -0.8895
 1277TIP3    H125322   0.972   1.961   2.667  1.0257  0.0901 -0.6917
 1277TIP3    H225323   0.931   2.022   2.535  0.4558  1.9106  0.3184
 1278TIP3   OH225324   3.994   1.346   3.531 -0.3098 -0.0071 -0.0078
 1278TIP3    H125325   3.998   1.428   3.581 -2.0484 -0.7302  1.3882
 1278TIP3    H225326   3.935   1.366   3.458 -1.5826 -0.2802  0.9215
 1279TIP3   OH225327   6.813   4.763  10.844  0.0687  0.2942  1.3171
 1279TIP3    H125328   6.893   4.799  10.804 -1.9942  0.0924 -3.3170
 1279TIP3    H225329   6.772   4.838  10.886 -0.0279  1.6677 -1.1100
 1280TIP3   OH225330   3.999   1.235  16.365  0.1495 -0.3022  0.0779
 1280TIP3    H125331   3.962   1.147  16.377  0.2710 -0.8702 -3.3807
 1280TIP3    H225332   4.091   1.219  16.342 -0.1811  0.6360 -1.9916
 1281TIP3   OH225333   3.494   5.135  10.946  0.0490 -0.3380  0.2608
 1281TIP3    H125334   3.527   5.086  10.871 -2.7770  0.6600 -1.7034
 1281TIP3    H225335   3.429   5.078  10.986 -1.3552  0.7443 -0.4650
 1282TIP3   OH225336   4.619   1.315  13.808  0.1131 -0.2949  1.1074
 1282TIP3    H125337   4.691   1.353  13.756 -1.1604 -0.9869 -1.2204
 1282TIP3    H225338   4.551   1.382  13.807  0.3119 -0.0673  2.4229
 1283TIP3   OH225339   1.373   4.981   4.257  0.3251  0.6530 -0.0973
 1283TIP3    H125340   1.339   5.031   4.183 -0.8756  1.8202  1.2121
 1283TIP3    H225341   1.444   4.930   4.220 -0.6799  0.7039 -2.2067
 1284TIP3   OH225342   5.466   0.669   0.261 -0.0656  0.1126 -0.0949
 1284TIP3    H125343   5.476   0.576   0.279 -0.9133  0.1325  0.4803
 1284TIP3    H225344   5.454   0.673   0.166  0.4721 -0.3161 -0.1844
 1285TIP3   OH225345   2.714   1.331  12.978  0.1170 -0.4138  0.4536
 1285TIP3    H125346   2.666   1.282  13.045  0.5340  0.8293  1.7002
 1285TIP3    H225347   2.792   1.278  12.962  0.7320 -0.0271  2.0343
 1286TIP3   OH225348   0.203   0.107  14.526  0.1969  0.1418  0.0159
 1286TIP3    H125349   0.204   0.036  14.462 -0.0114  0.3357 -0.1994
 1286TIP3    H225350   0.246   0.181  14.482  1.0379 -0.0551  0.4747
 1287TIP3   OH225351   1.828   5.640  12.355  0.2836  0.5709  0.2208
 1287TIP3    H125352   1.791   5.587  12.284 -1.1512  1.2600  0.4368
 1287TIP3    H225353   1.865   5.577  12.416  1.1554 -0.0487 -0.9394
 1288TIP3   OH225354   1.538   2.181  12.195  0.2887 -0.3703 -0.1181
 1288TIP3    H125355   1.577   2.101  12.230 -0.1776 -0.6698 -0.2949
 1288TIP3    H225356   1.450   2.156  12.168  0.0112  0.2836  0.1593
 1289TIP3   OH225357   2.550   3.003   4.351 -0.2207  0.0298  0.1443
 1289TIP3    H125358   2.479   2.945   4.324  0.1650 -1.4411  2.1773
 1289TIP3    H225359   2.517   3.048   4.428  1.6723 -2.0919  2.2831
 1290TIP3   OH225360   6.155   0.028  11.633 -0.3172 -0.1436 -0.1142
 1290TIP3    H125361   6.082  -0.034  11.642 -2.0187  1.4806 -1.9627
 1290TIP3    H225362   6.128   0.104  11.685  0.6140  0.0152  0.1451
 1291TIP3   OH225363   3.876   3.148   4.628 -0.1130  0.2699  0.1185
 1291TIP3    H125364   3.927   3.229   4.635  0.2074  0.0004  1.0183
 1291TIP3    H225365   3.924   3.094   4.565  0.2878  0.3280  0.3768
 1292TIP3   OH225366   0.804   6.248  11.695  0.3297  0.3931  0.1296
 1292TIP3    H125367   0.874   6.210  11.641 -0.4361 -0.7517 -0.0722
 1292TIP3    H225368   0.793   6.336  11.659  0.4216 -0.0536 -1.0322
 1293TIP3   OH225369   6.819   1.565   6.010  0.0202 -0.3692 -0.1479
 1293TIP3    H125370   6.804   1.650   6.053  1.1250  0.0378 -0.5593
 1293TIP3    H225371   6.779   1.575   5.924 -1.4841 -0.9083  0.4784
 1294TIP3   OH225372   2.200   1.274  16.887  0.1721 -0.2144  0.5717
 1294TIP3    H125373   2.280   1.316  16.920 -0.5752  0.3637  1.7035
 1294TIP3    H225374   2.175   1.213  16.957  0.5383 -1.6367 -0.5094
 1295TIP3   OH225375   1.532   4.493   0.351  0.4486  0.0225 -0.2848
 1295TIP3    H125376   1.556   4.403   0.375 -1.1871 -0.2655  0.2916
 1295TIP3    H225377   1.615   4.532   0.324  0.8330 -2.2703 -2.5899
 1296TIP3   OH225378   1.222   5.917   4.750 -0.5302  0.1899  0.7071
 1296TIP3    H125379   1.275   5.886   4.824 -0.7262  0.8766  1.1330
 1296TIP3    H225380   1.282   5.915   4.676  0.0003  0.6325  1.1196
 1297TIP3   OH225381   4.343   3.416   4.274  0.3335 -0.0450  0.4134
 1297TIP3    H125382   4.263   3.370   4.300  1.0721 -0.6164  1.7149
 1297TIP3    H225383   4.370   3.372   4.193 -1.1217  0.7178 -0.5082
 1298TIP3   OH225384   2.470   1.102  14.073  0.4212  0.4519 -0.2979
 1298TIP3    H125385   2.443   1.031  14.015 -1.8386 -0.6060  1.9505
 1298TIP3    H225386   2.554   1.072  14.109  0.6888  0.0567 -1.2526
 1299TIP3   OH225387   4.258   4.503  14.607 -0.1734 -0.1797 -0.0196
 1299TIP3    H125388   4.307   4.527  14.686 -1.3524  0.7541  0.4399
 1299TIP3    H225389   4.268   4.578  14.549 -0.3466 -0.3422 -0.2628
 1300TIP3   OH225390   3.231   2.365  14.341  0.4849 -0.1724  0.0383
 1300TIP3    H125391   3.139   2.338  14.346  0.2815  0.5036  0.0494
 1300TIP3    H225392   3.268   2.310  14.272  0.5193 -1.6985  1.2672
 1301TIP3   OH225393   5.634   0.638  12.808 -0.1577 -0.3655  0.4273
 1301TIP3    H125394   5.619   0.600  12.894  0.7664 -0.7403  0.4310
 1301TIP3    H225395   5.562   0.605  12.753 -0.6519 -0.2547  1.0102
 1302TIP3   OH225396   5.080   2.618   0.026  0.3424  0.3546  0.1815
 1302TIP3    H125397   5.039   2.548   0.076  0.9122  0.4658  0.8070
 1302TIP3    H225398   5.174   2.601   0.033  0.4822  1.1363  0.2833
 1303TIP3   OH225399   6.568   1.864   0.137  0.0557 -0.1654  0.0227
 1303TIP3    H125400   6.505   1.915   0.188  1.7613  0.8806  1.1005
 1303TIP3    H225401   6.653   1.896   0.165  1.0825 -1.6708 -1.3335
 1304TIP3   OH225402   0.476   2.580   3.506  0.0165  0.7437  0.3195
 1304TIP3    H125403   0.512   2.596   3.419  1.2594  0.0190  0.6727
 1304TIP3    H225404   0.482   2.485   3.517 -1.9036  0.6280  0.4542
 1305TIP3   OH225405   1.182   4.334   3.250 -0.2717  0.4259  0.3288
 1305TIP3    H125406   1.223   4.413   3.215 -1.3450  2.8974  4.2048
 1305TIP3    H225407   1.210   4.331   3.342 -0.7640 -3.3995  0.4454
 1306TIP3   OH225408   6.068   1.790   1.744  0.8755 -0.3352 -0.0933
 1306TIP3    H125409   6.025   1.723   1.799  0.5996  0.3994  0.5937
 1306TIP3    H225410   6.011   1.799   1.668 -0.4232  0.9452  1.0189
 1307TIP3   OH225411   5.358   3.089  11.612 -0.5141 -0.6429  0.5053
 1307TIP3    H125412   5.400   3.022  11.558 -0.5426 -1.8537  1.9702
 1307TIP3    H225413   5.268   3.093  11.579 -1.2755 -3.2714  2.1740
 1308TIP3   OH225414   3.027   0.710   2.531 -0.3317 -0.1167  0.2557
 1308TIP3    H125415   3.103   0.767   2.544 -0.6391  0.9414 -2.1912
 1308TIP3    H225416   3.028   0.690   2.437 -1.2773 -2.6991  0.7554
 1309TIP3   OH225417   1.133   1.128   0.277 -0.0845  0.4042 -0.0249
 1309TIP3    H125418   1.053   1.110   0.326  0.5189 -1.5903  0.2521
 1309TIP3    H225419   1.114   1.100   0.188  1.2993 -3.0210  0.6878
 1310TIP3   OH225420   1.195   1.239  15.967 -0.1210  0.3444  0.1255
 1310TIP3    H125421   1.260   1.309  15.967 -0.2850  0.5158  1.6860
 1310TIP3    H225422   1.144   1.254  16.047 -1.5794 -0.2385 -0.6738
 1311TIP3   OH225423   4.086   5.816  12.760 -0.4091  0.3895 -0.2432
 1311TIP3    H125424   4.005   5.852  12.724  0.6065  1.1109 -1.8620
 1311TIP3    H225425   4.099   5.734  12.713 -0.3859  0.0805  0.2916
 1312TIP3   OH225426   3.309   3.426  14.100 -0.4139  0.5346 -0.2332
 1312TIP3    H125427   3.248   3.377  14.155  0.4646 -0.1744  0.1232
 1312TIP3    H225428   3.346   3.493  14.157 -0.2043  0.3986 -0.2070
 1313TIP3   OH225429   0.866   6.634   1.427  0.3065  0.0321  0.0012
 1313TIP3    H125430   0.840   6.673   1.343 -1.8591 -0.1161  0.5536
 1313TIP3    H225431   0.951   6.595   1.410 -0.0923  0.0121 -2.1414
 1314TIP3   OH225432   0.508   0.042   1.151 -0.0151  0.1004 -0.2372
 1314TIP3    H125433   0.588   0.042   1.204 -0.0069  0.1386 -0.2499
 1314TIP3    H225434   0.525  -0.022   1.082 -0.6121 -1.0910  0.7030
 1315TIP3   OH225435   4.680   6.337   3.917 -0.2743 -0.5030  0.0787
 1315TIP3    H125436   4.683   6.375   3.829 -0.4013 -0.6210  0.0220
 1315TIP3    H225437   4.700   6.244   3.904 -0.4831 -0.5597  0.1468
 1316TIP3   OH225438   6.019   4.355  13.075 -0.2917 -0.6858 -0.1364
 1316TIP3    H125439   6.043   4.419  13.008 -0.9067 -0.7068 -0.3735
 1316TIP3    H225440   5.925   4.342  13.065 -0.1918 -1.5585 -0.0316
 1317TIP3   OH225441   4.696   4.749   1.311 -0.1802 -0.4742  0.0060
 1317TIP3    H125442   4.634   4.810   1.271  0.5217 -0.0816 -0.4841
 1317TIP3    H225443   4.688   4.668   1.260  0.0874 -0.2534 -0.3892
 1318TIP3   OH225444   5.178   2.731   5.381  0.2335  0.0997  0.2819
 1318TIP3    H125445   5.255   2.784   5.399 -0.9567  1.7877  0.5772
 1318TIP3    H225446   5.192   2.697   5.293  2.5272 -1.8606  1.3247
 1319TIP3   OH225447   2.010   3.567   2.665 -0.9960  0.4513 -0.1454
 1319TIP3    H125448   2.012   3.471   2.673  0.3580  0.5772  1.3628
 1319TIP3    H225449   1.918   3.590   2.675 -1.5673 -0.8048 -2.1723
 1320TIP3   OH225450   6.223   0.625   6.498  0.1770  0.1711  0.1430
 1320TIP3    H125451   6.162   0.610   6.570  0.9975  0.4914  0.9086
 1320TIP3    H225452   6.304   0.584   6.526  0.8029  1.1885 -0.1653
 1321TIP3   OH225453   0.942   6.286  11.982 -0.4092 -0.1096  0.5226
 1321TIP3    H125454   1.021   6.325  11.942 -1.1252  0.5941 -0.2283
 1321TIP3    H225455   0.877   6.288  11.912 -0.8065 -1.6029  0.8461
 1322TIP3   OH225456   1.352   5.670   1.736  0.2991  0.0962  0.1554
 1322TIP3    H125457   1.279   5.731   1.729 -0.1827 -0.1810  2.2773
 1322TIP3    H225458   1.325   5.594   1.684 -1.2240 -0.2546  1.4124
 1323TIP3   OH225459   1.435   0.105  17.057  0.4353  0.0229  0.0549
 1323TIP3    H125460   1.510   0.053  17.084  1.0803  1.0707  0.3096
 1323TIP3    H225461   1.461   0.143  16.973 -0.2406 -0.4989 -0.3912
 1324TIP3   OH225462   4.558   6.454   5.901  0.2020  0.5372  0.7250
 1324TIP3    H125463   4.603   6.466   5.984  1.2276  1.1923  0.0973
 1324TIP3    H225464   4.598   6.377   5.862 -0.5509  0.0004  1.0136
 1325TIP3   OH225465   3.236   0.392  16.781 -0.1935 -0.0897 -0.7394
 1325TIP3    H125466   3.186   0.463  16.743 -0.9721  0.1556  0.7145
 1325TIP3    H225467   3.295   0.364  16.711 -0.4190  1.4599 -1.5727
 1326TIP3   OH225468   3.880   1.216   6.189  0.2852 -0.5403  0.3390
 1326TIP3    H125469   3.828   1.266   6.252  1.7276  0.4234  0.8012
 1326TIP3    H225470   3.876   1.268   6.108 -3.0458 -2.6755 -0.9586
 1327TIP3   OH225471   6.197   6.332  13.124 -0.3621  0.9722 -0.1135
 1327TIP3    H125472   6.259   6.316  13.054 -0.6068  0.3987 -0.1991
 1327TIP3    H225473   6.111   6.324  13.083 -0.6039 -2.6716  0.8889
 1328TIP3   OH225474   2.596   6.577   4.982  0.0215  0.5203 -0.1117
 1328TIP3    H125475   2.615   6.496   4.934  2.3890  0.4006  0.9528
 1328TIP3    H225476   2.505   6.568   5.010  0.1982 -1.6894 -0.1815
 1329TIP3   OH225477   4.723   1.361  11.733  0.0539  0.0278 -0.2266
 1329TIP3    H125478   4.778   1.328  11.804  0.1680 -1.0977 -0.8231
 1329TIP3    H225479   4.673   1.432  11.772 -1.3257 -1.8467  1.4846
 1330TIP3   OH225480   3.475   5.408   6.067  0.2211 -0.0856  0.3394
 1330TIP3    H125481   3.400   5.436   6.120  0.1683 -0.7006  0.5974
 1330TIP3    H225482   3.436   5.377   5.985  0.2037 -0.2821  0.4223
 1331TIP3   OH225483   5.037   0.620  15.881 -0.1113  0.2074  0.4760
 1331TIP3    H125484   5.049   0.714  15.871  0.1531  0.2421  1.1513
 1331TIP3    H225485   5.069   0.600  15.968  1.4207 -0.7863 -0.2910
 1332TIP3   OH225486   4.252   3.422   5.554  0.1777 -0.4045  0.0422
 1332TIP3    H125487   4.208   3.431   5.638 -2.1104 -1.7549 -0.9745
 1332TIP3    H225488   4.186   3.446   5.489  2.0537  1.0681 -1.3683
 1333TIP3   OH225489   2.471   4.188  16.509  0.3290 -0.5180  0.4262
 1333TIP3    H125490   2.509   4.264  16.465  0.3857 -0.3107  0.8297
 1333TIP3    H225491   2.510   4.113  16.465  2.7982 -0.3125  2.1877
 1334TIP3   OH225492   5.621   0.212  14.319 -0.2111  0.0587  0.2089
 1334TIP3    H125493   5.594   0.125  14.346 -0.5769  0.3028  0.6440
 1334TIP3    H225494   5.623   0.209  14.223  0.8182 -0.7348  0.2513
 1335TIP3   OH225495   3.884   5.738   1.308  0.5893 -0.2344 -0.2681
 1335TIP3    H125496   3.799   5.743   1.352  1.0066 -0.3662  0.5692
 1335TIP3    H225497   3.904   5.828   1.283  0.7142 -0.0325  0.5361
 1336TIP3   OH225498   4.321   2.624   3.307  0.4103  0.6810 -0.0698
 1336TIP3    H125499   4.259   2.632   3.234  0.3276  0.0048 -0.0788
 1336TIP3    H225500   4.334   2.713   3.338 -1.9053  0.6669  1.0313
 1337TIP3   OH225501   5.062   1.979  13.770 -0.1444  0.4594 -0.0826
 1337TIP3    H125502   4.996   1.910  13.773 -1.6180  1.7559 -1.5761
 1337TIP3    H225503   5.046   2.031  13.849  0.6403 -0.5803  0.7792
 1338TIP3   OH225504   4.959   5.051   3.943  0.1874  0.0279 -0.1463
 1338TIP3    H125505   5.008   5.132   3.930 -1.1799  0.9302  0.2298
 1338TIP3    H225506   5.009   5.002   4.008 -0.3229  1.7170  1.5356
 1339TIP3   OH225507   5.460   6.044   1.556  0.1292 -0.2076  0.6768
 1339TIP3    H125508   5.401   6.119   1.565  0.0671 -0.0671 -0.8016
 1339TIP3    H225509   5.543   6.082   1.528 -0.0843 -0.7477 -0.7090
 1340TIP3   OH225510   4.509   2.534  15.049 -0.4186  0.1000 -0.9139
 1340TIP3    H125511   4.461   2.475  15.108  0.5432  1.9193  1.8037
 1340TIP3    H225512   4.521   2.483  14.969 -0.9444 -2.8204  0.7781
 1341TIP3   OH225513   2.582   2.412   2.663 -0.0785 -1.1338  0.5621
 1341TIP3    H125514   2.502   2.445   2.702 -0.9553 -0.7011 -1.5050
 1341TIP3    H225515   2.639   2.489   2.657  0.0536 -1.1996  0.9943
 1342TIP3   OH225516   3.505   4.616   0.174 -0.2682  0.3455  0.5510
 1342TIP3    H125517   3.503   4.682   0.242  0.7936  0.8235  0.1343
 1342TIP3    H225518   3.475   4.661   0.095 -1.5830 -0.2284  0.7034
 1343TIP3   OH225519   4.945   1.217  13.900  0.0639 -0.1040  0.6488
 1343TIP3    H125520   4.898   1.289  13.942  0.7015 -0.1867  1.5140
 1343TIP3    H225521   4.905   1.138  13.935 -0.5178 -0.1789 -0.1698
 1344TIP3   OH225522   4.481   1.535   4.141 -0.0832  0.0094  0.0927
 1344TIP3    H125523   4.524   1.449   4.140 -0.2207 -0.0617  0.1700
 1344TIP3    H225524   4.494   1.569   4.052 -0.6416 -0.4068 -0.1586
 1345TIP3   OH225525   4.740   2.996   6.365 -0.6000  0.0600  0.3273
 1345TIP3    H125526   4.712   3.077   6.324 -1.1046  0.6114  1.7292
 1345TIP3    H225527   4.666   2.935   6.351 -0.7628  0.2390  0.4064
 1346TIP3   OH225528   6.399   3.955   5.342 -0.6177 -0.1300  0.1907
 1346TIP3    H125529   6.358   3.922   5.422 -0.5634  0.0529  0.2937
 1346TIP3    H225530   6.338   4.022   5.310 -0.2195  0.4016  0.5425
 1347TIP3   OH225531   1.984   0.548   3.714  0.3606 -0.0815 -0.2506
 1347TIP3    H125532   1.900   0.575   3.678  0.1010  0.2392  0.5947
 1347TIP3    H225533   1.966   0.465   3.759  0.2920  0.4674  0.7477
 1348TIP3   OH225534   3.064   1.605   1.709 -0.0908 -0.9726 -0.3160
 1348TIP3    H125535   3.096   1.694   1.695  0.0777 -0.9590  0.1407
 1348TIP3    H225536   2.975   1.617   1.743 -0.7996 -1.0224 -2.1265
 1349TIP3   OH225537   0.693   5.919   6.809 -0.4560 -0.1851 -0.0392
 1349TIP3    H125538   0.675   5.886   6.897  2.8205 -2.0198  0.0562
 1349TIP3    H225539   0.724   6.009   6.823 -2.7528  0.5586  0.3763
 1350TIP3   OH225540   5.854   3.811   5.908  0.4007 -0.0359 -0.2534
 1350TIP3    H125541   5.815   3.724   5.899  0.0266  0.1284 -0.2195
 1350TIP3    H225542   5.836   3.836   5.999 -0.4692  0.5507 -0.5867
 1351TIP3   OH225543   6.447   6.794   0.079  0.3542 -0.0230 -0.9335
 1351TIP3    H125544   6.399   6.776  -0.001  0.4639 -1.2350 -0.7509
 1351TIP3    H225545   6.499   6.871   0.060  0.3075 -0.2512 -2.0021
 1352TIP3   OH225546   6.537   2.663  14.618  0.1775  0.0249  0.4970
 1352TIP3    H125547   6.490   2.579  14.623 -1.4888  0.5274 -4.0968
 1352TIP3    H225548   6.470   2.729  14.636  0.4942  0.5272 -0.1415
 1353TIP3   OH225549   6.717   3.664   2.612 -0.2936 -0.2009  0.1176
 1353TIP3    H125550   6.654   3.611   2.563 -0.4393  0.5501 -0.5060
 1353TIP3    H225551   6.677   3.751   2.618  0.1317 -0.0434  0.7854
 1354TIP3   OH225552   0.338   1.047   2.147 -0.0053  0.3971  0.2055
 1354TIP3    H125553   0.331   1.057   2.052  0.0771  0.6270  0.2237
 1354TIP3    H225554   0.255   1.080   2.180  0.6053  1.8806  0.3270
 1355TIP3   OH225555   3.820   6.265   5.725  0.2455  0.2465  0.5254
 1355TIP3    H125556   3.907   6.263   5.685  0.1442  2.6470  0.0633
 1355TIP3    H225557   3.759   6.267   5.650 -0.1521 -0.3023  0.8329
 1356TIP3   OH225558   5.045   4.170  12.188 -0.0296 -0.3091  0.4916
 1356TIP3    H125559   5.008   4.217  12.113  2.8760 -0.3258 -1.0228
 1356TIP3    H225560   4.985   4.097  12.202 -2.8291  1.9804  0.8149
 1357TIP3   OH225561   5.320   2.277  12.625  0.1439 -0.6516 -0.6729
 1357TIP3    H125562   5.331   2.367  12.656  1.0919 -0.4672 -1.4990
 1357TIP3    H225563   5.227   2.270  12.604  0.0727  0.1478 -0.6446
 1358TIP3   OH225564   1.082   2.555   2.202  0.2152 -0.0645 -0.9490
 1358TIP3    H125565   1.149   2.545   2.135 -0.2877  1.2443 -1.6690
 1358TIP3    H225566   1.118   2.620   2.263 -0.0942  0.1250 -0.9634
 1359TIP3   OH225567   4.034   0.484  12.684 -0.1772 -0.1433  0.1671
 1359TIP3    H125568   4.107   0.429  12.712 -0.1013  0.4852  1.2720
 1359TIP3    H225569   3.986   0.431  12.621  0.7593 -0.8804  0.0595
 1360TIP3   OH225570   1.737   5.977   5.083 -0.1072  0.0670 -0.0449
 1360TIP3    H125571   1.729   6.021   5.167  0.0145 -0.0696  0.0388
 1360TIP3    H225572   1.747   5.884   5.105 -0.0014  0.0393 -0.2065
 1361TIP3   OH225573   1.139   3.605   6.205 -0.4402  0.2239 -0.1799
 1361TIP3    H125574   1.207   3.672   6.204 -1.1833  0.9715 -1.4304
 1361TIP3    H225575   1.057   3.654   6.196 -0.9789 -0.8685 -1.2939
 1362TIP3   OH225576   4.998   0.658  12.233 -0.6542  0.1211  0.4238
 1362TIP3    H125577   5.082   0.665  12.187 -0.6365 -0.1472  0.4129
 1362TIP3    H225578   4.932   0.674  12.166 -0.6114  0.2862  0.4227
 1363TIP3   OH225579   3.129   4.621   5.875 -0.0672  0.2043  0.2309
 1363TIP3    H125580   3.131   4.554   5.806  0.4082 -1.6239  1.9617
 1363TIP3    H225581   3.117   4.703   5.828  2.8807 -0.6926 -2.2880
 1364TIP3   OH225582   2.744   6.557   4.321  0.0424 -0.6119  0.3416
 1364TIP3    H125583   2.839   6.570   4.317 -0.3136  1.8213 -1.0680
 1364TIP3    H225584   2.722   6.575   4.412  0.8744 -0.7307  0.5727
 1365TIP3   OH225585   6.622   6.443  12.117  0.3404 -0.0824  0.3176
 1365TIP3    H125586   6.700   6.497  12.103  0.4177 -0.1849  0.3534
 1365TIP3    H225587   6.556   6.505  12.150  0.4115  0.0011  0.3047
 1366TIP3   OH225588   3.938   0.645  16.165  0.5707 -0.0496  0.1739
 1366TIP3    H125589   3.918   0.658  16.258  1.9288  0.9282  0.3430
 1366TIP3    H225590   3.971   0.730  16.135  5.2816 -1.7652  0.1578
 1367TIP3   OH225591   4.441   5.742  13.962 -1.1160 -0.3493 -0.1460
 1367TIP3    H125592   4.408   5.655  13.981 -0.3492 -0.3865  1.1104
 1367TIP3    H225593   4.474   5.774  14.046 -1.1642  1.0492 -0.6388
 1368TIP3   OH225594   5.559   6.235   2.993  0.4433 -0.4191 -0.2856
 1368TIP3    H125595   5.552   6.313   2.937 -0.6000 -1.2208 -1.3061
 1368TIP3    H225596   5.612   6.263   3.067  0.6174  1.0856 -0.9607
 1369TIP3   OH225597   1.187   4.475  14.611  0.2302  0.0165 -0.1900
 1369TIP3    H125598   1.122   4.520  14.556  0.0156 -0.8923 -0.7022
 1369TIP3    H225599   1.135   4.415  14.664  0.4935  0.5169  0.6395
 1370TIP3   OH225600   4.578   0.930  14.182  0.1414  0.0167 -0.1938
 1370TIP3    H125601   4.659   0.919  14.133  0.3638 -0.3105  0.2421
 1370TIP3    H225602   4.559   0.842  14.217  0.8972  0.5780  1.7099
 1371TIP3   OH225603   6.522   6.447  15.500 -0.5663  0.2195  0.1694
 1371TIP3    H125604   6.546   6.500  15.576 -1.6396  1.5855 -0.4168
 1371TIP3    H225605   6.527   6.356  15.531  1.1135  0.6582  1.2345
 1372TIP3   OH225606   0.004   0.003   3.194 -0.4344  0.2826 -0.2078
 1372TIP3    H125607   0.010   0.052   3.276 -1.2313 -1.8487  1.1595
 1372TIP3    H225608   0.070  -0.066   3.202 -0.8672 -0.2565 -1.1323
 1373TIP3   OH225609   6.464   0.140  16.765 -0.4915  0.3634 -1.0369
 1373TIP3    H125610   6.385   0.189  16.745 -0.1121  0.4827 -2.3465
 1373TIP3    H225611   6.434   0.063  16.813 -1.3555  0.6181 -1.1702
 1374TIP3   OH225612   5.833   5.369  12.948  0.3054 -0.1820 -0.3318
 1374TIP3    H125613   5.873   5.341  12.865  1.2409  0.6493 -0.1745
 1374TIP3    H225614   5.871   5.311  13.014  1.2410  0.5777 -0.1875
 1375TIP3   OH225615   0.585   2.084   5.053 -0.0004  0.2654  0.4735
 1375TIP3    H125616   0.605   1.996   5.021 -1.0233  0.6401 -1.2834
 1375TIP3    H225617   0.649   2.140   5.010 -0.8356  0.6662 -0.2719
 1376TIP3   OH225618   5.992   3.458  15.645  0.3384  0.0448 -0.8699
 1376TIP3    H125619   5.897   3.460  15.629  0.1318  1.1583  0.3500
 1376TIP3    H225620   6.009   3.540  15.693  1.4989 -1.2808  1.0398
 1377TIP3   OH225621   3.756   3.526   1.306 -0.1062  0.2579  0.1779
 1377TIP3    H125622   3.694   3.596   1.283 -2.3767 -2.1097 -1.2441
 1377TIP3    H225623   3.716   3.483   1.381 -0.5970 -1.7167 -1.1631
 1378TIP3   OH225624   0.718   4.751  15.685  0.3506  0.2229 -0.0607
 1378TIP3    H125625   0.639   4.801  15.663  1.1509  1.2269 -0.7325
 1378TIP3    H225626   0.778   4.817  15.721  0.4836 -0.7209  1.4697
 1379TIP3   OH225627   4.973   3.516  15.167 -0.3615 -0.1806 -0.0261
 1379TIP3    H125628   4.887   3.559  15.166 -0.3248 -0.0830  0.4565
 1379TIP3    H225629   4.974   3.462  15.089 -1.4723 -1.3688  0.7429
 1380TIP3   OH225630   0.654   1.216  14.528 -0.2576  0.1386 -0.0026
 1380TIP3    H125631   0.562   1.229  14.503  0.1197  0.0033 -1.4876
 1380TIP3    H225632   0.694   1.302  14.521  0.2158 -0.1797 -1.4418
 1381TIP3   OH225633   4.963   1.000   0.867 -0.1468 -0.5978  0.6591
 1381TIP3    H125634   4.920   0.917   0.887  1.0248 -1.1914  0.7541
 1381TIP3    H225635   5.032   1.009   0.933  0.6131 -0.2151 -0.1647
 1382TIP3   OH225636   3.626   2.651  13.351  0.3831 -0.1701  0.0107
 1382TIP3    H125637   3.678   2.572  13.334  1.8372  0.4141  1.5805
 1382TIP3    H225638   3.692   2.720  13.364 -0.8429  0.9980  0.0584
 1383TIP3   OH225639   2.407   5.898  14.648  0.1420 -0.4689  0.2585
 1383TIP3    H125640   2.412   5.877  14.555 -0.9267 -0.4693  0.1889
 1383TIP3    H225641   2.454   5.981  14.657 -4.2899  2.3753 -1.2426
 1384TIP3   OH225642   4.015   6.132   5.303 -0.0044  0.6172  0.2918
 1384TIP3    H125643   4.001   6.140   5.397  0.7891 -0.0049  0.4632
 1384TIP3    H225644   4.030   6.039   5.288  1.6316  0.9433 -0.2034
 1385TIP3   OH225645   6.583   3.639   1.992 -0.7165  0.4710  0.1335
 1385TIP3    H125646   6.633   3.594   1.923 -0.1932  2.1895 -0.6657
 1385TIP3    H225647   6.603   3.590   2.072  0.0459 -0.5411 -0.6551
 1386TIP3   OH225648   6.051   0.693  12.958 -0.0690  0.3467  0.1962
 1386TIP3    H125649   6.052   0.783  12.923 -1.1977  0.7524  1.1493
 1386TIP3    H225650   5.966   0.686  13.002  0.4814 -0.8156  1.1087
 1387TIP3   OH225651   5.695   6.178   5.244  0.2848 -0.3253 -0.2514
 1387TIP3    H125652   5.674   6.124   5.168  1.1474 -1.4863  0.3305
 1387TIP3    H225653   5.777   6.221   5.221 -0.5072  0.9128 -0.7975
 1388TIP3   OH225654   5.114   5.474  11.502  0.3478 -0.0464 -0.3694
 1388TIP3    H125655   5.196   5.474  11.551 -1.4444  1.2805  2.7851
 1388TIP3    H225656   5.096   5.381  11.488  0.8026 -0.4923  1.7621
 1389TIP3   OH225657   4.850   6.317  13.436 -0.6057 -0.7882  1.1655
 1389TIP3    H125658   4.821   6.329  13.346  1.9534 -2.4828  0.0587
 1389TIP3    H225659   4.769   6.300  13.485 -2.0705  0.5790 -0.6976
 1390TIP3   OH225660   1.439   2.892   2.110 -0.1088 -0.2454  0.0630
 1390TIP3    H125661   1.416   2.831   2.180 -0.9342 -0.0676 -0.0505
 1390TIP3    H225662   1.361   2.947   2.100  1.3210  2.1058  1.4865
 1391TIP3   OH225663   5.411   5.593   1.561 -0.0292 -0.9472 -0.4159
 1391TIP3    H125664   5.485   5.614   1.504 -1.9292 -1.2719 -3.1387
 1391TIP3    H225665   5.427   5.503   1.589  0.9801 -0.7526 -0.3300
 1392TIP3   OH225666   2.590   4.092   5.220 -0.8555  0.2842 -0.3032
 1392TIP3    H125667   2.680   4.124   5.223 -0.4058 -1.0007  0.7119
 1392TIP3    H225668   2.537   4.166   5.250  0.1488  0.1597  1.9230
 1393TIP3   OH225669   2.560   2.715   0.843 -0.0732  0.2356  0.2571
 1393TIP3    H125670   2.536   2.646   0.905 -0.2008 -0.2115 -0.2796
 1393TIP3    H225671   2.479   2.730   0.793  0.0497  0.5399  0.1514
 1394TIP3   OH225672   3.064   6.470   1.004 -0.3478 -0.0554  0.3507
 1394TIP3    H125673   3.013   6.551   0.997  0.6205  0.4828 -0.5160
 1394TIP3    H225674   3.138   6.494   1.061 -0.2591 -0.4272  0.3903
 1395TIP3   OH225675   0.408   2.852  11.531  0.3943  1.0674  0.1178
 1395TIP3    H125676   0.321   2.814  11.533  0.3599  1.0095 -1.9624
 1395TIP3    H225677   0.396   2.940  11.566 -0.2777  0.6449  0.9645
 1396TIP3   OH225678   0.916   1.946   1.714 -0.0264  0.2751 -0.2312
 1396TIP3    H125679   0.844   1.899   1.671 -1.3932 -0.8332  3.0994
 1396TIP3    H225680   0.882   1.966   1.801  3.0514  1.4062  0.7454
 1397TIP3   OH225681   5.795   3.557  15.825  0.4506 -0.0734  0.1948
 1397TIP3    H125682   5.764   3.583  15.912 -0.8432 -0.9438  0.0078
 1397TIP3    H225683   5.773   3.464  15.819  0.5347 -0.0153 -1.0795
 1398TIP3   OH225684   1.392   2.566   5.201  0.2471  0.4544  0.1216
 1398TIP3    H125685   1.433   2.490   5.240 -0.3702  1.2551  2.4035
 1398TIP3    H225686   1.370   2.623   5.275 -0.7478  2.1257 -1.3984
 1399TIP3   OH225687   0.175   0.167   5.231 -0.4540 -0.3987  0.6772
 1399TIP3    H125688   0.250   0.127   5.187 -1.2310  1.5246 -2.5736
 1399TIP3    H225689   0.204   0.255   5.254 -0.7674 -0.6649  2.1845
 1400TIP3   OH225690   4.838   2.057   3.867 -0.0480 -0.0778 -0.6998
 1400TIP3    H125691   4.906   2.088   3.807 -0.1157  0.8177 -0.3218
 1400TIP3    H225692   4.770   2.125   3.862 -0.7645 -0.7948 -0.8211
 1401TIP3   OH225693   4.492   3.301  13.308 -0.5851 -0.2779 -0.2827
 1401TIP3    H125694   4.435   3.264  13.375 -0.4518  0.7030  0.3924
 1401TIP3    H225695   4.506   3.230  13.246 -1.7406 -0.8176  0.0632
 1402TIP3   OH225696   3.383   2.970   1.689  0.7305 -0.6280 -0.1128
 1402TIP3    H125697   3.444   2.922   1.745  0.0683 -1.3567 -0.0037
 1402TIP3    H225698   3.388   3.060   1.720  0.3395 -1.0331  1.1577
 1403TIP3   OH225699   1.441   5.484  17.089  0.1294  0.5295 -0.5725
 1403TIP3    H125700   1.355   5.459  17.121  0.9652  0.8325  2.0100
 1403TIP3    H225701   1.456   5.571  17.126  0.9572  1.0938 -2.1759
 1404TIP3   OH225702   3.491   6.236  15.799 -0.3065  1.0027  0.1889
 1404TIP3    H125703   3.445   6.180  15.737 -0.0054 -0.4746  1.2644
 1404TIP3    H225704   3.581   6.239  15.767 -0.2760  0.6952  0.2481
 1405TIP3   OH225705   3.183   1.773  16.955  0.0647  0.9807  0.9053
 1405TIP3    H125706   3.173   1.851  16.900  0.1844  0.4931  0.1731
 1405TIP3    H225707   3.267   1.736  16.928 -1.3522 -1.0429 -0.9074
 1406TIP3   OH225708   4.870   6.085  13.152 -0.7683  0.2217  0.1171
 1406TIP3    H125709   4.907   6.053  13.069  0.0059  0.7759  0.2440
 1406TIP3    H225710   4.869   6.008  13.208 -2.4488 -0.4476 -0.7983
 1407TIP3   OH225711   2.225   1.768   2.472 -0.0204  0.1381  0.1050
 1407TIP3    H125712   2.158   1.707   2.441  0.1403  0.4664 -0.9043
 1407TIP3    H225713   2.177   1.846   2.499 -0.0460  0.4024 -0.6887
 1408TIP3   OH225714   3.483   0.904   1.888 -0.7695 -0.0811 -0.0173
 1408TIP3    H125715   3.568   0.878   1.854 -0.1682 -0.3034  1.6256
 1408TIP3    H225716   3.462   0.985   1.841  0.6107  0.2762 -0.0364
 1409TIP3   OH225717   1.577   3.911   4.527  0.1167  0.2129 -0.2903
 1409TIP3    H125718   1.526   3.917   4.608 -1.2454  1.7203 -1.2129
 1409TIP3    H225719   1.589   3.817   4.512 -1.1822 -0.1172  0.6942
 1410TIP3   OH225720   2.442   1.977   6.546 -0.0903  0.1865 -0.2092
 1410TIP3    H125721   2.370   1.976   6.610 -0.0958 -1.0023 -0.2054
 1410TIP3    H225722   2.512   1.927   6.589  0.2507  0.2106 -0.7443
 1411TIP3   OH225723   2.513   4.899   3.088  0.4101  0.0178 -0.6899
 1411TIP3    H125724   2.470   4.838   3.149 -0.6189 -0.3650 -1.7891
 1411TIP3    H225725   2.604   4.900   3.117  0.0512 -0.5991  0.5127
 1412TIP3   OH225726   2.456   5.414   6.405  0.2300 -0.8148  0.2594
 1412TIP3    H125727   2.405   5.465   6.468 -2.5087  0.2124 -2.6672
 1412TIP3    H225728   2.417   5.326   6.409 -2.1387  0.0570 -2.2269
 1413TIP3   OH225729   2.341   0.079  16.335 -0.1300 -0.4200  0.0135
 1413TIP3    H125730   2.351   0.162  16.382 -1.5155  0.0640 -0.5326
 1413TIP3    H225731   2.422   0.031  16.354  0.8448  1.1978  0.0345
 1414TIP3   OH225732   0.134   6.266   0.209  0.1339  0.2540 -0.1835
 1414TIP3    H125733   0.114   6.187   0.159 -0.7611  0.1070  0.4036
 1414TIP3    H225734   0.080   6.334   0.168  0.3974  0.4202 -0.2568
 1415TIP3   OH225735   3.766   1.832   1.616  0.4723 -0.2319  0.0000
 1415TIP3    H125736   3.801   1.904   1.564  0.5877  1.3832  2.2143
 1415TIP3    H225737   3.735   1.874   1.696 -1.4663 -2.3806  0.4124
 1416TIP3   OH225738   3.008   4.870   6.009  0.0630 -0.1052 -0.3514
 1416TIP3    H125739   3.059   4.911   6.079  0.6339  0.8850 -1.3330
 1416TIP3    H225740   2.926   4.919   6.007  0.0938 -0.0557 -0.4434
 1417TIP3   OH225741   5.713   5.162   5.160  0.2678 -0.0822 -1.0927
 1417TIP3    H125742   5.674   5.176   5.074 -1.5643  2.6641  0.1355
 1417TIP3    H225743   5.799   5.204   5.154  0.6785 -1.0243 -1.9682
 1418TIP3   OH225744   5.021   3.171   2.875  0.1296 -0.3210  0.3515
 1418TIP3    H125745   4.975   3.225   2.811 -0.5084 -0.7759  0.4175
 1418TIP3    H225746   5.085   3.230   2.915 -0.7438  0.4628  0.6163
 1419TIP3   OH225747   4.633   2.341  10.681 -0.5020  0.6190  0.3903
 1419TIP3    H125748   4.542   2.338  10.650  0.5207 -0.6036 -2.6594
 1419TIP3    H225749   4.652   2.252  10.708 -0.3959  1.0199  1.6478
 1420TIP3   OH225750   1.914   5.147   0.788 -0.7062 -0.5873 -0.1269
 1420TIP3    H125751   1.983   5.118   0.728 -0.9907 -1.3490 -0.0876
 1420TIP3    H225752   1.835   5.149   0.734 -0.5908  0.6467 -0.2667
 1421TIP3   OH225753   5.791   6.373  16.317 -0.4071 -0.0785 -0.5418
 1421TIP3    H125754   5.759   6.370  16.227 -0.0544  0.8024 -0.7021
 1421TIP3    H225755   5.819   6.464  16.329  1.1605 -0.6102 -0.1043
 1422TIP3   OH225756   0.905   4.430   1.159 -0.2479  0.0809  0.4856
 1422TIP3    H125757   0.826   4.414   1.210  0.1835 -0.9182  0.8574
 1422TIP3    H225758   0.905   4.524   1.142 -1.0980  0.1997  1.1684
 1423TIP3   OH225759   3.235   1.725  13.066  0.5791  0.2156 -0.0023
 1423TIP3    H125760   3.187   1.673  13.130 -0.7605 -1.0110 -1.9532
 1423TIP3    H225761   3.167   1.770  13.016  1.6156  1.4545 -0.3119
 1424TIP3   OH225762   3.363   2.490   1.803 -0.0555  0.8339  0.0638
 1424TIP3    H125763   3.289   2.469   1.746  0.5158 -2.1855  0.3340
 1424TIP3    H225764   3.399   2.571   1.768 -0.9694  0.1157 -2.6188
 1425TIP3   OH225765   2.937   3.768   4.392 -1.1251 -0.3353  0.4690
 1425TIP3    H125766   2.884   3.740   4.467  0.8460  0.6363  2.2819
 1425TIP3    H225767   3.025   3.735   4.412  0.5927  4.2501  1.1256
 1426TIP3   OH225768   2.032   5.683  12.012 -0.3508 -0.6433 -0.6487
 1426TIP3    H125769   2.099   5.643  12.066 -1.1948 -2.1660 -0.7173
 1426TIP3    H225770   2.018   5.621  11.940 -1.8127 -0.3366 -0.6456
 1427TIP3   OH225771   4.720   4.236  13.617  0.8089 -0.6316  0.3878
 1427TIP3    H125772   4.674   4.318  13.598  1.3579 -0.0835  1.3283
 1427TIP3    H225773   4.710   4.225  13.712  2.1552 -0.7808  0.5232
 1428TIP3   OH225774   4.467   0.796  12.157  0.3495  0.0788  0.1787
 1428TIP3    H125775   4.436   0.769  12.244 -2.7102  0.8200 -0.5954
 1428TIP3    H225776   4.387   0.819  12.110  2.0823  1.1125 -2.3697
 1429TIP3   OH225777   0.697   1.664   2.746 -0.3400  0.2145  0.2778
 1429TIP3    H125778   0.616   1.716   2.739 -0.4932 -0.0831 -0.1727
 1429TIP3    H225779   0.762   1.726   2.780 -0.8796  0.3288  1.1202
 1430TIP3   OH225780   1.759   5.814   0.496 -0.3260 -0.0988 -0.0817
 1430TIP3    H125781   1.816   5.737   0.500  0.5723  0.5034 -1.0993
 1430TIP3    H225782   1.708   5.801   0.416 -0.4215  0.2013 -0.0677
 1431TIP3   OH225783   5.724   5.427  17.109 -0.0064  0.4937  0.1180
 1431TIP3    H125784   5.649   5.466  17.065 -0.2641 -0.3565 -0.2075
 1431TIP3    H225785   5.697   5.337  17.128  0.9939  0.1121 -0.2028
 1432TIP3   OH225786   0.042   4.289  11.403  0.1494 -0.2449  0.2071
 1432TIP3    H125787   0.115   4.301  11.343 -1.5837 -0.8214 -2.0764
 1432TIP3    H225788   0.003   4.376  11.412 -0.2158 -0.3435 -0.3616
 1433TIP3   OH225789   4.289   0.056  15.161  0.1378 -0.1957  0.5411
 1433TIP3    H125790   4.282   0.079  15.253 -0.5790  0.9940  0.1971
 1433TIP3    H225791   4.216  -0.004  15.145 -0.3402  0.4005  0.5010
 1434TIP3   OH225792   3.514   0.371  13.085 -0.1630  0.2546  0.5828
 1434TIP3    H125793   3.445   0.348  13.147  0.2752  1.6608  1.6232
 1434TIP3    H225794   3.594   0.338  13.125  0.0143  0.3770  0.3311
 1435TIP3   OH225795   2.376   0.006   1.990 -0.3031 -0.0148 -0.1931
 1435TIP3    H125796   2.377   0.040   1.900 -0.3490  1.4092  0.3312
 1435TIP3    H225797   2.346  -0.085   1.981  1.5821 -0.5048 -1.8042
 1436TIP3   OH225798   6.601   5.575   4.804 -0.2191 -0.6926 -0.4902
 1436TIP3    H125799   6.543   5.499   4.797 -2.1127  0.7275 -0.6826
 1436TIP3    H225800   6.633   5.572   4.894 -1.4395 -0.9143 -0.0500
 1437TIP3   OH225801   5.991   1.921  11.674 -0.2179 -0.3599 -0.5197
 1437TIP3    H125802   6.038   1.854  11.624  1.8211 -0.8113  1.9287
 1437TIP3    H225803   5.955   1.873  11.749  3.0051  1.5530  2.4043
 1438TIP3   OH225804   2.389   6.456   6.316 -0.1751  0.6184  0.0442
 1438TIP3    H125805   2.303   6.446   6.357  0.1831 -2.8717  0.1469
 1438TIP3    H225806   2.383   6.404   6.236  1.9384 -0.0265  0.2683
 1439TIP3   OH225807   5.419   4.140  15.802  0.0905 -0.2830 -0.2905
 1439TIP3    H125808   5.354   4.080  15.838 -0.1268  0.8751  1.3237
 1439TIP3    H225809   5.503   4.096  15.817 -0.1286 -0.5840  0.0542
 1440TIP3   OH225810   4.059   2.273  14.810 -0.1309  0.2368 -0.1723
 1440TIP3    H125811   4.044   2.345  14.872  1.0823  0.9935 -0.7363
 1440TIP3    H225812   3.991   2.209  14.831 -0.8100  1.2462  0.7947
 1441TIP3   OH225813   2.920   1.321  11.669  0.5552  0.3955 -0.0338
 1441TIP3    H125814   2.919   1.363  11.583 -1.4066 -0.5953 -0.5332
 1441TIP3    H225815   2.953   1.388  11.728  0.5126  1.5834 -1.3312
 1442TIP3   OH225816   0.053   3.041  16.825  0.2331  0.3571  1.0625
 1442TIP3    H125817   0.011   2.956  16.836  0.8946  0.0149  0.9257
 1442TIP3    H225818   0.071   3.048  16.731  0.8693  0.3190  1.1802
 1443TIP3   OH225819   5.427   1.604   5.335  0.1275  0.2198  0.4773
 1443TIP3    H125820   5.444   1.677   5.395 -0.1040  1.3327 -0.7665
 1443TIP3    H225821   5.506   1.601   5.280  0.0433 -0.3315  0.3890
 1444TIP3   OH225822   0.658   3.446  14.430  0.3821 -0.0150 -0.2089
 1444TIP3    H125823   0.708   3.368  14.407 -0.4201 -0.3537 -0.8458
 1444TIP3    H225824   0.684   3.511  14.364  1.0674  0.2692  0.3343
 1445TIP3   OH225825   1.403   5.981   0.194 -0.4768  0.3237  0.4574
 1445TIP3    H125826   1.329   5.984   0.255 -1.3023 -1.5791 -0.4091
 1445TIP3    H225827   1.363   5.973   0.108  0.7210 -2.7353  0.1240
 1446TIP3   OH225828   3.869   0.785  10.523 -0.1651 -0.0288  0.5946
 1446TIP3    H125829   3.905   0.841  10.455  0.0534 -0.3332  0.4569
 1446TIP3    H225830   3.774   0.801  10.519 -0.2599 -0.7782 -0.4522
 1447TIP3   OH225831   5.494   2.312   1.127  0.3644  0.1240 -0.4792
 1447TIP3    H125832   5.420   2.255   1.107  1.5975 -2.1407  1.0681
 1447TIP3    H225833   5.473   2.349   1.213  1.2649 -0.9896  0.2346
 1448TIP3   OH225834   0.838   5.030   3.423 -0.4456  0.2221 -0.2762
 1448TIP3    H125835   0.864   5.035   3.515  1.0540  0.4046 -0.6981
 1448TIP3    H225836   0.743   5.018   3.425 -0.6399  1.8458  1.2702
 1449TIP3   OH225837   5.851   1.527  14.540  0.1726  0.3713  0.2256
 1449TIP3    H125838   5.773   1.525  14.484 -0.8943  0.0537  1.6705
 1449TIP3    H225839   5.923   1.551  14.482 -1.1572  1.5481 -0.9659
 1450TIP3   OH225840   0.323   6.472  12.208 -0.5403 -0.2200  0.1514
 1450TIP3    H125841   0.255   6.408  12.228 -1.0828  0.9063  1.9844
 1450TIP3    H225842   0.283   6.529  12.141 -0.6365 -0.8062 -0.2914
 1451TIP3   OH225843   1.501   4.005  10.944 -0.2725 -0.0186 -0.5517
 1451TIP3    H125844   1.516   3.916  10.976  0.4408  0.5221  0.6760
 1451TIP3    H225845   1.415   4.002  10.903  0.0103 -1.4205 -1.0446
 1452TIP3   OH225846   5.990   2.956   3.549 -0.6452  0.6120  0.2386
 1452TIP3    H125847   5.985   2.983   3.457  0.7310  0.6691  0.1626
 1452TIP3    H225848   5.911   2.905   3.563 -1.1137  1.0139 -0.8485
 1453TIP3   OH225849   0.669   4.466   1.374  0.1292  0.4746  0.3225
 1453TIP3    H125850   0.637   4.383   1.337  1.5607 -0.6129  1.4691
 1453TIP3    H225851   0.634   4.468   1.463  0.8137  0.6871  0.5885
 1454TIP3   OH225852   6.359   1.998   4.488 -0.3447 -0.2511 -0.4763
 1454TIP3    H125853   6.270   2.025   4.465 -1.4664 -2.5926  0.9727
 1454TIP3    H225854   6.402   1.985   4.404 -1.4160  0.7072 -1.1992
 1455TIP3   OH225855   5.446   5.218  11.781 -0.3931  0.2609  0.1353
 1455TIP3    H125856   5.402   5.264  11.709 -1.8654  0.9693  1.4608
 1455TIP3    H225857   5.435   5.125  11.760 -0.5265  0.4640 -0.7211
 1456TIP3   OH225858   2.809   5.021   2.640 -0.0745 -0.3331  0.3356
 1456TIP3    H125859   2.719   5.002   2.666 -0.2498 -0.3472 -0.2712
 1456TIP3    H225860   2.854   4.937   2.650 -0.0168 -0.2184  1.0827
 1457TIP3   OH225861   1.292   2.110   2.463 -0.8384  0.4114 -0.5276
 1457TIP3    H125862   1.364   2.171   2.482  0.0645 -0.1990 -1.8636
 1457TIP3    H225863   1.228   2.162   2.414 -1.5918  1.1101  1.1897
 1458TIP3   OH225864   5.280   6.148   2.214  0.0877  0.1423  0.5235
 1458TIP3    H125865   5.263   6.127   2.306 -0.6593  0.6875  0.5197
 1458TIP3    H225866   5.321   6.235   2.217  0.2970  0.0481  0.3610
 1459TIP3   OH225867   3.299   1.777   5.863  0.6223  0.1497  0.1250
 1459TIP3    H125868   3.255   1.711   5.810 -0.4768 -0.2243  1.4531
 1459TIP3    H225869   3.249   1.778   5.945  1.3691  1.7662  0.5727
 1460TIP3   OH225870   5.165   3.176  17.127  0.0067  0.0304 -0.0557
 1460TIP3    H125871   5.183   3.268  17.146  1.1786 -0.6032  2.0920
 1460TIP3    H225872   5.093   3.152  17.186  0.4609 -0.7222  0.2023
 1461TIP3   OH225873   6.385   3.741   4.381  0.0546  0.0946  0.9503
 1461TIP3    H125874   6.451   3.809   4.397  0.0368  0.4458 -0.3774
 1461TIP3    H225875   6.378   3.694   4.464  3.0529 -0.9015  0.7126
 1462TIP3   OH225876   0.461   3.247   1.536  0.1278  0.2862 -0.1674
 1462TIP3    H125877   0.455   3.161   1.578 -0.6026 -0.3334 -1.4852
 1462TIP3    H225878   0.381   3.293   1.563  0.0948  0.2207 -0.1528
 1463TIP3   OH225879   1.452   3.827   5.987  0.0308 -0.3586 -0.2726
 1463TIP3    H125880   1.447   3.833   5.892  0.7498 -1.7610 -0.4144
 1463TIP3    H225881   1.419   3.739   6.007  0.1113 -0.1658  0.7597
 1464TIP3   OH225882   4.485   2.709  10.040  0.0484 -0.7176 -0.0227
 1464TIP3    H125883   4.394   2.691  10.064  0.3183  0.7714  2.4025
 1464TIP3    H225884   4.517   2.764  10.112  2.1058  0.8873 -2.1030
 1465TIP3   OH225885   2.220   2.224  11.044  0.0315 -0.3981  0.1136
 1465TIP3    H125886   2.179   2.298  11.000  0.6425  0.2444  0.6123
 1465TIP3    H225887   2.192   2.148  10.994 -3.6653 -0.2422  1.7748
 1466TIP3   OH225888   2.302   0.155  12.797  0.1489  0.4116  0.5985
 1466TIP3    H125889   2.226   0.101  12.815 -0.1931  0.9906  0.8984
 1466TIP3    H225890   2.357   0.101  12.740 -1.6419  0.9177 -1.6959
 1467TIP3   OH225891   2.814   3.682   6.212  0.7834  0.0694  0.3699
 1467TIP3    H125892   2.797   3.685   6.118  3.5162  1.2224 -0.1555
 1467TIP3    H225893   2.778   3.763   6.246  3.1461  1.4656 -0.3582
 1468TIP3   OH225894   4.153   2.988   5.580 -0.5552 -0.4155  0.0121
 1468TIP3    H125895   4.175   3.002   5.672 -1.3189 -2.5201  0.5437
 1468TIP3    H225896   4.059   3.003   5.575 -0.5149 -0.2964 -0.4385
 1469TIP3   OH225897   0.372   5.094   5.962 -0.3908  0.3922 -0.0744
 1469TIP3    H125898   0.445   5.044   5.999 -0.6279 -0.0338 -0.1740
 1469TIP3    H225899   0.381   5.082   5.868 -1.7139 -1.2609  0.0013
 1470TIP3   OH225900   5.730   5.358   5.446  0.2528  0.2054  0.6759
 1470TIP3    H125901   5.746   5.310   5.527  1.4447  0.7482  0.7761
 1470TIP3    H225902   5.751   5.449   5.467 -1.8745  0.7583  0.4532
 1471TIP3   OH225903   5.524   1.673   2.428 -0.1221 -0.2437  0.7774
 1471TIP3    H125904   5.505   1.605   2.363 -0.1644  0.2593  0.2578
 1471TIP3    H225905   5.540   1.752   2.376 -1.2396  0.4159  1.4161
 1472TIP3   OH225906   0.133   6.209  13.472 -0.0974  0.0475 -0.2532
 1472TIP3    H125907   0.124   6.197  13.567 -0.4445  0.2844 -0.2505
 1472TIP3    H225908   0.072   6.145  13.435  2.1811 -2.0900 -0.4130
 1473TIP3   OH225909   1.438   0.491   0.345  0.2921  0.0697  0.4346
 1473TIP3    H125910   1.370   0.502   0.278 -1.4372 -0.6412  2.0119
 1473TIP3    H225911   1.486   0.574   0.345 -1.7034  1.2609  0.4799
 1474TIP3   OH225912   0.345   0.076  12.353 -0.0846  0.5166 -0.1062
 1474TIP3    H125913   0.296  -0.006  12.358  0.6210  0.0235 -1.1061
 1474TIP3    H225914   0.428   0.052  12.313 -0.0363  1.8006 -0.8061
 1475TIP3   OH225915   3.116   2.197   2.098  0.5773 -0.4041  0.4065
 1475TIP3    H125916   3.075   2.180   2.013  0.1521 -0.5036  0.6272
 1475TIP3    H225917   3.194   2.249   2.078 -0.4032  0.9661  0.1045
 1476TIP3   OH225918   3.063   4.853  12.341 -0.7092  0.4059  0.3202
 1476TIP3    H125919   3.105   4.863  12.426 -1.2004 -1.5778  0.7996
 1476TIP3    H225920   2.980   4.899  12.349 -0.7546  0.2151  0.9045
 1477TIP3   OH225921   6.537   3.877   3.744 -0.0978 -0.3855  0.1869
 1477TIP3    H125922   6.461   3.934   3.736 -0.8400 -1.5956 -1.9275
 1477TIP3    H225923   6.599   3.912   3.680  0.7025 -0.0765  1.1157
 1478TIP3   OH225924   6.231   5.363   2.359 -0.1995  0.1998  0.3573
 1478TIP3    H125925   6.234   5.340   2.452 -0.2876 -0.4261  0.2074
 1478TIP3    H225926   6.163   5.306   2.323  1.5471 -1.3447 -0.5801
 1479TIP3   OH225927   0.324   1.714  13.076 -0.0047  0.2401  0.5101
 1479TIP3    H125928   0.325   1.738  12.983  1.6393 -0.5525  0.3150
 1479TIP3    H225929   0.395   1.765  13.115  1.3154 -1.6922  0.7319
 1480TIP3   OH225930   5.515   1.218   4.660 -0.0519 -0.7033  0.6587
 1480TIP3    H125931   5.598   1.191   4.621  0.2585  1.4419 -0.2281
 1480TIP3    H225932   5.464   1.251   4.586 -0.0810  1.8940  1.7979
 1481TIP3   OH225933   0.730   1.391   4.981 -0.3184  0.2113  0.4543
 1481TIP3    H125934   0.687   1.434   4.907  1.3996  1.2092  0.0225
 1481TIP3    H225935   0.753   1.462   5.041 -0.1801 -0.4230  1.1700
 1482TIP3   OH225936   0.216   1.489  14.490  0.3544  0.4570 -0.3068
 1482TIP3    H125937   0.186   1.524  14.406 -1.2074  0.0954  0.0768
 1482TIP3    H225938   0.186   1.553  14.554 -1.9877 -1.2157  0.3445
 1483TIP3   OH225939   0.981   4.724  11.277  0.0603 -0.0035  0.3277
 1483TIP3    H125940   0.891   4.736  11.248 -0.6600  0.0294  2.4439
 1483TIP3    H225941   1.034   4.757  11.205 -1.5724 -1.2384 -1.5141
 1484TIP3   OH225942   4.483   1.124  11.294  0.9109  0.3319 -0.1991
 1484TIP3    H125943   4.565   1.087  11.263  1.0473  0.6769 -0.2477
 1484TIP3    H225944   4.417   1.089  11.234  0.8283 -1.0975  0.7038
 1485TIP3   OH225945   3.596   1.483   0.854 -0.7392 -0.1305 -0.0576
 1485TIP3    H125946   3.687   1.510   0.851 -0.2136 -1.7813  0.3409
 1485TIP3    H225947   3.548   1.555   0.813  0.8269  0.3656 -1.0682
 1486TIP3   OH225948   3.763   3.928   1.757  0.2951  0.3136 -0.2390
 1486TIP3    H125949   3.743   4.020   1.743 -1.0887  0.2134  1.0231
 1486TIP3    H225950   3.843   3.928   1.808  0.2049  0.8113 -0.0999
 1487TIP3   OH225951   5.000   5.218   5.482 -0.3466 -0.4709  0.3224
 1487TIP3    H125952   4.927   5.279   5.493  0.3089  0.4600 -0.4694
 1487TIP3    H225953   5.071   5.255   5.535  0.9983  1.0442 -2.4161
 1488TIP3   OH225954   6.229   4.151   5.228 -0.1636  0.1500  0.3613
 1488TIP3    H125955   6.140   4.150   5.193 -0.4865  0.5333  1.1473
 1488TIP3    H225956   6.286   4.161   5.151 -0.6393 -2.6293 -0.4186
 1489TIP3   OH225957   2.894   2.659  12.515  0.3247  0.2602  0.4884
 1489TIP3    H125958   2.853   2.603  12.580 -0.1524  1.3284  1.1185
 1489TIP3    H225959   2.986   2.633  12.515  0.5697  1.0550  2.4513
 1490TIP3   OH225960   6.512   1.455   0.893  0.0653  0.2668 -0.2426
 1490TIP3    H125961   6.601   1.441   0.924 -0.0685 -0.0345  0.0124
 1490TIP3    H225962   6.475   1.518   0.955  0.1751  0.5688 -0.4839
 1491TIP3   OH225963   4.133   0.335  14.813 -0.1904  0.2706  0.5476
 1491TIP3    H125964   4.072   0.300  14.749  0.9053 -1.3660  0.3770
 1491TIP3    H225965   4.203   0.375  14.761 -0.1122  0.3807  0.7349
 1492TIP3   OH225966   6.158   2.888  13.490  0.6466 -0.3362  0.8696
 1492TIP3    H125967   6.233   2.947  13.496  0.5606 -0.1776  0.4021
 1492TIP3    H225968   6.112   2.916  13.411  1.2274 -1.7674  0.0099
 1493TIP3   OH225969   0.455   0.934  16.953 -0.0971  0.3979 -0.0191
 1493TIP3    H125970   0.521   0.881  16.909 -1.5201 -1.1698 -0.3247
 1493TIP3    H225971   0.481   0.935  17.045  1.9719  2.2975 -0.5708
 1494TIP3   OH225972   0.321   4.635  10.690 -0.3198 -0.5468 -0.1112
 1494TIP3    H125973   0.400   4.618  10.743  0.1237  0.9659 -0.2638
 1494TIP3    H225974   0.345   4.607  10.602  0.4689  0.9542 -0.3975
 1495TIP3   OH225975   1.934   2.004  11.704  0.2410 -0.3376 -0.1450
 1495TIP3    H125976   1.881   2.048  11.770  0.4142 -0.7404  0.2696
 1495TIP3    H225977   1.878   2.000  11.627  0.3856  1.0100 -0.3366
 1496TIP3   OH225978   5.293   5.448   0.520  0.0079 -0.1175 -0.3189
 1496TIP3    H125979   5.232   5.376   0.534  1.0104 -1.1184 -1.0508
 1496TIP3    H225980   5.271   5.483   0.433 -1.3188  1.3067  0.5602
 1497TIP3   OH225981   0.650   6.223  11.204  0.1033  0.2844  0.4010
 1497TIP3    H125982   0.635   6.147  11.148  0.0377  2.8058 -3.1587
 1497TIP3    H225983   0.562   6.255  11.226  0.1200  0.8233 -0.2834
 1498TIP3   OH225984   4.494   2.773  10.905  0.0335  0.4039  0.4115
 1498TIP3    H125985   4.476   2.679  10.909  1.6076  0.0340 -0.9323
 1498TIP3    H225986   4.497   2.793  10.812  1.0831  1.5263  0.6816
 1499TIP3   OH225987   4.609   6.490   5.615  0.2131 -0.0495  0.1206
 1499TIP3    H125988   4.631   6.397   5.608  0.4904  0.0158  0.1163
 1499TIP3    H225989   4.572   6.500   5.703 -0.0615 -0.2122  0.0242
 1500TIP3   OH225990   6.043   1.384   2.684 -0.7660 -0.0945  0.3245
 1500TIP3    H125991   6.072   1.296   2.704  0.4322 -0.1424 -1.5222
 1500TIP3    H225992   6.082   1.439   2.753 -0.4642 -0.8238  0.7356
 1501TIP3   OH225993   0.127   2.951  13.086  0.5273 -0.2210  0.3128
 1501TIP3    H125994   0.071   3.000  13.025  1.7155  0.9898  0.1788
 1501TIP3    H225995   0.128   2.862  13.050 -0.0989  0.0946 -0.5129
 1502TIP3   OH225996   5.172   3.227   5.906 -0.6534 -0.2867 -0.3380
 1502TIP3    H125997   5.240   3.219   5.973 -1.3902  2.6801  0.8410
 1502TIP3    H225998   5.107   3.161   5.929  1.1069 -2.1285 -0.5964
 1503TIP3   OH225999   1.658   5.201  13.381 -0.0090 -0.1845  0.7134
 1503TIP3    H126000   1.585   5.256  13.409 -0.3250 -0.5958  0.7005
 1503TIP3    H226001   1.627   5.160  13.300  0.8219  0.8558 -0.1640
 1504TIP3   OH226002   4.054   2.501   6.105 -0.1966  0.4748  0.2152
 1504TIP3    H126003   4.014   2.588   6.115 -0.6214  0.0817  2.1741
 1504TIP3    H226004   3.979   2.441   6.103  0.0597  0.1936 -1.9105
 1505TIP3   OH226005   2.296   6.566   1.969  0.1336 -0.2608 -0.1106
 1505TIP3    H126006   2.220   6.510   1.989 -1.8834  1.9980 -1.1721
 1505TIP3    H226007   2.315   6.549   1.877  1.9200 -1.9189  0.5279
 1506TIP3   OH226008   2.974   3.836   2.263 -0.0574  0.7148  0.2048
 1506TIP3    H126009   2.928   3.834   2.179  1.0801  0.7857 -0.4342
 1506TIP3    H226010   3.066   3.851   2.240  0.3309  0.3224  1.4353
 1507TIP3   OH226011   5.024   1.570  16.259 -0.2394 -0.8172 -0.2336
 1507TIP3    H126012   4.988   1.650  16.221 -0.2939 -0.5818  0.3017
 1507TIP3    H226013   5.065   1.599  16.340  0.0250 -1.2834 -0.2010
 1508TIP3   OH226014   4.918   5.060  16.099  0.5042 -0.3946 -0.2259
 1508TIP3    H126015   4.873   5.143  16.083  0.0397 -0.1936  2.0231
 1508TIP3    H226016   5.007   5.075  16.068  0.2961  0.7838 -0.2658
 1509TIP3   OH226017   4.070   2.044  15.850 -0.2586  0.1388 -0.2778
 1509TIP3    H126018   4.078   1.948  15.853  0.2760  0.2118  0.7809
 1509TIP3    H226019   4.007   2.064  15.919 -0.3816  0.5532 -0.5135
 1510TIP3   OH226020   1.834   1.239   1.136 -0.0267  0.0004  0.8594
 1510TIP3    H126021   1.748   1.223   1.177  0.1435  1.0323  1.6366
 1510TIP3    H226022   1.814   1.292   1.059 -0.0689  0.4127  1.1525
 1511TIP3   OH226023   5.951   1.174  12.637 -0.1380  0.5566  0.5665
 1511TIP3    H126024   5.897   1.204  12.564  0.8539 -1.5794 -1.1222
 1511TIP3    H226025   5.910   1.212  12.715 -2.7571  0.7801 -0.8627
 1512TIP3   OH226026   4.443   2.881  15.784  0.0900 -0.0022 -0.4014
 1512TIP3    H126027   4.404   2.804  15.743 -0.4401  0.7661 -1.3686
 1512TIP3    H226028   4.523   2.897  15.735  1.5596 -1.4737  1.4747
 1513TIP3   OH226029   6.494   3.074   1.210 -0.3204 -0.4113 -0.6963
 1513TIP3    H126030   6.542   3.122   1.277 -2.1601  1.8467 -0.9537
 1513TIP3    H226031   6.558   3.060   1.140  0.8432 -0.3273  0.3469
 1514TIP3   OH226032   1.549   3.840   2.616  0.5469 -0.2163  0.3445
 1514TIP3    H126033   1.583   3.929   2.632 -0.6957  0.4584 -0.6417
 1514TIP3    H226034   1.501   3.848   2.533 -0.3507 -1.5937  0.7255
 1515TIP3   OH226035   1.796   2.690  16.687 -0.1874  0.0328  0.5097
 1515TIP3    H126036   1.787   2.595  16.691 -0.0220  0.0792  4.1213
 1515TIP3    H226037   1.890   2.706  16.696 -0.3426  0.5624  1.2302
 1516TIP3   OH226038   6.464   5.723  11.612 -0.2111 -0.1730  0.1013
 1516TIP3    H126039   6.510   5.806  11.597  0.5171 -0.9388 -2.0266
 1516TIP3    H226040   6.450   5.687  11.525  0.1078 -2.6553  1.0278
 1517TIP3   OH226041   4.109   6.152  12.327  0.5787  0.1731 -0.7411
 1517TIP3    H126042   4.151   6.130  12.409 -0.4076 -0.3778 -0.3739
 1517TIP3    H226043   4.141   6.086  12.265 -1.9936 -2.1129  0.2384
 1518TIP3   OH226044   4.227   0.457   5.979  0.0748 -0.4465 -0.0700
 1518TIP3    H126045   4.184   0.448   5.895  1.2897 -0.2482 -0.7252
 1518TIP3    H226046   4.259   0.547   5.980  0.7181 -0.6741  0.2776
 1519TIP3   OH226047   2.043   2.494  13.848  0.2097  0.1005 -0.2482
 1519TIP3    H126048   2.083   2.580  13.862  0.0484 -0.0904  1.4010
 1519TIP3    H226049   2.104   2.433  13.889  0.0530 -0.5260 -0.9482
 1520TIP3   OH226050   3.119   2.017   2.744 -0.7222  0.4224 -0.3418
 1520TIP3    H126051   3.082   1.974   2.667  0.1640 -2.1773  0.6077
 1520TIP3    H226052   3.207   1.978   2.753  0.8229  3.7483 -0.4339
 1521TIP3   OH226053   4.058   6.077   6.170 -0.1891 -0.0229  0.1967
 1521TIP3    H126054   3.990   6.043   6.228  0.8019 -0.6186  1.0195
 1521TIP3    H226055   4.115   6.130   6.227 -1.4707  2.7245 -0.9719
 1522TIP3   OH226056   5.526   2.637   2.675 -0.5157 -0.1465 -0.1994
 1522TIP3    H126057   5.589   2.705   2.700 -1.0808  0.1080  0.5488
 1522TIP3    H226058   5.547   2.563   2.731 -1.4526  0.2456  0.6684
 1523TIP3   OH226059   6.639   3.802  12.363  0.1785  0.3494  0.4714
 1523TIP3    H126060   6.603   3.884  12.328  1.8873  0.3051 -1.5063
 1523TIP3    H226061   6.733   3.808  12.346  0.7011 -0.9158  2.6569
 1524TIP3   OH226062   2.655   2.842  14.462 -0.0529 -0.0571 -0.3261
 1524TIP3    H126063   2.614   2.849  14.548  1.3330 -0.7352  0.4068
 1524TIP3    H226064   2.594   2.885  14.402 -1.3713 -0.2227  0.8852
 1525TIP3   OH226065   2.196   5.600   0.490 -0.0199 -0.4264 -0.5228
 1525TIP3    H126066   2.231   5.605   0.401  0.7654 -0.4538 -0.2209
 1525TIP3    H226067   2.273   5.608   0.546 -0.4636 -0.8198  0.1478
 1526TIP3   OH226068   1.787   5.006   5.194 -0.9329 -0.3394  0.1221
 1526TIP3    H126069   1.827   4.929   5.234 -2.5544 -0.7110  1.0755
 1526TIP3    H226070   1.793   5.074   5.261  0.2721  0.2978 -0.6257
 1527TIP3   OH226071   1.656   4.320   0.890  0.7273  0.4738  0.2855
 1527TIP3    H126072   1.600   4.282   0.822  1.8240 -0.6152 -0.0162
 1527TIP3    H226073   1.638   4.267   0.968  2.8825 -1.2533 -0.3511
 1528TIP3   OH226074   5.009   1.871  11.586  0.1051  0.0522 -0.1845
 1528TIP3    H126075   4.979   1.922  11.662  1.1061  1.2693 -0.5808
 1528TIP3    H226076   4.949   1.796  11.582 -1.6823  1.4244  0.1496
 1529TIP3   OH226077   0.031   2.892  12.682 -0.6536  0.2547 -0.4157
 1529TIP3    H126078   0.081   2.850  12.611  1.7553  0.0739  1.3327
 1529TIP3    H226079   0.008   2.978  12.647  0.6511  0.2389 -1.3671
 1530TIP3   OH226080   0.942   5.905  13.788 -0.4795 -1.1262 -0.3775
 1530TIP3    H126081   0.873   5.955  13.745 -1.1960  1.2373  3.2992
 1530TIP3    H226082   0.914   5.899  13.880  4.2300  0.0525  1.2657
 1531TIP3   OH226083   1.947   6.311   1.810  0.3616 -0.2252  0.1547
 1531TIP3    H126084   1.884   6.333   1.741  0.6125  0.2489  0.0673
 1531TIP3    H226085   1.955   6.216   1.807  0.0075 -0.2447 -0.1527
 1532TIP3   OH226086   3.674   3.739   0.698  0.2709  0.4514 -0.2685
 1532TIP3    H126087   3.660   3.724   0.791  1.4289  0.2721 -0.1210
 1532TIP3    H226088   3.591   3.776   0.667 -0.8576 -1.4278  0.4110
 1533TIP3   OH226089   5.933   0.584   2.209 -0.0581 -0.3593  0.3718
 1533TIP3    H126090   5.994   0.587   2.282  0.1195 -1.7161  0.2992
 1533TIP3    H226091   5.846   0.584   2.251  0.0639 -2.9974  0.6880
 1534TIP3   OH226092   6.750   5.880  15.184 -0.4632  0.1219 -0.1448
 1534TIP3    H126093   6.676   5.926  15.145 -0.3136  0.2506 -0.2776
 1534TIP3    H226094   6.817   5.880  15.116 -0.2487  0.2323  0.0640
 1535TIP3   OH226095   6.572   0.723  13.788 -0.0951 -0.4701 -0.1502
 1535TIP3    H126096   6.520   0.652  13.750 -0.6940  0.4708 -1.0948
 1535TIP3    H226097   6.508   0.791  13.811  0.5005 -0.1289  0.5271
 1536TIP3   OH226098   1.617   0.912  10.816 -0.2018  0.0724  0.0942
 1536TIP3    H126099   1.612   1.007  10.832 -0.5295 -0.1371  1.2823
 1536TIP3    H226100   1.707   0.889  10.838 -1.0138 -0.4588  3.2052
 1537TIP3   OH226101   1.911   2.122   5.283 -0.2772  0.0606  0.2307
 1537TIP3    H126102   1.927   2.107   5.376  0.1892  1.6233  0.4146
 1537TIP3    H226103   1.936   2.213   5.268  0.8136 -0.5236 -1.6906
 1538TIP3   OH226104   2.087   0.817  14.981 -0.5928 -0.1181 -0.3200
 1538TIP3    H126105   2.150   0.760  14.938 -0.9950 -0.7927 -0.0206
 1538TIP3    H226106   2.135   0.856  15.054 -0.5348 -0.6689 -0.0634
 1539TIP3   OH226107   0.231   2.317  15.613 -0.2806 -0.2600  0.2887
 1539TIP3    H126108   0.160   2.299  15.551 -0.2529 -1.5831  0.6407
 1539TIP3    H226109   0.278   2.234  15.621  1.6744  0.7420 -0.3963
 1540TIP3   OH226110   0.539   6.491   2.786 -0.6395  0.5924 -0.4760
 1540TIP3    H126111   0.546   6.405   2.744 -0.9200  0.5213 -0.3769
 1540TIP3    H226112   0.629   6.513   2.809 -0.5345  0.4432 -0.7412
 1541TIP3   OH226113   3.640   4.180  17.272  0.6313 -0.6451  0.3707
 1541TIP3    H126114   3.606   4.239  17.339  1.8991  0.3485  0.1420
 1541TIP3    H226115   3.665   4.237  17.200 -1.8316 -1.7971 -1.4549
 1542TIP3   OH226116   4.056   5.261  12.425  0.1297 -0.1965  0.4494
 1542TIP3    H126117   4.141   5.253  12.468  2.2268  2.4870 -2.8865
 1542TIP3    H226118   4.065   5.209  12.345 -1.1281  0.7020 -0.2900
 1543TIP3   OH226119   6.583   4.781  11.665 -0.1696 -0.6468  0.5671
 1543TIP3    H126120   6.620   4.748  11.748 -0.8620 -0.1467  1.0722
 1543TIP3    H226121   6.524   4.851  11.691 -0.9009 -0.9318 -0.3048
 1544TIP3   OH226122   6.174   6.170   2.710 -0.2537 -0.2555 -0.1318
 1544TIP3    H126123   6.110   6.236   2.684  0.0376  0.0728 -0.0268
 1544TIP3    H226124   6.183   6.181   2.805 -1.0798 -1.2367  0.0704
 1545TIP3   OH226125   1.898   2.073  13.276 -0.1730 -0.0099 -0.1970
 1545TIP3    H126126   1.950   2.018  13.218  0.0699 -0.9270  0.8796
 1545TIP3    H226127   1.963   2.130  13.319 -0.1178 -0.7420  0.6985
 1546TIP3   OH226128   0.057   0.097   1.486 -0.0872 -0.0555  0.0891
 1546TIP3    H126129   0.061   0.066   1.576 -1.1516 -1.6121 -0.3618
 1546TIP3    H226130  -0.035   0.123   1.474 -0.1341 -0.6056 -0.7731
 1547TIP3   OH226131   1.446   0.905   1.494  0.3956 -0.3451  0.0530
 1547TIP3    H126132   1.455   0.975   1.559  0.7533 -2.2802  2.1340
 1547TIP3    H226133   1.529   0.906   1.446  0.6079  0.2995  0.4262
 1548TIP3   OH226134   3.247   5.390   0.303  0.0693 -0.0468 -0.3911
 1548TIP3    H126135   3.220   5.354   0.387  1.5346 -2.0509 -0.7312
 1548TIP3    H226136   3.205   5.476   0.298  0.0172  0.1248  2.4088
 1549TIP3   OH226137   6.490   3.078  12.779  0.2995  0.5446 -0.4469
 1549TIP3    H126138   6.514   3.138  12.708  0.2790  1.1228  0.0300
 1549TIP3    H226139   6.395   3.081  12.782  0.3158  0.8253 -0.1403
 1550TIP3   OH226140   1.567   2.030   0.104  0.0513  0.3557  0.1845
 1550TIP3    H126141   1.477   2.009   0.079 -0.4121  1.8810  0.5514
 1550TIP3    H226142   1.591   1.962   0.167  0.0016 -1.4515 -1.6634
 1551TIP3   OH226143   2.101   4.692   1.905  0.1153 -0.0422  0.2445
 1551TIP3    H126144   2.126   4.712   1.996 -0.6297 -0.0873  0.4579
 1551TIP3    H226145   2.093   4.597   1.903 -0.8702  0.0344  0.3902
 1552TIP3   OH226146   2.698   2.665   2.760 -0.7442 -0.5659 -0.8987
 1552TIP3    H126147   2.640   2.720   2.813 -1.2538  0.0638 -2.1100
 1552TIP3    H226148   2.786   2.698   2.780 -0.7605 -1.6045  1.0347
 1553TIP3   OH226149   4.502   6.741  15.110  0.3265  0.1516 -0.0466
 1553TIP3    H126150   4.570   6.809  15.103  0.0734  0.1879 -2.2825
 1553TIP3    H226151   4.424   6.789  15.139  0.5185  0.5641 -0.2063
 1554TIP3   OH226152   0.829   3.942  15.147 -0.5292 -0.1428 -0.0091
 1554TIP3    H126153   0.765   3.870  15.149  0.5536 -1.1009  0.6987
 1554TIP3    H226154   0.848   3.959  15.240 -1.2422  1.4845 -0.1458
 1555TIP3   OH226155   0.006   4.219  16.559  0.3418  0.1681  0.4451
 1555TIP3    H126156  -0.083   4.253  16.569  0.1876 -0.0155 -0.3269
 1555TIP3    H226157   0.055   4.263  16.629 -0.2318  0.6669  0.5493
 1556TIP3   OH226158   3.369   6.763   6.165 -0.1196 -0.1388 -0.1425
 1556TIP3    H126159   3.314   6.812   6.103  1.7190  3.2340  0.7599
 1556TIP3    H226160   3.405   6.691   6.113 -0.9632  0.8762 -2.1995
 1557TIP3   OH226161   1.748   3.574  12.832 -0.4152  1.2674  0.1060
 1557TIP3    H126162   1.665   3.550  12.873 -0.1088 -0.0044 -0.0037
 1557TIP3    H226163   1.740   3.544  12.742  0.1077  1.2640  0.0597
 1558TIP3   OH226164   6.102   6.727   5.483  0.1818 -0.4332  0.1251
 1558TIP3    H126165   6.196   6.732   5.464  0.4400  1.5133  1.7870
 1558TIP3    H226166   6.061   6.776   5.411  0.4427 -0.9880 -0.4112
 1559TIP3   OH226167   1.505   5.535  15.555  0.3881  0.5998 -0.0266
 1559TIP3    H126168   1.505   5.579  15.640  1.5888  1.1606 -0.3031
 1559TIP3    H226169   1.536   5.601  15.494  0.3094 -0.0434 -0.7733
 1560TIP3   OH226170   6.662   3.368   5.441 -0.1822  0.5523 -0.5491
 1560TIP3    H126171   6.693   3.339   5.526  1.3105  2.4447 -0.4038
 1560TIP3    H226172   6.736   3.351   5.382 -0.1160  1.9277 -0.8807
 1561TIP3   OH226173   6.113   5.502   0.253  0.6031  0.1814 -0.2423
 1561TIP3    H126174   6.137   5.429   0.195  0.2645  0.0091 -0.1666
 1561TIP3    H226175   6.122   5.580   0.198  0.0922  0.0002 -0.5860
 1562TIP3   OH226176   3.453   6.226   4.828 -0.7460 -0.0368 -0.3320
 1562TIP3    H126177   3.421   6.235   4.918  1.2201 -2.7567  0.7171
 1562TIP3    H226178   3.537   6.273   4.828  0.1429 -1.5742 -0.1889
 1563TIP3   OH226179   6.713   1.709  16.230 -0.0507  0.6946  0.3066
 1563TIP3    H126180   6.786   1.735  16.287 -0.1465  0.5158  0.5110
 1563TIP3    H226181   6.636   1.751  16.268 -0.3494 -0.5636  1.1329
 1564TIP3   OH226182   0.599   1.536  14.152 -0.1938  0.3347 -0.3952
 1564TIP3    H126183   0.637   1.549  14.065  1.8556 -0.6330  0.3243
 1564TIP3    H226184   0.554   1.451  14.146  1.8186 -0.7921  0.0956
 1565TIP3   OH226185   4.985   3.719  17.243  0.2976 -0.0743  0.3768
 1565TIP3    H126186   5.077   3.737  17.263  0.7856  0.3993 -2.1112
 1565TIP3    H226187   4.940   3.802  17.258  0.5892  0.1847 -0.1942
 1566TIP3   OH226188   3.897   0.768  15.375  0.0424  0.0646  0.0669
 1566TIP3    H126189   3.868   0.704  15.439  2.4558 -1.9304 -0.7540
 1566TIP3    H226190   3.866   0.734  15.291 -0.4042  1.0368 -0.1690
 1567TIP3   OH226191   1.033   5.476  15.392  0.1667  0.4512  0.3823
 1567TIP3    H126192   1.105   5.448  15.448  0.2463 -0.8330 -0.3535
 1567TIP3    H226193   1.075   5.526  15.322  0.2870  0.1473  0.2384
 1568TIP3   OH226194   5.259   0.987  15.589  0.0149  0.4059  0.9477
 1568TIP3    H126195   5.306   0.909  15.618  0.3970 -0.2138 -1.1898
 1568TIP3    H226196   5.274   0.990  15.494 -0.2106  2.9429  0.9481
 1569TIP3   OH226197   2.508   1.047   0.338 -0.6438 -0.1805 -0.2429
 1569TIP3    H126198   2.540   1.137   0.334  0.7166 -0.6907 -1.2992
 1569TIP3    H226199   2.587   0.994   0.327 -1.0578 -1.5556  2.7730
 1570TIP3   OH226200   4.972   2.173   1.794  0.0274 -0.0811 -0.1552
 1570TIP3    H126201   5.068   2.169   1.786  0.2641  1.5489  1.5226
 1570TIP3    H226202   4.943   2.209   1.711  0.9133 -0.1861 -0.5207
 1571TIP3   OH226203   3.907   3.933   1.244 -0.1922  0.0331  0.2030
 1571TIP3    H126204   3.813   3.926   1.259 -0.0743  0.1275  0.9913
 1571TIP3    H226205   3.915   3.982   1.162 -0.8372 -0.4559 -0.1534
 1572TIP3   OH226206   2.426   4.338  17.220 -0.0010  0.4916 -0.3723
 1572TIP3    H126207   2.455   4.300  17.136 -0.4815  0.3802 -0.4887
 1572TIP3    H226208   2.385   4.265  17.266  1.2103  0.2850  0.4176
 1573TIP3   OH226209   4.330   1.458   5.098 -0.7737 -0.4242 -0.1190
 1573TIP3    H126210   4.382   1.398   5.151 -0.3164  0.3296  0.2872
 1573TIP3    H226211   4.259   1.403   5.063  0.2735 -1.4539 -0.6647
 1574TIP3   OH226212   3.374   4.361   1.605 -0.2013  0.0536  0.3273
 1574TIP3    H126213   3.425   4.441   1.620  1.2157 -0.7854 -0.0099
 1574TIP3    H226214   3.357   4.361   1.511  2.6539 -1.7160 -0.2518
 1575TIP3   OH226215   1.356   5.219  10.975 -0.1878 -0.1115 -0.5317
 1575TIP3    H126216   1.434   5.255  10.932 -0.9072  0.4453 -1.3828
 1575TIP3    H226217   1.391   5.164  11.045  0.9632  1.3456  0.0773
 1576TIP3   OH226218   1.654   3.841   5.048 -0.1863 -0.3638 -0.6315
 1576TIP3    H126219   1.585   3.781   5.020 -0.1884 -0.3012 -0.7612
 1576TIP3    H226220   1.734   3.805   5.011  0.2012 -1.7083  1.4110
 1577TIP3   OH226221   5.266   6.108   3.967 -0.6603 -0.3081  0.4200
 1577TIP3    H126222   5.361   6.123   3.968 -0.4826 -1.0847 -1.7390
 1577TIP3    H226223   5.248   6.066   4.051  0.8860 -0.0015  0.9310
 1578TIP3   OH226224   5.404   3.646  10.620  0.2500  0.4475 -0.0664
 1578TIP3    H126225   5.314   3.613  10.626  0.8465 -1.0600  0.7490
 1578TIP3    H226226   5.396   3.729  10.572 -1.6824  0.7451  0.7301
 1579TIP3   OH226227   5.047   1.126   4.805 -0.0797  0.4442  0.1044
 1579TIP3    H126228   4.996   1.165   4.734 -1.3216  0.4756  0.9967
 1579TIP3    H226229   5.063   1.199   4.865  2.0076  0.6923 -0.7074
 1580TIP3   OH226230   0.346   3.447  13.689  0.2747  0.0546  0.8742
 1580TIP3    H126231   0.417   3.480  13.744  1.3731  0.4277 -0.7412
 1580TIP3    H226232   0.368   3.355  13.673  1.0929  0.4926 -0.6608
 1581TIP3   OH226233   0.262   0.719   4.287 -0.0412  0.4568  0.4026
 1581TIP3    H126234   0.324   0.771   4.235 -0.0405 -0.5502 -0.6324
 1581TIP3    H226235   0.188   0.704   4.227  0.0807 -0.9459  0.6030
 1582TIP3   OH226236   2.546   6.661   1.630 -0.0217 -0.4931  0.2452
 1582TIP3    H126237   2.568   6.676   1.538 -0.5676  0.6567  0.2897
 1582TIP3    H226238   2.628   6.677   1.677 -0.0440  0.1693  0.0685
 1583TIP3   OH226239   2.928   6.647  11.188 -0.5150 -0.1188 -0.7391
 1583TIP3    H126240   2.863   6.578  11.177  0.9496 -1.7365  0.4944
 1583TIP3    H226241   2.994   6.609  11.245  1.8682  1.2546 -2.4772
 1584TIP3   OH226242   3.323   2.033   5.788 -0.0092 -0.6299 -0.2635
 1584TIP3    H126243   3.307   1.943   5.817 -2.1774  0.0791  0.8948
 1584TIP3    H226244   3.265   2.044   5.713 -1.5593  0.5027  1.0540
 1585TIP3   OH226245   6.018   3.813  15.182 -0.1556  0.1354  0.4483
 1585TIP3    H126246   6.088   3.756  15.151  0.3724  0.3193  1.2954
 1585TIP3    H226247   6.017   3.801  15.277 -1.6333 -0.2814  0.3976
 1586TIP3   OH226248   2.775   0.023  15.218  0.4327  0.2481 -0.1622
 1586TIP3    H126249   2.801   0.023  15.310 -0.4387 -0.4335  0.0950
 1586TIP3    H226250   2.822   0.096  15.179 -2.2754  3.1241  1.7038
 1587TIP3   OH226251   3.819   3.965  12.675 -0.3259 -0.5254 -0.3957
 1587TIP3    H126252   3.741   3.938  12.723 -0.6936  1.4089  0.1485
 1587TIP3    H226253   3.786   3.996  12.591 -0.2203  0.6942 -0.0042
 1588TIP3   OH226254   5.793   5.065  16.905 -0.2874 -0.1963 -0.4323
 1588TIP3    H126255   5.731   5.089  16.975 -1.4548 -0.8668 -1.2403
 1588TIP3    H226256   5.879   5.085  16.943 -0.9753  0.7137  0.7109
 1589TIP3   OH226257   5.451   3.171  12.559  0.4988 -0.0866  0.6409
 1589TIP3    H126258   5.458   3.120  12.478  2.2930  0.1848  0.6209
 1589TIP3    H226259   5.468   3.108  12.629 -3.0594 -0.7850  0.9727
 1590TIP3   OH226260   1.515   3.698  11.761 -0.3075  0.0957 -0.1272
 1590TIP3    H126261   1.554   3.646  11.691 -1.4607 -0.8663 -0.0766
 1590TIP3    H226262   1.569   3.679  11.838 -0.6024 -0.8845 -0.1558
 1591TIP3   OH226263   5.323   4.612   4.521  0.3913 -0.1716 -0.0867
 1591TIP3    H126264   5.375   4.551   4.470  2.8949 -0.4624  2.6588
 1591TIP3    H226265   5.358   4.698   4.499  0.3294 -0.1497 -0.0998
 1592TIP3   OH226266   3.498   2.584  16.852  0.3206 -0.0520  0.3931
 1592TIP3    H126267   3.405   2.566  16.834  0.6805 -0.0215 -1.6842
 1592TIP3    H226268   3.497   2.640  16.929 -1.4469  0.6873 -0.1398
 1593TIP3   OH226269   1.444   5.159  14.066  0.0750 -0.6900  0.0462
 1593TIP3    H126270   1.447   5.064  14.055 -1.5114 -0.8465  0.8467
 1593TIP3    H226271   1.482   5.175  14.153  1.2320 -0.5001 -0.4862
 1594TIP3   OH226272   6.249   1.007  16.110 -0.6095 -0.4305 -0.2180
 1594TIP3    H126273   6.294   0.936  16.157 -1.4684 -0.2262  0.9476
 1594TIP3    H226274   6.157   0.997  16.135 -0.9224  0.3257 -1.0573
 1595TIP3   OH226275   5.504   4.086   4.937  0.0159  0.2107 -0.2050
 1595TIP3    H126276   5.485   4.096   5.030 -2.3374 -2.6116 -0.2921
 1595TIP3    H226277   5.428   4.038   4.903  2.3857 -1.7443 -2.9096
 1596TIP3   OH226278   3.202   4.927  14.405 -0.3345 -0.6598 -0.1033
 1596TIP3    H126279   3.244   4.929  14.319 -0.2118  0.4245 -0.0242
 1596TIP3    H226280   3.257   4.983  14.460 -1.2392 -0.1465  0.2953
 1597TIP3   OH226281   6.528   3.941   4.744  0.0822 -0.6431  0.4170
 1597TIP3    H126282   6.612   3.945   4.699 -0.0119  0.0917  0.2918
 1597TIP3    H226283   6.525   3.854   4.783  0.6636 -0.8662 -0.0367
 1598TIP3   OH226284   2.567   3.519  16.393  0.2675 -0.2824 -0.1837
 1598TIP3    H126285   2.655   3.503  16.360  0.0338  1.3344 -1.7173
 1598TIP3    H226286   2.580   3.566  16.475  0.8508 -1.6042  0.4792
 1599TIP3   OH226287   0.810   2.295  10.434 -0.3150  0.8360 -0.7621
 1599TIP3    H126288   0.824   2.333  10.348  1.3399 -0.3511 -1.0394
 1599TIP3    H226289   0.878   2.334  10.489  1.1011 -1.2836 -0.9357
 1600TIP3   OH226290   1.244   2.280  12.097 -0.1058  0.1602  0.1761
 1600TIP3    H126291   1.153   2.283  12.066  0.5929  0.7876 -1.8935
 1600TIP3    H226292   1.281   2.202  12.055  0.2185 -0.3125  1.3177
 1601TIP3   OH226293   6.345   5.716  16.882 -0.0359 -0.7784  0.1514
 1601TIP3    H126294   6.327   5.651  16.813 -0.7279  0.3731 -0.7736
 1601TIP3    H226295   6.412   5.772  16.845  0.2318 -0.6831  0.7738
 1602TIP3   OH226296   0.942   6.658   3.497  0.3447 -0.2590 -0.2395
 1602TIP3    H126297   0.983   6.580   3.535  0.0659 -0.9096 -1.2680
 1602TIP3    H226298   0.867   6.675   3.554  1.0674 -0.0415  0.6716
 1603TIP3   OH226299   3.104   6.325  16.795  0.5415  0.0606 -0.1402
 1603TIP3    H126300   3.158   6.388  16.746  0.7267  0.0252  0.0182
 1603TIP3    H226301   3.090   6.366  16.880 -0.5964  0.5598 -0.5518
 1604TIP3   OH226302   0.690   3.432   1.631 -0.9884  0.1955 -0.0661
 1604TIP3    H126303   0.631   3.455   1.703  0.2563  2.3139  0.3136
 1604TIP3    H226304   0.638   3.449   1.552 -1.7159 -0.3347  0.2865
 1605TIP3   OH226305   3.409   4.785   2.391 -0.3786 -0.0693  0.4396
 1605TIP3    H126306   3.440   4.876   2.394  1.9937 -0.8380  0.4137
 1605TIP3    H226307   3.343   4.784   2.322  0.0064  1.5156  0.0310
 1606TIP3   OH226308   0.020   5.212   3.955  0.5226  0.1769  0.9477
 1606TIP3    H126309   0.108   5.235   3.984  0.5019 -0.2433  1.3537
 1606TIP3    H226310   0.031   5.131   3.905  0.2399 -0.4471  1.8723
 1607TIP3   OH226311   2.308   2.839   1.229  0.0153  0.9336  0.2381
 1607TIP3    H126312   2.366   2.770   1.196  0.1669  1.4271 -0.5393
 1607TIP3    H226313   2.250   2.858   1.155 -1.8117 -0.2672  1.3279
 1608TIP3   OH226314   2.616   4.028  17.139 -0.4799 -0.0269 -0.2580
 1608TIP3    H126315   2.673   4.037  17.062 -0.7568 -1.5370 -0.6545
 1608TIP3    H226316   2.530   4.055  17.108 -0.5381 -0.3902 -0.4210
 1609TIP3   OH226317   5.998   4.539   3.297  0.3568 -0.3341  0.2897
 1609TIP3    H126318   5.937   4.466   3.286 -0.7573  0.5575  0.5304
 1609TIP3    H226319   6.025   4.534   3.389  0.7115 -0.7856  0.1591
 1610TIP3   OH226320   1.655   3.378   5.658  0.0357 -1.0422 -0.4107
 1610TIP3    H126321   1.695   3.379   5.745  1.0560  0.7044 -0.8813
 1610TIP3    H226322   1.727   3.361   5.598 -0.6089 -1.8995 -0.9537
 1611TIP3   OH226323   6.503   1.961  11.419 -0.2067 -0.0507  0.0241
 1611TIP3    H126324   6.425   2.015  11.405  1.0857  1.6269 -0.8989
 1611TIP3    H226325   6.473   1.872  11.404 -1.5375  0.7306 -2.2277
 1612TIP3   OH226326   2.225   4.970   6.141  0.6073  0.2836  0.1455
 1612TIP3    H126327   2.279   5.044   6.167 -0.6293  1.1072  0.4184
 1612TIP3    H226328   2.160   5.007   6.080  1.6188 -1.0652 -1.8180
 1613TIP3   OH226329   5.070   1.645   5.890 -0.1496  0.1316  0.7884
 1613TIP3    H126330   5.085   1.683   5.976 -1.3150  0.2977  0.9213
 1613TIP3    H226331   5.032   1.715   5.838  0.3381 -0.0326  0.1951
 1614TIP3   OH226332   6.056   6.573   1.809 -0.3341  0.0418  0.5014
 1614TIP3    H126333   6.142   6.537   1.789  0.0980  0.7144  1.1106
 1614TIP3    H226334   6.074   6.661   1.842 -1.4595  1.3762 -2.2625
 1615TIP3   OH226335   4.426   2.093  13.085 -0.4514  0.3957  0.1994
 1615TIP3    H126336   4.403   2.006  13.116  2.5910 -0.6478 -0.3394
 1615TIP3    H226337   4.446   2.143  13.164 -2.0183  0.6010  0.4931
 1616TIP3   OH226338   0.808   4.215   3.527 -0.9619  0.0720 -0.4131
 1616TIP3    H126339   0.727   4.238   3.480 -0.2392 -0.3209 -1.8896
 1616TIP3    H226340   0.818   4.121   3.510  0.0189  0.2075 -0.5649
 1617TIP3   OH226341   5.889   2.972  13.166  0.4012 -0.2365 -0.7246
 1617TIP3    H126342   5.817   3.035  13.176  0.0460 -0.8229  0.3799
 1617TIP3    H226343   5.868   2.926  13.085 -1.4258 -1.6359  0.5146
 1618TIP3   OH226344   5.175   0.384   6.456  0.1165  0.2912 -0.0538
 1618TIP3    H126345   5.132   0.405   6.373  1.0567  5.1474  0.5552
 1618TIP3    H226346   5.107   0.399   6.522  0.5465  0.4414  0.3546
 1619TIP3   OH226347   4.770   2.380   1.860 -0.1931 -0.5963  0.1371
 1619TIP3    H126348   4.830   2.324   1.910  2.1741 -1.0526 -3.0225
 1619TIP3    H226349   4.700   2.321   1.831 -0.0298 -0.9554  0.4694
 1620TIP3   OH226350   1.772   2.179   2.762  0.3115  0.2935 -0.2584
 1620TIP3    H126351   1.862   2.172   2.794 -0.5388  1.6978  2.6607
 1620TIP3    H226352   1.729   2.100   2.795  0.0885  0.3834 -0.3346
 1621TIP3   OH226353   3.451   1.694   0.730  0.6668 -0.5523 -0.3726
 1621TIP3    H126354   3.394   1.731   0.662 -0.3407 -1.1203  0.1469
 1621TIP3    H226355   3.533   1.740   0.720 -0.7176  2.2078  0.5817
 1622TIP3   OH226356   2.749   5.263   2.899  0.1951  0.0620 -0.0689
 1622TIP3    H126357   2.703   5.347   2.892  1.0981  0.6922  1.2950
 1622TIP3    H226358   2.680   5.200   2.922 -0.0948  0.9071  1.4910
 1623TIP3   OH226359   2.330   0.565   5.158 -0.7097  0.2500  0.0063
 1623TIP3    H126360   2.398   0.631   5.145 -1.3965  1.2127  1.2125
 1623TIP3    H226361   2.370   0.502   5.218 -0.2726 -0.1267 -0.6670
 1624TIP3   OH226362   0.946   5.907  15.412  0.2015  0.1171 -0.1917
 1624TIP3    H126363   0.899   5.949  15.340  0.4909  0.9803  0.1147
 1624TIP3    H226364   0.985   5.829  15.373  0.5118  0.6772 -1.0187
 1625TIP3   OH226365   5.846   2.757   1.307 -0.1510  0.6275 -0.0712
 1625TIP3    H126366   5.883   2.679   1.348 -0.8522 -1.0591 -2.5373
 1625TIP3    H226367   5.850   2.824   1.375  1.3012 -1.3054  1.8082
 1626TIP3   OH226368   4.488   1.327   5.286 -0.3156  0.1293 -0.5333
 1626TIP3    H126369   4.544   1.403   5.299 -0.4623  1.1222 -4.9178
 1626TIP3    H226370   4.548   1.252   5.285  0.2463  0.5646  0.1339
 1627TIP3   OH226371   2.739   3.907  12.294  0.4226  0.5103 -0.2920
 1627TIP3    H126372   2.711   3.847  12.225 -2.4041  1.6340 -0.2284
 1627TIP3    H226373   2.669   3.973  12.297  0.8152  0.8706  3.1472
 1628TIP3   OH226374   6.818   4.957   6.344 -0.1231 -0.0620  0.4508
 1628TIP3    H126375   6.830   5.048   6.372 -2.0226  0.7880 -1.3699
 1628TIP3    H226376   6.902   4.933   6.305  0.9622  0.3070  2.4969
 1629TIP3   OH226377   1.156   1.279  12.890  0.2695  0.5173  0.2333
 1629TIP3    H126378   1.100   1.355  12.876 -0.2555  0.1555  0.3389
 1629TIP3    H226379   1.233   1.294  12.835 -0.1058  0.8407 -0.2039
 1630TIP3   OH226380   3.687   1.389   1.418 -0.4569 -0.2261  0.3846
 1630TIP3    H126381   3.629   1.447   1.369 -1.8078 -0.8266  1.2428
 1630TIP3    H226382   3.746   1.448   1.466 -0.7924  0.3982  0.0291
 1631TIP3   OH226383   3.604   5.188  17.218  0.4511  0.2881  0.7084
 1631TIP3    H126384   3.655   5.114  17.252  2.6350 -0.5889 -3.9403
 1631TIP3    H226385   3.516   5.152  17.207  1.3264 -1.5185 -0.8467
 1632TIP3   OH226386   3.700   2.360  16.939 -0.3598  0.3461  0.1614
 1632TIP3    H126387   3.640   2.407  16.881 -1.0069  0.6638  1.0735
 1632TIP3    H226388   3.679   2.268  16.926  0.6703  0.3096 -1.3741
 1633TIP3   OH226389   6.136   3.740  16.914  1.2321 -0.0135  0.1842
 1633TIP3    H126390   6.176   3.796  16.981  1.3240 -3.8869  3.5383
 1633TIP3    H226391   6.207   3.720  16.853  1.7291  1.6621  0.1879
 1634TIP3   OH226392   2.451   5.939  11.506 -0.4700 -0.2749  0.4318
 1634TIP3    H126393   2.500   5.859  11.524  1.8029  0.4432 -2.2455
 1634TIP3    H226394   2.384   5.913  11.442  0.0135 -0.1247 -0.1363
 1635TIP3   OH226395   5.881   3.821  13.643 -0.0255  0.6630  0.0626
 1635TIP3    H126396   5.814   3.818  13.575  0.6684  0.5554 -0.6190
 1635TIP3    H226397   5.930   3.739  13.632 -0.2691  0.3643  1.0676
 1636TIP3   OH226398   1.565   1.609   1.561  0.4653 -0.1241  0.7032
 1636TIP3    H126399   1.520   1.683   1.522  0.5115 -0.5799 -0.2321
 1636TIP3    H226400   1.548   1.617   1.655 -1.2635 -0.0980  0.4000
 1637TIP3   OH226401   1.142   1.637   4.552 -0.5428  0.0145  0.5462
 1637TIP3    H126402   1.062   1.592   4.525  0.3218 -1.7940  0.8741
 1637TIP3    H226403   1.118   1.729   4.556 -2.2586 -0.3557 -0.6018
 1638TIP3   OH226404   4.789   2.850   0.302 -0.2716 -0.6998  0.1915
 1638TIP3    H126405   4.847   2.800   0.244  0.5366  0.1061  0.2939
 1638TIP3    H226406   4.712   2.869   0.249  0.1828 -0.5305 -0.4107
 1639TIP3   OH226407   6.767   1.989  16.050 -0.2432 -0.2332  0.5152
 1639TIP3    H126408   6.837   1.934  16.087  0.0678 -1.0228 -1.2086
 1639TIP3    H226409   6.814   2.060  16.005 -0.5572 -0.4802 -0.2052
 1640TIP3   OH226410   4.588   2.834   3.164  0.1069 -0.2820 -0.1019
 1640TIP3    H126411   4.536   2.862   3.239  0.0870 -1.5689  0.3875
 1640TIP3    H226412   4.664   2.892   3.163 -0.8471  0.9924 -0.2523
 1641TIP3   OH226413   1.430   1.399  11.271  0.4929 -0.3166  0.3293
 1641TIP3    H126414   1.375   1.357  11.337  1.0377  0.5652  1.3557
 1641TIP3    H226415   1.428   1.339  11.197 -0.6226 -1.0238  0.9165
 1642TIP3   OH226416   1.201   5.528   3.996  0.3351  0.0021 -0.7982
 1642TIP3    H126417   1.183   5.615   3.960  1.2722  0.4445 -0.1920
 1642TIP3    H226418   1.222   5.543   4.088  1.0311 -0.8068 -0.8155
 1643TIP3   OH226419   2.737   3.204  16.398  0.6400 -0.5271 -0.1961
 1643TIP3    H126420   2.794   3.129  16.417  1.1815 -0.1130 -0.1897
 1643TIP3    H226421   2.679   3.209  16.474  0.8246 -0.7299 -0.0408
 1644TIP3   OH226422   6.674   5.159  11.749  0.4178  0.5476  0.2177
 1644TIP3    H126423   6.616   5.091  11.784  0.3686  1.4284  1.8319
 1644TIP3    H226424   6.753   5.111  11.724 -0.5416 -0.4849 -0.9727
 1645TIP3   OH226425   0.386   4.025  10.552 -0.0594 -0.4111  0.2793
 1645TIP3    H126426   0.385   3.939  10.510 -0.6257 -1.3953  2.2021
 1645TIP3    H226427   0.430   4.010  10.636  1.2428  1.5270 -0.0105
 1646TIP3   OH226428   5.636   6.337   0.469 -0.0297 -0.0950 -0.5205
 1646TIP3    H126429   5.646   6.305   0.380  0.2090 -1.1361 -0.1184
 1646TIP3    H226430   5.579   6.414   0.460 -0.4795 -0.5336 -1.4980
 1647TIP3   OH226431   3.994   3.143   3.580  0.1849  0.0190 -0.4174
 1647TIP3    H126432   3.937   3.113   3.650  1.6680 -1.1385  0.3369
 1647TIP3    H226433   3.941   3.204   3.529 -0.2349  2.6739  3.0080
 1648TIP3   OH226434   2.933   0.514   3.851 -0.0694  0.1863  0.1409
 1648TIP3    H126435   2.940   0.458   3.774  1.4849  1.5883 -0.7727
 1648TIP3    H226436   3.012   0.497   3.901  0.3071  1.3699 -0.0307
 1649TIP3   OH226437   5.834   6.165   6.503  0.0924  0.2209  0.0143
 1649TIP3    H126438   5.929   6.168   6.511  0.3642 -3.9385 -0.3946
 1649TIP3    H226439   5.805   6.255   6.518  4.1439  1.7730 -0.9850
 1650TIP3   OH226440   5.438   0.760  15.979 -0.5045  0.4373  0.3206
 1650TIP3    H126441   5.489   0.827  16.023  1.1001 -0.3788 -0.2480
 1650TIP3    H226442   5.392   0.807  15.909 -0.2630  1.1304  0.6238
 1651TIP3   OH226443   0.215   0.262  15.110 -0.2143 -0.5270  0.0589
 1651TIP3    H126444   0.283   0.328  15.092 -0.2091 -0.1502  1.4690
 1651TIP3    H226445   0.160   0.301  15.178 -1.5688 -1.0380 -0.7194
 1652TIP3   OH226446   2.723   4.814  14.201 -0.0652  0.7694  0.3772
 1652TIP3    H126447   2.677   4.834  14.282  0.8021  0.0362  1.0590
 1652TIP3    H226448   2.653   4.807  14.135 -0.8526  0.4835  1.2268
 1653TIP3   OH226449   3.705   4.092  16.761  0.1230  0.3286  0.3517
 1653TIP3    H126450   3.745   4.035  16.827 -1.6585 -0.6977  0.5773
 1653TIP3    H226451   3.611   4.076  16.769 -0.2482  1.5923 -1.1703
 1654TIP3   OH226452   0.954   4.600  11.945 -0.2732  0.0145 -0.0916
 1654TIP3    H126453   0.865   4.571  11.928  0.2770 -1.6388 -0.2435
 1654TIP3    H226454   0.950   4.645  12.029 -1.8633  2.9110 -1.6214
 1655TIP3   OH226455   4.595   0.877   0.542 -0.2530 -0.7402  0.0463
 1655TIP3    H126456   4.604   0.886   0.637 -0.0991 -0.4046 -0.0010
 1655TIP3    H226457   4.543   0.952   0.515  0.0138 -0.6365 -0.1833
 1656TIP3   OH226458   4.360   6.808   0.325  0.1115 -0.2046 -0.0791
 1656TIP3    H126459   4.389   6.755   0.251 -0.1599  0.2412 -0.5050
 1656TIP3    H226460   4.300   6.873   0.287 -0.3912 -0.2680  0.5995
 1657TIP3   OH226461   4.483   3.708  14.480 -0.2632 -0.4214  0.0232
 1657TIP3    H126462   4.421   3.635  14.484  1.0836 -1.6665 -1.1013
 1657TIP3    H226463   4.481   3.736  14.389 -1.0312  1.2011  0.5227
 1658TIP3   OH226464   2.315   0.486   0.290 -0.1753 -0.0476 -0.5646
 1658TIP3    H126465   2.317   0.471   0.195  1.5809 -2.3188 -0.1991
 1658TIP3    H226466   2.407   0.487   0.317 -0.6486  0.8445  1.0898
 1659TIP3   OH226467   4.132   2.202   5.150 -0.0495  0.0765 -0.0672
 1659TIP3    H126468   4.205   2.236   5.099 -0.5006  2.3875  0.7469
 1659TIP3    H226469   4.153   2.226   5.241 -2.0787  1.3678  0.1026
 1660TIP3   OH226470   6.748   4.176  10.686 -0.2073 -0.3581 -0.2873
 1660TIP3    H126471   6.722   4.142  10.601  0.1693  0.0980 -0.5892
 1660TIP3    H226472   6.722   4.108  10.748  1.7401 -1.7916 -1.0044
 1661TIP3   OH226473   3.609   4.482   5.232  0.0223 -0.2882  0.0593
 1661TIP3    H126474   3.592   4.505   5.140  0.5610  0.9487  0.2624
 1661TIP3    H226475   3.667   4.406   5.228  1.9534  1.1971 -0.6295
 1662TIP3   OH226476   5.621   6.109  13.226 -0.4688 -0.2755 -0.7650
 1662TIP3    H126477   5.685   6.112  13.155  0.8984  2.9767  0.5020
 1662TIP3    H226478   5.673   6.090  13.304 -1.6014 -1.2893 -0.2436
 1663TIP3   OH226479   5.937   4.207  16.372  0.1535 -0.7666 -0.1081
 1663TIP3    H126480   5.995   4.264  16.322  0.3342 -1.0582 -0.2330
 1663TIP3    H226481   5.995   4.160  16.432 -0.0127 -0.7158  0.0949
 1664TIP3   OH226482   2.850   1.421  13.316  0.3241  0.3162  0.2637
 1664TIP3    H126483   2.768   1.410  13.267  0.8145  1.8965 -0.9486
 1664TIP3    H226484   2.910   1.461  13.253  1.7024  0.1932  1.4711
 1665TIP3   OH226485   1.532   0.004   1.007  0.0157 -0.5111  0.1248
 1665TIP3    H126486   1.450  -0.024   0.965  0.1015  1.6129 -1.5190
 1665TIP3    H226487   1.506   0.074   1.066  0.6454  0.3167 -0.5579
 1666TIP3   OH226488   4.285   3.868  10.950  0.4742 -0.2623 -0.3526
 1666TIP3    H126489   4.262   3.895  10.861  1.7109 -1.0238 -0.9299
 1666TIP3    H226490   4.375   3.835  10.942  0.8248  0.2477  1.3084
 1667TIP3   OH226491   3.785   6.764  12.085 -0.3010 -1.0318  0.1078
 1667TIP3    H126492   3.878   6.742  12.076 -0.2499 -0.1540 -1.7218
 1667TIP3    H226493   3.739   6.691  12.045 -0.3733 -1.1338  0.3776
 1668TIP3   OH226494   4.734   5.809  12.416  0.2587  0.6565 -0.0872
 1668TIP3    H126495   4.663   5.848  12.366  0.2467  1.9689  0.9422
 1668TIP3    H226496   4.709   5.819  12.508  0.5456 -1.2244  0.2309
 1669TIP3   OH226497   0.676   2.021  14.731  0.2465  0.1970 -0.7627
 1669TIP3    H126498   0.674   2.116  14.721 -0.3792  0.6185  2.5289
 1669TIP3    H226499   0.585   1.996  14.744  0.5781 -0.6136  0.0641
 1670TIP3   OH226500   3.119   1.072  11.613  0.6782 -0.3969 -0.3323
 1670TIP3    H126501   3.049   1.097  11.552 -0.1597  1.4937  1.3411
 1670TIP3    H226502   3.165   1.154  11.630  2.2358 -1.3131 -0.0799
 1671TIP3   OH226503   0.165   6.248   4.130 -0.6265 -0.2027 -0.3521
 1671TIP3    H126504   0.125   6.162   4.144  1.0752 -0.8458  0.6608
 1671TIP3    H226505   0.189   6.278   4.218 -0.8936  1.1552 -0.7385
 1672TIP3   OH226506   4.848   4.757  11.255 -0.1314  0.4659 -0.2179
 1672TIP3    H126507   4.942   4.759  11.271 -0.0982  0.5989 -0.4299
 1672TIP3    H226508   4.840   4.760  11.159 -0.4441  3.2840 -0.1277
 1673TIP3   OH226509   2.071   1.150  10.495  0.2872 -0.0752  0.0290
 1673TIP3    H126510   2.107   1.064  10.472  1.4750  0.4057  0.0760
 1673TIP3    H226511   2.009   1.169  10.425  0.1018 -0.9166 -0.0461
 1674TIP3   OH226512   5.392   2.338  13.567  0.0819 -0.0033  0.1375
 1674TIP3    H126513   5.467   2.289  13.600 -0.6730 -1.2435  0.0549
 1674TIP3    H226514   5.419   2.430  13.570  1.3974 -0.4041  0.6057
 1675TIP3   OH226515   6.702   4.881  11.936  0.1838  0.0123  0.2766
 1675TIP3    H126516   6.615   4.860  11.970 -0.5311  0.0766 -1.4692
 1675TIP3    H226517   6.754   4.802  11.954 -0.6143 -0.5687  0.0684
 1676TIP3   OH226518   3.932   2.863   2.412  0.1794 -0.4714 -0.0119
 1676TIP3    H126519   3.842   2.838   2.392  0.6222 -1.4752 -0.7934
 1676TIP3    H226520   3.944   2.949   2.373 -0.6965  0.0445  0.8330
 1677TIP3   OH226521   4.072   4.476   5.338  0.4487 -0.0257  1.4311
 1677TIP3    H126522   4.144   4.444   5.283  0.6929  1.4617  0.8605
 1677TIP3    H226523   4.038   4.398   5.381  0.9741 -1.0534  0.0004
 1678TIP3   OH226524   4.567   4.296  13.331  0.0988  0.7806 -0.0948
 1678TIP3    H126525   4.485   4.304  13.380  0.3964 -0.2214  0.5887
 1678TIP3    H226526   4.634   4.324  13.393  0.3950  0.3513 -0.2263
 1679TIP3   OH226527   3.072   5.495  11.004  0.0198  0.2127  0.0214
 1679TIP3    H126528   3.140   5.486  10.938  1.3780 -1.2545  1.5869
 1679TIP3    H226529   3.005   5.432  10.979  0.0004  0.4697 -0.5807
 1680TIP3   OH226530   0.695   0.998   3.404  0.0574  0.1909  0.2401
 1680TIP3    H126531   0.739   1.076   3.438 -1.7495  1.1492  0.4315
 1680TIP3    H226532   0.748   0.970   3.330  0.8882  1.4221  0.3678
 1681TIP3   OH226533   4.967   0.867  11.939  0.3900 -0.0683 -0.2663
 1681TIP3    H126534   5.020   0.806  11.990 -0.4432 -0.7990 -0.2619
 1681TIP3    H226535   4.936   0.815  11.864  1.2693  0.8793 -1.3013
 1682TIP3   OH226536   6.687   1.577   5.751 -0.0617 -0.4485 -0.1148
 1682TIP3    H126537   6.616   1.519   5.777 -1.3756  1.2229  0.0595
 1682TIP3    H226538   6.647   1.638   5.689  1.5378 -0.3267 -1.0621
 1683TIP3   OH226539   3.227   5.394  13.538  0.1173  0.0153  1.0302
 1683TIP3    H126540   3.205   5.308  13.574 -1.6429  0.3832  0.8705
 1683TIP3    H226541   3.190   5.393  13.450  0.3055  0.8447  0.9375
 1684TIP3   OH226542   1.860   3.387  11.376 -0.0595 -0.0299  0.3280
 1684TIP3    H126543   1.798   3.367  11.305 -0.3520 -0.1866  0.6262
 1684TIP3    H226544   1.902   3.469  11.349  1.5782 -1.3131 -1.2119
 1685TIP3   OH226545   4.175   4.899  10.737  0.0595 -0.0072  0.1373
 1685TIP3    H126546   4.207   4.921  10.650  0.6517 -0.9757  0.0993
 1685TIP3    H226547   4.091   4.944  10.744 -0.0483 -0.0218 -0.9776
 1686TIP3   OH226548   3.508   3.342   2.522 -0.3017  0.4320  0.0541
 1686TIP3    H126549   3.446   3.292   2.574  2.2425 -0.1146  2.7334
 1686TIP3    H226550   3.515   3.426   2.567 -0.0875  0.9756 -0.9748
 1687TIP3   OH226551   1.734   2.198   0.237 -0.5312 -0.0483 -0.3040
 1687TIP3    H126552   1.671   2.138   0.197  1.0567 -2.2816  0.4754
 1687TIP3    H226553   1.699   2.215   0.325 -0.5414 -0.5128 -0.2207
 1688TIP3   OH226554   2.483   3.827   2.434  0.3619  0.1316  0.2511
 1688TIP3    H126555   2.428   3.823   2.512  0.1397  0.8156  0.1290
 1688TIP3    H226556   2.573   3.826   2.469  0.2862 -1.0772  0.4422
 1689TIP3   OH226557   4.767   0.301  13.967  0.1414  0.0120 -0.4169
 1689TIP3    H126558   4.742   0.290  14.059 -0.7059 -0.1590 -0.6666
 1689TIP3    H226559   4.772   0.396  13.955  0.5059  0.0319 -0.1336
 1690TIP3   OH226560   3.617   4.058  14.351  0.2347  0.5119 -0.5877
 1690TIP3    H126561   3.628   4.111  14.430 -0.0453  0.5195 -0.5516
 1690TIP3    H226562   3.629   4.120  14.278 -0.3414  0.6778 -0.5445
 1691TIP3   OH226563   5.798   6.567   4.029 -0.6875  0.0317  0.5947
 1691TIP3    H126564   5.813   6.477   3.999 -1.5731 -0.0814  0.4769
 1691TIP3    H226565   5.885   6.601   4.049 -0.1492 -0.1484 -1.4027
 1692TIP3   OH226566   1.459   0.099  14.846  0.1465 -0.3552 -0.2090
 1692TIP3    H126567   1.555   0.110  14.847  0.1757 -0.5284 -0.8014
 1692TIP3    H226568   1.442   0.032  14.911  0.5647 -1.3532 -1.1130
 1693TIP3   OH226569   2.828   5.469   0.190  0.1231  0.2244 -0.4017
 1693TIP3    H126570   2.735   5.448   0.182  0.0086  0.3305  0.5506
 1693TIP3    H226571   2.847   5.457   0.283  0.9589  0.6314 -0.5175
 1694TIP3   OH226572   5.580   1.087   1.698 -0.3314  0.1495 -0.2091
 1694TIP3    H126573   5.597   1.128   1.783 -1.7212 -0.5338  0.4169
 1694TIP3    H226574   5.562   1.161   1.639  0.2385  0.6032  0.1814
 1695TIP3   OH226575   3.793   3.768  13.891  0.1702  0.6968 -0.2765
 1695TIP3    H126576   3.752   3.854  13.881 -0.0357  0.4614 -1.5055
 1695TIP3    H226577   3.732   3.707  13.850  0.5698  0.0202  0.1152
 1696TIP3   OH226578   0.626   5.930   4.199  0.5608  0.0422  0.2311
 1696TIP3    H126579   0.625   5.839   4.226  0.4180  0.3212  1.2012
 1696TIP3    H226580   0.640   5.979   4.280  3.2756  0.7528 -0.6067
 1697TIP3   OH226581   0.836   2.735   5.886  0.0853  0.2786 -0.5715
 1697TIP3    H126582   0.789   2.818   5.900 -0.1716  0.1478 -0.6461
 1697TIP3    H226583   0.767   2.671   5.869  0.3330  0.2637 -1.5626
 1698TIP3   OH226584   0.316   2.816   3.912 -0.1722  0.4438 -0.2481
 1698TIP3    H126585   0.259   2.753   3.956 -0.4186 -0.1986 -1.4743
 1698TIP3    H226586   0.278   2.826   3.825  0.8675  0.9624 -0.6469
 1699TIP3   OH226587   6.251   4.484  12.021  0.5990  0.2956  0.6417
 1699TIP3    H126588   6.203   4.524  12.093 -0.7336  0.4821 -0.3406
 1699TIP3    H226589   6.225   4.534  11.943  0.6297 -1.0408 -0.2514
 1700TIP3   OH226590   4.213   6.252  12.888  0.0240  0.3242 -0.2383
 1700TIP3    H126591   4.251   6.309  12.954 -0.4116  1.2636 -0.7793
 1700TIP3    H226592   4.284   6.194  12.862  0.6229  0.9629 -0.0396
 1701TIP3   OH226593   3.501   4.244   4.041 -0.8602 -0.3630  0.3475
 1701TIP3    H126594   3.408   4.249   4.019 -1.2465  1.1032  2.1828
 1701TIP3    H226595   3.514   4.156   4.075 -1.4603 -0.7612 -0.4569
 1702TIP3   OH226596   3.620   3.636   0.947  0.0444 -0.3307 -0.3627
 1702TIP3    H126597   3.677   3.618   1.022 -0.2244  0.8491  0.1307
 1702TIP3    H226598   3.549   3.572   0.956 -1.4039  1.5193  1.9082
 1703TIP3   OH226599   0.120   5.023  13.805  0.4826 -0.0744  0.5552
 1703TIP3    H126600   0.081   5.109  13.788 -0.2451 -0.5086 -0.0217
 1703TIP3    H226601   0.080   4.966  13.739  1.1190 -0.8106  0.8052
 1704TIP3   OH226602   2.145   5.392   6.255  0.0264 -0.6913  0.4679
 1704TIP3    H126603   2.209   5.335   6.213  0.7973 -0.7417  1.6670
 1704TIP3    H226604   2.092   5.333   6.309 -1.2741 -0.6987 -0.8029
 1705TIP3   OH226605   3.543   0.025  14.138  0.2183  0.5876  0.1161
 1705TIP3    H126606   3.534   0.100  14.198  1.9508  1.4247 -0.6489
 1705TIP3    H226607   3.507   0.056  14.055 -0.7915 -0.0713  0.2983
 1706TIP3   OH226608   0.026   2.778   6.269  0.2412 -0.5779 -0.0871
 1706TIP3    H126609   0.017   2.713   6.339  0.3757  0.7456  1.1823
 1706TIP3    H226610  -0.056   2.771   6.220  0.1126 -1.4599  0.2364
 1707TIP3   OH226611   1.804   2.444   3.981 -0.0433 -0.2190 -0.6214
 1707TIP3    H126612   1.781   2.510   4.047 -0.7839  0.9265 -1.9825
 1707TIP3    H226613   1.878   2.482   3.934  1.1273 -1.4761  0.1835
 1708TIP3   OH226614   3.572   1.985   4.405 -0.2091  0.1886 -0.0687
 1708TIP3    H126615   3.611   2.070   4.385  1.4162 -0.4041  0.4710
 1708TIP3    H226616   3.549   1.991   4.498 -1.3565  0.5155 -0.3734
 1709TIP3   OH226617   3.955   6.503   2.168  0.9597  0.7673  0.4665
 1709TIP3    H126618   3.925   6.553   2.093 -0.1638  2.3462  1.9421
 1709TIP3    H226619   3.986   6.568   2.231 -0.8295 -0.3218  2.5567
 1710TIP3   OH226620   3.099   2.851  17.111 -0.8357  0.0715 -0.4167
 1710TIP3    H126621   3.158   2.836  17.185  1.1161 -0.5980 -2.0362
 1710TIP3    H226622   3.147   2.911  17.054 -1.0374 -1.6661 -2.4874
 1711TIP3   OH226623   6.118   2.538   1.962 -0.1413  0.6282  0.1778
 1711TIP3    H126624   6.040   2.566   2.011 -1.0558  0.4979 -1.1725
 1711TIP3    H226625   6.131   2.447   1.990  0.5182  1.1679  1.6484
 1712TIP3   OH226626   0.593   6.357   4.240 -0.0102  0.3988  0.7430
 1712TIP3    H126627   0.678   6.340   4.199  1.1982  0.4718  3.1665
 1712TIP3    H226628   0.592   6.452   4.255 -0.8295  0.5024  0.1421
 1713TIP3   OH226629   0.878   1.716   3.205 -0.4448 -0.3278  0.4249
 1713TIP3    H126630   0.912   1.768   3.132 -0.3238  0.0788  0.7717
 1713TIP3    H226631   0.942   1.727   3.275 -0.9516 -0.1034  0.8511
 1714TIP3   OH226632   2.064   3.766  11.595  0.3804 -0.9932  0.5582
 1714TIP3    H126633   2.159   3.779  11.603  0.5004 -0.4608 -1.3961
 1714TIP3    H226634   2.055   3.696  11.530 -0.6048  0.5128 -0.9536
 1715TIP3   OH226635   1.803   2.201  13.674  0.2798  0.2076 -0.2370
 1715TIP3    H126636   1.724   2.147  13.686  0.1893 -0.1149 -2.1233
 1715TIP3    H226637   1.867   2.141  13.636  1.6114  0.3556  1.7217
 1716TIP3   OH226638   4.266   1.631   4.713 -0.1407 -0.1232  0.6289
 1716TIP3    H126639   4.197   1.692   4.687  0.0304 -0.4767 -0.6748
 1716TIP3    H226640   4.233   1.590   4.793 -1.8309 -0.9378 -0.4613
 1717TIP3   OH226641   5.216   4.732   1.989  0.0426 -0.2164 -0.5132
 1717TIP3    H126642   5.199   4.822   1.962  0.7690  0.0083 -0.2470
 1717TIP3    H226643   5.306   4.715   1.958  0.2527 -0.5260  0.2645
 1718TIP3   OH226644   2.852   1.630  12.896  0.7042 -0.0877  0.9265
 1718TIP3    H126645   2.905   1.698  12.936 -1.4200  1.4087  1.2582
 1718TIP3    H226646   2.826   1.573  12.969  1.7803 -0.7835  0.7722
 1719TIP3   OH226647   3.594   6.114   0.747 -0.1879  0.2621 -0.0119
 1719TIP3    H126648   3.671   6.171   0.752  2.7429 -3.5603  0.3821
 1719TIP3    H226649   3.549   6.127   0.831 -0.4470  3.0673 -0.5390
 1720TIP3   OH226650   2.317   2.540   0.609  0.3096  0.3904  0.4726
 1720TIP3    H126651   2.308   2.627   0.650 -0.1667  0.7621 -0.3914
 1720TIP3    H226652   2.370   2.556   0.531  0.6463 -0.1919  0.5822
 1721TIP3   OH226653   4.357   6.068  16.731  0.1413  0.2116  0.4814
 1721TIP3    H126654   4.351   6.009  16.656  2.0663  0.3457  0.1936
 1721TIP3    H226655   4.421   6.134  16.705 -0.8085  1.5229  1.4167
 1722TIP3   OH226656   1.702   0.047   0.051  0.2669  0.1408  0.4592
 1722TIP3    H126657   1.618   0.066   0.093  1.1863  1.6641  1.6830
 1722TIP3    H226658   1.760   0.026   0.123  1.0307 -0.5301 -0.3522
 1723TIP3   OH226659   1.636   6.082  12.927  0.2187  0.7336  0.2503
 1723TIP3    H126660   1.546   6.111  12.942 -0.3805 -0.2680 -1.2384
 1723TIP3    H226661   1.657   6.114  12.839  0.6255 -0.6718 -0.1814
 1724TIP3   OH226662   2.690   5.738  11.547  0.8153  0.0222  0.0025
 1724TIP3    H126663   2.699   5.654  11.502  0.0440 -0.4505  0.7189
 1724TIP3    H226664   2.676   5.715  11.639 -1.9581  0.8136 -0.1620
 1725TIP3   OH226665   2.071   1.933  13.122 -0.0907  0.9086 -0.3495
 1725TIP3    H126666   2.042   1.950  13.032  0.5772 -0.6905 -0.8789
 1725TIP3    H226667   2.159   1.896  13.111  0.2165  1.2367  0.9993
 1726TIP3   OH226668   4.956   1.206   5.151  0.0182 -0.0853 -0.4660
 1726TIP3    H126669   5.007   1.190   5.230  1.7306  1.5057 -1.2150
 1726TIP3    H226670   4.945   1.119   5.111  1.3570 -0.5600  0.1823
 1727TIP3   OH226671   0.813   1.964  16.635  0.4383 -0.0376 -0.5211
 1727TIP3    H126672   0.887   1.925  16.681 -0.3209 -0.6715  0.1975
 1727TIP3    H226673   0.808   1.916  16.553  0.1814 -0.7424 -0.1076
 1728TIP3   OH226674   0.938   5.696  16.313  0.0377 -0.2830  0.2540
 1728TIP3    H126675   0.846   5.686  16.338 -0.3686 -0.5932 -1.3244
 1728TIP3    H226676   0.976   5.610  16.330 -0.4659 -0.7864 -1.0769
 1729TIP3   OH226677   2.056   5.756  14.949  0.1404  0.7484  0.0241
 1729TIP3    H126678   2.040   5.850  14.943 -0.7359  0.6444  0.6307
 1729TIP3    H226679   2.030   5.733  15.038  0.1087 -0.1199 -0.2026
 1730TIP3   OH226680   1.663   3.046  13.265 -0.0361  0.0246  0.7538
 1730TIP3    H126681   1.614   3.080  13.191  0.9654  0.0798  0.1036
 1730TIP3    H226682   1.682   2.955  13.242 -1.7215 -0.6629  1.9820
 1731TIP3   OH226683   1.228   2.729  15.701  1.2164 -0.1698 -0.3191
 1731TIP3    H126684   1.272   2.762  15.780  1.5381 -0.3212 -0.4320
 1731TIP3    H226685   1.290   2.666  15.664  0.3046 -1.4287  0.2806
 1732TIP3   OH226686   2.435   1.989   3.484 -0.0619 -0.0956  0.1228
 1732TIP3    H126687   2.462   2.080   3.474  0.8503 -0.2971  0.6317
 1732TIP3    H226688   2.397   1.966   3.399 -1.2565  1.0571  0.3350
 1733TIP3   OH226689   4.458   5.682   5.850  0.1487 -0.0637 -0.2103
 1733TIP3    H126690   4.475   5.762   5.900  0.4720 -0.2672  0.0113
 1733TIP3    H226691   4.363   5.674   5.850 -0.0642  1.8118 -2.5990
 1734TIP3   OH226692   2.954   0.611  13.023 -0.4475  0.0381  0.3771
 1734TIP3    H126693   3.045   0.627  12.997 -0.3408 -0.0638  0.6835
 1734TIP3    H226694   2.960   0.548  13.095 -0.9165 -2.2455 -1.5243
 1735TIP3   OH226695   6.095   5.627  11.650 -0.4534 -0.3165  0.3586
 1735TIP3    H126696   6.044   5.708  11.645 -0.8508 -0.6107 -0.6837
 1735TIP3    H226697   6.166   5.646  11.710  1.7105  2.0547 -2.7853
 1736TIP3   OH226698   0.461   0.000   3.445  0.0545  0.3849 -0.3744
 1736TIP3    H126699   0.545   0.029   3.481 -0.3590  0.8013  0.2838
 1736TIP3    H226700   0.482  -0.076   3.391  0.8020  0.2521  0.0997
 1737TIP3   OH226701   6.122   5.344   3.992  0.1822  0.3950 -0.4193
 1737TIP3    H126702   6.126   5.337   3.897 -0.3215 -1.2606 -0.3308
 1737TIP3    H226703   6.198   5.397   4.015 -0.6631  2.2967 -1.8722
 1738TIP3   OH226704   4.834   2.417   2.622 -0.1117  0.3697  0.2648
 1738TIP3    H126705   4.826   2.480   2.694  0.2057  0.2641  0.3926
 1738TIP3    H226706   4.766   2.352   2.640 -0.6053  0.8045 -0.0026
 1739TIP3   OH226707   2.254   5.745   6.995 -0.6361 -0.5862  0.0748
 1739TIP3    H126708   2.176   5.703   7.032  0.2305 -1.9156  0.4422
 1739TIP3    H226709   2.221   5.798   6.923 -1.8690 -1.1618  0.1989
 1740TIP3   OH226710   6.215   5.815  14.542  0.1502  0.0884 -0.1975
 1740TIP3    H126711   6.256   5.868  14.611 -1.3527  1.2365 -0.1592
 1740TIP3    H226712   6.187   5.880  14.477 -0.7961 -0.7613 -0.6343
 1741TIP3   OH226713   0.759   4.094   0.289  0.0116 -0.2439 -0.1437
 1741TIP3    H126714   0.770   4.048   0.206 -0.0895  0.3103 -0.4662
 1741TIP3    H226715   0.847   4.096   0.328  0.0535 -0.5273 -0.2241
 1742TIP3   OH226716   5.572   1.815  12.405  0.4091 -0.6751  0.0456
 1742TIP3    H126717   5.546   1.904  12.426 -2.0854 -1.7229  1.5932
 1742TIP3    H226718   5.580   1.771  12.490 -1.0003 -2.5974 -0.7752
 1743TIP3   OH226719   0.541   5.371  15.900  0.5495 -0.1055 -0.8818
 1743TIP3    H126720   0.579   5.299  15.950  0.5827  0.5395  0.0193
 1743TIP3    H226721   0.491   5.421  15.964 -0.6464 -0.1246 -1.7756
 1744TIP3   OH226722   1.175   1.297   0.715 -0.2741 -0.1821 -0.0631
 1744TIP3    H126723   1.187   1.379   0.762  1.2579  0.1181 -0.9398
 1744TIP3    H226724   1.214   1.230   0.771 -1.3867 -0.3142  0.5804
 1745TIP3   OH226725   3.301   6.044   1.745  0.5636  0.1402  0.4381
 1745TIP3    H126726   3.384   6.089   1.762  1.3898 -1.1220 -0.1619
 1745TIP3    H226727   3.269   6.019   1.832  1.5134 -0.5724  0.5976
 1746TIP3   OH226728   4.296   0.233  16.467  0.5637  0.2070 -0.3668
 1746TIP3    H126729   4.332   0.271  16.387 -2.2126  3.6924 -0.0862
 1746TIP3    H226730   4.265   0.308  16.517 -1.0846 -2.1755  2.3218
 1747TIP3   OH226731   1.901   5.759   2.275  0.1860 -0.0912 -0.6034
 1747TIP3    H126732   1.806   5.765   2.260  0.1750 -3.3524 -2.0454
 1747TIP3    H226733   1.910   5.691   2.341  1.5204  0.7062  0.0550
 1748TIP3   OH226734   3.079   5.557  10.416 -0.4003 -0.0890 -0.0171
 1748TIP3    H126735   3.041   5.518  10.338 -0.2501  0.1912 -0.2317
 1748TIP3    H226736   3.116   5.483  10.464 -0.1237 -0.2157 -0.4181
 1749TIP3   OH226737   5.036   2.605  15.560  0.8450  0.0417 -0.5212
 1749TIP3    H126738   4.956   2.644  15.525  0.9425 -0.6648 -1.5588
 1749TIP3    H226739   5.105   2.667  15.536  1.0817 -1.0349 -2.6869
 1750TIP3   OH226740   1.416   4.481  12.671  0.3618 -0.6523 -0.0991
 1750TIP3    H126741   1.460   4.437  12.598  0.8962 -1.3387  0.6315
 1750TIP3    H226742   1.331   4.437  12.677 -0.6607  0.9962 -1.8200
 1751TIP3   OH226743   6.332   1.929   2.607 -0.5008  0.9134 -0.0147
 1751TIP3    H126744   6.333   1.835   2.628 -1.1699  0.3946 -2.1459
 1751TIP3    H226745   6.423   1.957   2.617 -0.2205 -0.0469  0.2349
 1752TIP3   OH226746   1.309   1.950   1.870 -0.0518  0.3321  0.7092
 1752TIP3    H126747   1.346   1.990   1.949 -0.8817 -1.7190  2.1792
 1752TIP3    H226748   1.327   1.856   1.880  0.7890  0.1532 -2.0863
 1753TIP3   OH226749   0.184   2.676  13.030  0.4135 -0.0239 -0.7175
 1753TIP3    H126750   0.111   2.622  13.000 -1.6563  1.8373  0.8682
 1753TIP3    H226751   0.247   2.613  13.066 -0.9360 -1.5459 -0.9628
 1754TIP3   OH226752   1.851   3.592   2.040 -0.2132 -0.3975 -0.0604
 1754TIP3    H126753   1.883   3.672   1.999 -0.0990 -0.3168  0.1873
 1754TIP3    H226754   1.861   3.607   2.134  0.1349 -0.8423 -0.0253
 1755TIP3   OH226755   0.520   0.301   0.922  0.0190  0.1958 -0.3328
 1755TIP3    H126756   0.555   0.215   0.946  0.1729  0.7905  1.6550
 1755TIP3    H226757   0.501   0.293   0.828  4.0130 -0.6502 -1.1695
 1756TIP3   OH226758   5.283   0.273  11.082 -0.7885 -0.8396  0.5534
 1756TIP3    H126759   5.287   0.367  11.100 -2.3820 -0.6207 -0.1817
 1756TIP3    H226760   5.227   0.265  11.005 -1.9115 -2.5062  1.4990
 1757TIP3   OH226761   0.179   5.460  11.396  0.0266 -0.1940  0.6734
 1757TIP3    H126762   0.198   5.375  11.356 -0.8368 -0.0521 -0.0665
 1757TIP3    H226763   0.207   5.451  11.487 -1.3163 -1.7244  0.9459
 1758TIP3   OH226764   4.236   2.456  13.319  0.2122  0.6302  0.0711
 1758TIP3    H126765   4.195   2.454  13.405  2.4132 -1.7277  1.1329
 1758TIP3    H226766   4.168   2.427  13.259 -1.2038  1.8355  1.0604
 1759TIP3   OH226767   6.411   2.652   4.415  0.0580 -0.3070 -0.0383
 1759TIP3    H126768   6.362   2.727   4.380 -0.2158 -0.3668  0.2166
 1759TIP3    H226769   6.481   2.691   4.466  0.6575 -0.2156 -0.9199
 1760TIP3   OH226770   4.520   3.827   4.288 -0.0937 -0.3982 -0.0626
 1760TIP3    H126771   4.523   3.791   4.377 -1.1535  0.6267  0.4043
 1760TIP3    H226772   4.440   3.879   4.286 -0.5486 -1.1088 -1.8934
 1761TIP3   OH226773   0.611   2.815   1.315  0.3492 -0.0570  0.1293
 1761TIP3    H126774   0.655   2.797   1.398 -0.5308 -0.6287  0.4798
 1761TIP3    H226775   0.555   2.891   1.334 -0.5285 -0.7489  0.3014
 1762TIP3   OH226776   6.078   2.841  11.908  0.0531  0.2024  0.1119
 1762TIP3    H126777   6.092   2.928  11.871  1.1437  0.2032  0.5092
 1762TIP3    H226778   6.150   2.788  11.872 -0.0662 -0.2985  0.6109
 1763TIP3   OH226779   4.497   5.679  12.258 -0.4671  0.4040  0.0304
 1763TIP3    H126780   4.483   5.773  12.254  0.6330  0.6962  2.1055
 1763TIP3    H226781   4.487   5.658  12.351  4.1912 -0.6884  0.4004
 1764TIP3   OH226782   3.507   5.752   2.674  0.7035 -0.0407  0.2703
 1764TIP3    H126783   3.587   5.740   2.624  0.0878  0.7332 -0.9180
 1764TIP3    H226784   3.465   5.829   2.635  0.4111  0.8192  2.2308
 1765TIP3   OH226785   4.869   4.424   2.957  0.4722  0.6469  0.2987
 1765TIP3    H126786   4.859   4.429   2.862 -0.7224  2.0743  0.4895
 1765TIP3    H226787   4.779   4.425   2.990  0.8978  0.4955  1.4674
 1766TIP3   OH226788   1.776   5.716  17.147  0.3330 -0.2442 -0.0694
 1766TIP3    H126789   1.845   5.780  17.130  1.6455 -1.7494 -0.6382
 1766TIP3    H226790   1.728   5.709  17.064  0.2213 -0.0249 -0.0233
 1767TIP3   OH226791   3.346   0.328   1.216  0.5625  0.5975  0.2040
 1767TIP3    H126792   3.412   0.293   1.157  2.1517  1.1575  1.6254
 1767TIP3    H226793   3.269   0.341   1.161  1.8122  0.4871 -1.5921
 1768TIP3   OH226794   2.295   4.996   1.193 -0.2759  0.5509 -0.5793
 1768TIP3    H126795   2.312   4.972   1.102 -0.6497  1.0606 -0.7843
 1768TIP3    H226796   2.205   4.967   1.209 -0.0068 -0.0682 -0.1946
 1769TIP3   OH226797   6.263   0.597  12.719 -0.2021  0.0778 -0.0560
 1769TIP3    H126798   6.212   0.596  12.799 -0.4445 -0.5418 -0.2143
 1769TIP3    H226799   6.323   0.671  12.729  1.6779 -1.6401  1.8928
 1770TIP3   OH226800   2.182   1.368  13.842  0.6898  0.0091  0.0755
 1770TIP3    H126801   2.196   1.405  13.929 -1.0732  0.1697  0.2957
 1770TIP3    H226802   2.221   1.433  13.783 -1.0298  1.5119  0.5619
 1771TIP3   OH226803   1.459   0.416   3.742 -0.2939 -0.2266  0.5996
 1771TIP3    H126804   1.482   0.509   3.733 -0.5355 -0.2811 -0.8027
 1771TIP3    H226805   1.506   0.387   3.820  0.6117  0.8296  0.4631
 1772TIP3   OH226806   5.613   1.932   1.732  0.4772  0.3253 -0.1827
 1772TIP3    H126807   5.569   1.982   1.801  2.2545  0.1263  1.1384
 1772TIP3    H226808   5.682   1.990   1.700 -0.1238  0.2844 -1.5626
 1773TIP3   OH226809   0.120   3.409  10.949  0.3791  0.3985 -0.1607
 1773TIP3    H126810   0.213   3.397  10.970 -0.0919 -0.3630  1.5389
 1773TIP3    H226811   0.088   3.469  11.015 -0.9624 -1.4701  0.9311
 1774TIP3   OH226812   1.731   1.997  16.562 -0.1447  0.3649  0.1947
 1774TIP3    H126813   1.638   1.989  16.541 -0.3074 -0.4600  1.1407
 1774TIP3    H226814   1.745   1.929  16.628  1.1173  0.5241  0.0929
 1775TIP3   OH226815   1.200   6.236  12.759  0.2524  0.3055  0.2039
 1775TIP3    H126816   1.123   6.277  12.799  1.6166  1.5523  1.5881
 1775TIP3    H226817   1.181   6.237  12.665 -2.4901 -1.6195  0.6488
 1776TIP3   OH226818   2.059   1.505  16.787 -0.3228  0.2359 -0.0879
 1776TIP3    H126819   2.105   1.588  16.797 -0.2395  0.2029 -0.1962
 1776TIP3    H226820   2.123   1.439  16.815 -0.6615  0.2656  0.7807
 1777TIP3   OH226821   3.874   4.401  12.539  0.3656  0.1275 -0.5794
 1777TIP3    H126822   3.937   4.335  12.510  0.4823 -0.3796  0.7668
 1777TIP3    H226823   3.928   4.466  12.584  0.0741  0.3190 -0.5077
 1778TIP3   OH226824   4.319   1.258  13.334  0.7423  0.5828 -0.0551
 1778TIP3    H126825   4.289   1.190  13.393 -1.4482  2.3783  0.9472
 1778TIP3    H226826   4.315   1.218  13.247  1.8868 -1.3415  0.7361
 1779TIP3   OH226827   4.533   5.869  14.286  0.1721 -0.2419 -0.1648
 1779TIP3    H126828   4.597   5.873  14.357  0.2688  1.1203 -0.3191
 1779TIP3    H226829   4.571   5.923  14.216 -0.6991 -0.1961 -0.6091
 1780TIP3   OH226830   2.084   5.138   1.806  0.4077  0.1457 -0.3096
 1780TIP3    H126831   2.108   5.130   1.898  0.4351  0.4994 -0.2847
 1780TIP3    H226832   2.167   5.130   1.758  0.0547 -3.0599 -0.4929
 1781TIP3   OH226833   0.056   1.778   0.553 -0.0343  0.0319 -0.3945
 1781TIP3    H126834   0.015   1.792   0.467 -0.0673  0.4987 -0.3042
 1781TIP3    H226835   0.029   1.853   0.605 -0.1899 -0.3627  0.0957
 1782TIP3   OH226836   2.195   0.054  15.905  0.4125 -0.1928  0.4755
 1782TIP3    H126837   2.255   0.084  15.836  0.9726  1.4735  1.6371
 1782TIP3    H226838   2.111   0.092  15.882  0.2600 -0.8629 -0.0786
 1783TIP3   OH226839   6.493   5.360  17.104  0.0963  0.0503 -0.1598
 1783TIP3    H126840   6.467   5.398  17.187 -1.3582 -0.3883 -0.4053
 1783TIP3    H226841   6.571   5.307  17.125 -0.7144 -0.6733  1.0558
 1784TIP3   OH226842   1.279   0.944   4.552  0.3017 -0.7115  0.3284
 1784TIP3    H126843   1.348   0.978   4.494 -0.0005  0.2217  0.5153
 1784TIP3    H226844   1.304   0.975   4.639  0.2184 -1.2824  0.5565
 1785TIP3   OH226845   0.259   4.850  11.857  0.4118 -0.0645 -0.2731
 1785TIP3    H126846   0.338   4.809  11.892 -0.0969 -0.4051  0.4752
 1785TIP3    H226847   0.188   4.792  11.883 -0.3549  1.4439  1.0557
 1786TIP3   OH226848   2.685   1.879   5.325 -0.3635 -0.5874  0.1344
 1786TIP3    H126849   2.752   1.946   5.317  3.0146 -3.5706  1.9621
 1786TIP3    H226850   2.676   1.864   5.419 -1.7843 -1.9848 -0.1897
 1787TIP3   OH226851   1.552   1.593  11.484  0.0090  0.4409 -0.0282
 1787TIP3    H126852   1.629   1.570  11.536 -0.7736  0.1800  1.0442
 1787TIP3    H226853   1.526   1.510  11.442 -0.5210  0.1996  0.7549
 1788TIP3   OH226854   0.303   5.108  16.726  0.2824  0.3295  0.0756
 1788TIP3    H126855   0.382   5.056  16.737  0.5028  0.6490 -0.0031
 1788TIP3    H226856   0.231   5.045  16.738  0.5057  0.4453  2.1670
 1789TIP3   OH226857   2.335   6.160   2.516 -0.0698 -0.1587  0.9371
 1789TIP3    H126858   2.361   6.093   2.452  0.2067  2.4878 -1.8352
 1789TIP3    H226859   2.257   6.201   2.478  0.2596  1.6619  2.1674
 1790TIP3   OH226860   3.343   4.290   5.262  0.1584  0.3787 -0.3454
 1790TIP3    H126861   3.316   4.340   5.185  2.5721  0.6080 -1.0918
 1790TIP3    H226862   3.336   4.351   5.335 -0.9918  0.5170 -0.5653
 1791TIP3   OH226863   6.565   0.830   5.512 -0.0948  0.3079 -0.3247
 1791TIP3    H126864   6.614   0.787   5.582 -0.5505  1.2704  0.6061
 1791TIP3    H226865   6.527   0.908   5.554 -3.7535 -1.2401 -0.5390
 1792TIP3   OH226866   3.461   6.401   3.515  0.7130 -0.1845  0.8877
 1792TIP3    H126867   3.453   6.490   3.550  1.3743 -0.1850  1.0297
 1792TIP3    H226868   3.380   6.389   3.464  0.0094  0.0124  1.9400
 1793TIP3   OH226869   1.119   2.807  12.953 -0.4403  0.9921 -0.3306
 1793TIP3    H126870   1.154   2.770  13.034  1.7235  1.6958 -0.9011
 1793TIP3    H226871   1.026   2.823  12.971 -0.4063 -0.6418  1.3498
 1794TIP3   OH226872   1.035   3.139   2.390  0.5147 -0.2072  0.0360
 1794TIP3    H126873   1.007   3.067   2.445  0.4905 -0.2633 -0.0491
 1794TIP3    H226874   1.090   3.194   2.446  0.6445 -0.3645  0.0610
 1795TIP3   OH226875   2.268   4.131  10.562  0.0526  0.5052  0.3107
 1795TIP3    H126876   2.324   4.184  10.619 -1.1908  2.7793 -0.4916
 1795TIP3    H226877   2.275   4.172  10.476 -2.1635  0.3405  0.0198
 1796TIP3   OH226878   5.583   0.537  15.978 -0.1797  0.3458  0.3027
 1796TIP3    H126879   5.589   0.518  15.884  0.0869 -1.2891  0.6429
 1796TIP3    H226880   5.531   0.617  15.983  1.0021  1.2428 -1.3182
 1797TIP3   OH226881   2.481   3.430  12.235  0.1202  0.0448 -0.0787
 1797TIP3    H126882   2.471   3.365  12.166 -0.7468 -0.6234  0.6645
 1797TIP3    H226883   2.573   3.425  12.259  0.5634  0.6987 -1.5863
 1798TIP3   OH226884   4.448   3.745   0.558  0.0141 -0.0377  0.0573
 1798TIP3    H126885   4.419   3.759   0.648 -0.1221 -1.2999  0.2157
 1798TIP3    H226886   4.517   3.678   0.565 -1.7452 -2.0134 -1.0220
 1799TIP3   OH226887   6.182   6.500  13.349 -0.1276 -0.0103 -0.5469
 1799TIP3    H126888   6.207   6.588  13.321  1.3996 -0.1693  0.2593
 1799TIP3    H226889   6.188   6.447  13.269  1.6508  0.0651 -0.4749
 1800TIP3   OH226890   4.951   4.726  12.566  0.6228  0.1086 -0.3029
 1800TIP3    H126891   4.921   4.638  12.542  0.4703 -0.0893  0.5879
 1800TIP3    H226892   4.937   4.731  12.661  0.1133  1.2965 -0.4322
 1801TIP3   OH226893   2.905   6.413   6.289 -0.1415  0.2842 -0.3768
 1801TIP3    H126894   2.930   6.349   6.223  0.2511  1.0924 -1.0318
 1801TIP3    H226895   2.821   6.447   6.259  1.2488  2.5323 -1.9008
 1802TIP3   OH226896   2.302   0.759   2.731 -0.5391  0.3452 -0.3483
 1802TIP3    H126897   2.310   0.769   2.826  1.1949 -1.1164 -0.3136
 1802TIP3    H226898   2.390   0.739   2.701 -1.5368 -2.0311 -1.9111
 1803TIP3   OH226899   2.303   6.626  14.324  0.1577 -0.1052 -0.4843
 1803TIP3    H126900   2.320   6.710  14.366 -1.6556  0.2202 -0.3554
 1803TIP3    H226901   2.380   6.610  14.270  0.5257  1.6334 -0.5030
 1804TIP3   OH226902   3.231   6.730  16.312  0.1123 -0.3600  0.2766
 1804TIP3    H126903   3.293   6.778  16.366 -0.6839 -0.2138  1.0723
 1804TIP3    H226904   3.187   6.670  16.373 -0.7321 -0.2604 -0.2195
 1805TIP3   OH226905   5.312   3.666   1.952  0.5571  0.1017 -0.1223
 1805TIP3    H126906   5.325   3.600   1.885  0.0387  1.6006 -1.7203
 1805TIP3    H226907   5.388   3.658   2.009  1.8636 -0.0250 -1.8621
 1806TIP3   OH226908   0.404   0.231  16.810  0.1461  0.2090 -0.0094
 1806TIP3    H126909   0.398   0.225  16.714  2.7713 -0.5880 -0.1647
 1806TIP3    H226910   0.465   0.304  16.825 -0.7274  0.7280  1.0723
 1807TIP3   OH226911   3.101   5.151   0.173 -0.2079  0.4854  0.4566
 1807TIP3    H126912   3.104   5.153   0.078 -1.8490  0.1267  0.3873
 1807TIP3    H226913   3.116   5.242   0.199 -3.4948  1.3267 -0.3037
 1808TIP3   OH226914   1.922   1.159  13.488  0.1981 -0.5659  0.0225
 1808TIP3    H126915   1.931   1.077  13.440 -0.3977 -1.1213  0.8490
 1808TIP3    H226916   1.832   1.187  13.472 -0.0131 -0.7746  0.8571
 1809TIP3   OH226917   4.929   6.127  16.869 -0.1579  0.2556  0.0254
 1809TIP3    H126918   5.004   6.084  16.827  0.3284  0.7680  0.3618
 1809TIP3    H226919   4.871   6.055  16.894 -0.0745 -0.1029 -0.8039
 1810TIP3   OH226920   6.347   0.588  16.372 -0.1038  0.4223  0.5547
 1810TIP3    H126921   6.253   0.605  16.378 -0.1821 -0.0137  0.5604
 1810TIP3    H226922   6.377   0.585  16.463 -0.5500 -2.0290  0.6532
 1811TIP3   OH226923   0.271   6.466   3.430 -0.2902 -0.4209  0.4218
 1811TIP3    H126924   0.216   6.460   3.508 -1.2633  2.0328 -0.0364
 1811TIP3    H226925   0.347   6.516   3.458  0.3426 -1.3070  0.3020
 1812TIP3   OH226926   1.512   4.121  12.053  0.1612  0.4320 -0.3219
 1812TIP3    H126927   1.603   4.092  12.055 -0.5586 -1.9962  0.2630
 1812TIP3    H226928   1.473   4.072  11.981 -0.5655  1.7957 -0.8535
 1813TIP3   OH226929   0.301   4.146  16.318  0.1881 -0.3932 -0.2302
 1813TIP3    H126930   0.375   4.204  16.298  0.1435 -0.5124 -0.7422
 1813TIP3    H226931   0.305   4.135  16.413  0.8888 -0.4843 -0.2665
 1814TIP3   OH226932   5.748   4.464  13.969 -0.5391 -0.6005  0.0415
 1814TIP3    H126933   5.824   4.436  13.918  0.4829 -2.2559  2.3540
 1814TIP3    H226934   5.780   4.538  14.021 -1.1251  0.0975 -0.5972
 1815TIP3   OH226935   1.377   5.711   0.246  0.5202 -0.1277 -0.0760
 1815TIP3    H126936   1.404   5.803   0.243  0.4880 -0.1712 -2.5879
 1815TIP3    H226937   1.456   5.665   0.275  0.6212  0.6404  0.9157
 1816TIP3   OH226938   5.200   0.775   4.225  0.1994  0.2546 -0.1169
 1816TIP3    H126939   5.110   0.764   4.193  0.2549  0.0079 -0.1877
 1816TIP3    H226940   5.253   0.717   4.170  0.4744  0.7933 -0.4186
 1817TIP3   OH226941   5.864   3.727  12.471  0.2214 -0.7302  0.2991
 1817TIP3    H126942   5.770   3.718  12.482  0.0086  0.2937 -0.5844
 1817TIP3    H226943   5.884   3.814  12.504  0.6603 -0.4527 -0.6732
 1818TIP3   OH226944   5.033   5.429  16.619 -0.4630 -0.3246  0.0722
 1818TIP3    H126945   5.058   5.481  16.543 -1.0480  1.6370  1.1757
 1818TIP3    H226946   5.092   5.459  16.689 -1.5404 -0.3429  1.0067
 1819TIP3   OH226947   4.786   2.101   5.584  0.5829  0.0986 -0.5716
 1819TIP3    H126948   4.780   2.081   5.491  2.3708 -0.6542 -0.5275
 1819TIP3    H226949   4.755   2.022   5.628  0.8900  0.0170 -0.5037
 1820TIP3   OH226950   3.131   6.313   5.793 -0.1783  0.2919 -0.6423
 1820TIP3    H126951   3.137   6.397   5.839 -0.3067  0.5527 -1.0956
 1820TIP3    H226952   3.191   6.255   5.840 -1.1048  0.2422  0.5067
 1821TIP3   OH226953   5.847   3.953   0.583  0.2345 -0.3159 -0.1447
 1821TIP3    H126954   5.822   3.876   0.636 -1.4349 -0.6513 -1.3879
 1821TIP3    H226955   5.868   3.917   0.497  0.0241  0.5699 -0.5679
 1822TIP3   OH226956   2.907   0.826   2.920 -0.6855  0.6338  0.1965
 1822TIP3    H126957   2.913   0.874   2.838  1.5481 -0.4397 -0.3224
 1822TIP3    H226958   2.904   0.734   2.893  0.2426  0.2713  1.3140
 1823TIP3   OH226959   1.182   2.997  16.147 -0.4085 -0.1845  0.6276
 1823TIP3    H126960   1.114   2.935  16.120 -1.3327  0.9746  0.2549
 1823TIP3    H226961   1.243   2.944  16.199 -1.7473 -1.1788  1.2195
 1824TIP3   OH226962   5.907   4.902  16.705 -0.3760 -0.3442 -0.0682
 1824TIP3    H126963   5.861   4.958  16.767 -0.3710  0.5790 -0.8928
 1824TIP3    H226964   5.885   4.813  16.733  0.3812  0.0411  1.8182
 1825TIP3   OH226965   5.048   4.326  10.646 -0.7929  0.1069  0.2520
 1825TIP3    H126966   5.067   4.274  10.725 -1.1380 -0.4171 -0.0099
 1825TIP3    H226967   4.994   4.399  10.678  2.0943  1.9541  1.1021
 1826TIP3   OH226968   3.332   0.862  12.715  0.0012  0.5718  0.5351
 1826TIP3    H126969   3.273   0.875  12.640 -1.6170 -1.0821  1.4784
 1826TIP3    H226970   3.392   0.792  12.686 -0.7466 -0.2041  0.8275
 1827TIP3   OH226971   0.769   4.613   0.042  0.3120  0.5223 -0.0259
 1827TIP3    H126972   0.761   4.672  -0.033  1.5740  0.1577 -0.4571
 1827TIP3    H226973   0.863   4.610   0.061  0.2473 -1.1325  0.1520
 1828TIP3   OH226974   2.071   3.692   1.010  0.2538 -0.4021  0.8319
 1828TIP3    H126975   2.105   3.636   0.941 -0.8622 -0.6722  0.4898
 1828TIP3    H226976   2.100   3.780   0.987  1.0318 -0.6766  0.7533
 1829TIP3   OH226977   4.355   3.693   1.335 -0.0178  0.3041 -0.4151
 1829TIP3    H126978   4.355   3.783   1.367 -1.2273  0.7881 -1.7348
 1829TIP3    H226979   4.446   3.676   1.311  0.5654  0.5402  1.5654
 1830TIP3   OH226980   5.208   5.207   4.490  0.0730  0.0822 -0.6951
 1830TIP3    H126981   5.297   5.180   4.513  0.4647  1.0294 -1.0425
 1830TIP3    H226982   5.158   5.126   4.486  0.6033 -0.3348  0.8802
 1831TIP3   OH226983   3.090   3.016   3.031  0.5240 -0.1979  0.2270
 1831TIP3    H126984   3.130   3.076   3.094 -0.8647  0.4681  0.4967
 1831TIP3    H226985   3.006   2.992   3.071 -1.2005  1.6639 -2.1482
 1832TIP3   OH226986   5.073   1.803   6.118  0.2408 -0.3212  0.0672
 1832TIP3    H126987   5.143   1.795   6.183  0.1359  1.9623  0.5077
 1832TIP3    H226988   5.006   1.856   6.161 -1.5292 -2.0125 -0.5510
 1833TIP3   OH226989   1.022   1.769   3.439  0.6383  0.1256  0.1277
 1833TIP3    H126990   0.942   1.788   3.488  0.1211 -0.0669 -0.6356
 1833TIP3    H226991   1.093   1.793   3.499  0.0166 -0.1407  0.9843
 1834TIP3   OH226992   3.845   6.053   3.489  0.0021 -0.0758  0.0023
 1834TIP3    H126993   3.775   6.067   3.552 -0.4423  2.2045 -0.9681
 1834TIP3    H226994   3.919   6.103   3.523  0.5222 -0.7975 -0.0500
 1835TIP3   OH226995   1.557   1.817  15.009 -0.3652  0.5768  0.0670
 1835TIP3    H126996   1.577   1.724  15.003 -0.0519  0.4464  2.4604
 1835TIP3    H226997   1.633   1.861  14.971  0.0214 -0.1300  0.0206
 1836TIP3   OH226998   5.509   5.644  15.008 -0.2395 -0.0775  0.7633
 1836TIP3    H126999   5.510   5.686  14.922 -0.5168  0.1026  0.8478
 1836TIP3    H227000   5.570   5.571  15.000  2.2950  1.8681  1.3845
 1837TIP3   OH227001   0.484   5.981   1.872  0.1672  0.0139 -0.6755
 1837TIP3    H127002   0.451   5.908   1.925  0.5710 -0.3779 -0.9643
 1837TIP3    H227003   0.443   6.059   1.910 -1.9480 -0.5768 -1.7223
 1838TIP3   OH227004   4.656   4.189  16.731 -0.2881 -0.4999 -0.2208
 1838TIP3    H127005   4.730   4.211  16.674 -0.9134  2.2142 -0.0595
 1838TIP3    H227006   4.586   4.165  16.671 -0.1068 -0.3806 -0.4823
 1839TIP3   OH227007   0.618   2.112   0.972 -0.4004 -0.1338 -0.0056
 1839TIP3    H127008   0.678   2.186   0.966  0.6863 -0.9134  0.9374
 1839TIP3    H227009   0.675   2.036   0.988 -1.4085 -1.3079 -1.7336
 1840TIP3   OH227010   2.970   0.729   1.526  0.6634 -0.6556 -0.4844
 1840TIP3    H127011   2.946   0.665   1.593  1.7557  1.3325  1.8602
 1840TIP3    H227012   3.065   0.719   1.516  0.6237 -0.3866 -1.1582
 1841TIP3   OH227013   0.846   4.097   1.010 -0.5780  0.3195 -0.7642
 1841TIP3    H127014   0.775   4.156   0.982 -0.2562  0.6886 -0.7956
 1841TIP3    H227015   0.854   4.112   1.104  0.1618  1.0417 -0.9333
 1842TIP3   OH227016   2.222   5.103  16.878 -0.5657  0.2731 -0.3798
 1842TIP3    H127017   2.197   5.024  16.924 -0.2373  2.0286  2.9613
 1842TIP3    H227018   2.152   5.117  16.814 -0.6052 -2.6692 -1.0180
 1843TIP3   OH227019   4.398   5.651   4.709 -0.1920  0.1235 -0.4266
 1843TIP3    H127020   4.449   5.582   4.751 -0.0838  1.1469  1.1516
 1843TIP3    H227021   4.389   5.622   4.618 -1.7601 -2.8814  0.6413
 1844TIP3   OH227022   4.506   5.914   0.161  0.5126  0.3443  0.0345
 1844TIP3    H127023   4.526   5.955   0.077 -2.7202  2.0226 -0.0167
 1844TIP3    H227024   4.477   5.826   0.139  0.2027  0.5912 -0.5619
 1845TIP3   OH227025   6.358   2.115  13.650 -0.0942 -0.1971  0.0505
 1845TIP3    H127026   6.279   2.100  13.701 -1.9249  2.3472 -1.9049
 1845TIP3    H227027   6.357   2.047  13.583  0.5951 -1.5110  1.3228
 1846TIP3   OH227028   4.228   0.162  14.472 -0.4394  0.7173  0.5246
 1846TIP3    H127029   4.259   0.078  14.504  0.5118  0.2875 -1.4505
 1846TIP3    H227030   4.144   0.175  14.515 -0.1240 -0.7545  1.6140
 1847TIP3   OH227031   6.251   2.225   6.401  0.1873 -0.2735 -0.0061
 1847TIP3    H127032   6.303   2.195   6.475 -2.2004 -1.4559  1.2648
 1847TIP3    H227033   6.226   2.145   6.355 -1.0323  0.2084 -0.2078
 1848TIP3   OH227034   3.300   3.290  15.549  0.2752  0.0116 -0.1680
 1848TIP3    H127035   3.291   3.380  15.520 -1.7550 -0.9660 -2.8137
 1848TIP3    H227036   3.231   3.278  15.614 -0.8674 -0.1923 -1.3905
 1849TIP3   OH227037   1.837   0.635  15.673 -0.4351 -0.6629 -0.4243
 1849TIP3    H127038   1.760   0.663  15.623 -0.6114  2.0438  1.2516
 1849TIP3    H227039   1.895   0.711  15.672  0.2717 -1.1198  2.0627
 1850TIP3   OH227040   3.729   6.471   3.505  0.1464  0.1516  0.1948
 1850TIP3    H127041   3.743   6.497   3.596 -0.1807  2.4009 -0.3652
 1850TIP3    H227042   3.638   6.441   3.502  0.5951 -1.3055  0.9032
 1851TIP3   OH227043   4.783   2.992   3.251  0.6039  0.5915  0.3747
 1851TIP3    H127044   4.859   2.934   3.252  0.4918  0.4176 -1.1179
 1851TIP3    H227045   4.813   3.071   3.207  0.4970  1.3330  1.6135
 1852TIP3   OH227046   0.255   6.379  12.905 -0.4110 -0.5610 -0.2614
 1852TIP3    H127047   0.187   6.445  12.890  0.2070 -0.0234 -0.7870
 1852TIP3    H227048   0.258   6.329  12.823  1.8455  1.3238 -1.3879
 1853TIP3   OH227049   5.660   4.211  14.235  0.0654 -0.0877  0.0360
 1853TIP3    H127050   5.604   4.289  14.232 -0.1124 -0.2100  0.1739
 1853TIP3    H227051   5.670   4.185  14.143  1.8313  1.3252 -0.1922
 1854TIP3   OH227052   3.524   5.253  16.285 -0.3747 -0.0044 -0.0161
 1854TIP3    H127053   3.596   5.292  16.335 -0.0609  0.1647 -0.5902
 1854TIP3    H227054   3.560   5.243  16.197 -0.5035 -1.4420  0.0842
 1855TIP3   OH227055   2.201   2.119   0.412 -0.1902 -0.1125 -1.0214
 1855TIP3    H127056   2.204   2.102   0.506 -1.3891 -0.0758 -0.9695
 1855TIP3    H227057   2.293   2.124   0.386  0.1746  1.1059  0.3673
 1856TIP3   OH227058   0.974   2.763  13.772  0.1698  0.1951 -0.2126
 1856TIP3    H127059   1.046   2.823  13.793 -0.6488  0.5565  1.7440
 1856TIP3    H227060   0.897   2.820  13.763 -0.3394 -0.4179  0.2199
 1857TIP3   OH227061   6.445   2.814  15.780  0.0135  0.5403  0.2877
 1857TIP3    H127062   6.409   2.814  15.868  0.3442  0.3764  0.4215
 1857TIP3    H227063   6.537   2.790  15.791  0.2871  1.4588 -0.0094
 1858TIP3   OH227064   1.048   2.315  14.548 -0.0321 -0.2282 -0.3389
 1858TIP3    H127065   1.135   2.345  14.521 -1.4834  1.8768 -2.9642
 1858TIP3    H227066   1.040   2.227  14.512  0.6821 -0.0828 -0.8531
 1859TIP3   OH227067   3.219   0.630  16.647 -0.0741  0.6661  0.1332
 1859TIP3    H127068   3.251   0.691  16.713 -1.0133  0.3678  0.8785
 1859TIP3    H227069   3.123   0.638  16.652 -0.1533  0.6728 -1.2233
 1860TIP3   OH227070   3.327   2.664   3.464  0.1168  0.3989 -0.2029
 1860TIP3    H127071   3.336   2.739   3.404 -0.4509  1.3769  0.9070
 1860TIP3    H227072   3.326   2.704   3.551  3.1756 -1.1871  0.6068
 1861TIP3   OH227073   1.699   0.292   6.131 -0.6310  0.0390  0.5741
 1861TIP3    H127074   1.646   0.267   6.055 -1.1636  0.4331  0.8144
 1861TIP3    H227075   1.636   0.298   6.203  0.1195 -2.0140  1.4262
 1862TIP3   OH227076   0.159   3.048  13.331 -0.3946 -0.9898  1.0211
 1862TIP3    H127077   0.204   3.130  13.310  0.1339 -0.6892  3.2164
 1862TIP3    H227078   0.151   3.004  13.246 -0.2194  1.0704 -0.1278
 1863TIP3   OH227079   2.735   3.705  11.233 -0.3757  0.0298  0.3375
 1863TIP3    H127080   2.727   3.800  11.238  1.7837  0.2616 -0.1225
 1863TIP3    H227081   2.824   3.690  11.202 -0.9497 -2.1339 -0.3592
 1864TIP3   OH227082   5.644   3.666   4.123 -0.2285  0.1602  0.3059
 1864TIP3    H127083   5.592   3.623   4.055  1.6123  1.5076 -2.0147
 1864TIP3    H227084   5.585   3.669   4.199 -2.7775 -0.2703 -1.5761
 1865TIP3   OH227085   5.851   2.847   2.986 -0.1838  0.3688  0.3192
 1865TIP3    H127086   5.820   2.867   2.897  0.5436  1.3548  0.2782
 1865TIP3    H227087   5.782   2.882   3.043  0.4943  1.9655  0.2064
 1866TIP3   OH227088   4.882   4.784   4.146 -0.1883 -0.1424  0.1477
 1866TIP3    H127089   4.964   4.790   4.097 -0.1595 -2.9036 -0.2728
 1866TIP3    H227090   4.871   4.690   4.162 -1.8390  0.4097  2.6712
 1867TIP3   OH227091   0.665   1.798   4.112 -0.1965  0.6358  0.4115
 1867TIP3    H127092   0.730   1.866   4.095 -1.3715  2.0604  1.4948
 1867TIP3    H227093   0.582   1.845   4.120 -1.4819 -1.1829 -1.4288
 1868TIP3   OH227094   3.463   2.917  14.122  0.0911  0.2324 -0.0240
 1868TIP3    H127095   3.502   2.944  14.038 -0.9115 -1.2696 -0.9974
 1868TIP3    H227096   3.533   2.928  14.186  1.5884 -0.7758 -1.4482
 1869TIP3   OH227097   3.289   2.446   0.285  0.2047 -0.2790  0.3827
 1869TIP3    H127098   3.232   2.503   0.336 -2.5507 -0.2599 -2.5302
 1869TIP3    H227099   3.241   2.364   0.279  1.2399 -0.8146 -0.7204
 1870TIP3   OH227100   3.077   6.674  11.561 -0.8332  0.0599  0.2993
 1870TIP3    H127101   3.106   6.648  11.473 -0.0758 -0.2403  0.6270
 1870TIP3    H227102   3.063   6.768  11.555  1.7453  0.5052  0.5167
 1871TIP3   OH227103   2.218   4.188  15.470  0.3127 -0.6451  0.4216
 1871TIP3    H127104   2.285   4.247  15.435 -0.6135 -0.1389 -0.5260
 1871TIP3    H227105   2.188   4.138  15.395 -1.7203  0.4799  0.4365
 1872TIP3   OH227106   6.337   3.114  11.990 -0.4662  0.2028  0.6227
 1872TIP3    H127107   6.390   3.034  11.989  0.8790  1.0815 -1.1611
 1872TIP3    H227108   6.368   3.163  12.066  0.1903 -0.0152  0.4966
 1873TIP3   OH227109   0.824   4.520   0.791  0.3045 -0.0484  0.5120
 1873TIP3    H127110   0.877   4.520   0.712 -1.1041 -0.1300 -0.4588
 1873TIP3    H227111   0.837   4.606   0.830 -1.8937  1.4034 -1.8288
 1874TIP3   OH227112   4.497   6.027  13.191 -0.0809 -0.0565 -0.3730
 1874TIP3    H127113   4.516   5.976  13.112 -0.5875  0.7919 -1.0536
 1874TIP3    H227114   4.553   6.103  13.184  0.2567 -0.2374  0.3554
 1875TIP3   OH227115   1.579   4.004  14.063 -0.2521  0.3361  0.4433
 1875TIP3    H127116   1.624   4.089  14.061 -0.6930  0.5693  0.3892
 1875TIP3    H227117   1.588   3.975  14.154  1.0529 -0.1843  0.1571
 1876TIP3   OH227118   2.187   0.394   5.010 -0.3628  0.5560 -0.2890
 1876TIP3    H127119   2.096   0.416   5.033 -0.3251 -2.0645  2.6890
 1876TIP3    H227120   2.237   0.470   5.040 -0.9923 -0.4114  3.4761
 1877TIP3   OH227121   5.891   2.912  14.407  0.3840  0.8906 -0.1790
 1877TIP3    H127122   5.837   2.975  14.455 -2.3721 -1.7771  0.4000
 1877TIP3    H227123   5.980   2.931  14.435 -0.7400  2.1270  2.8325
 1878TIP3   OH227124   3.947   0.787   4.187  0.6471 -0.0756 -0.4119
 1878TIP3    H127125   3.930   0.721   4.254 -1.9925 -0.6598 -1.6196
 1878TIP3    H227126   3.992   0.740   4.117  0.4013 -0.1918 -0.4914
 1879TIP3   OH227127   0.760   1.742  14.716 -0.2718  0.1062  0.4879
 1879TIP3    H127128   0.809   1.819  14.745  0.3671  0.2228 -0.8820
 1879TIP3    H227129   0.679   1.778  14.680 -1.0116 -0.0315  1.9595
 1880TIP3   OH227130   4.938   3.118  15.678  0.0144  0.4015 -0.1281
 1880TIP3    H127131   4.883   3.135  15.755  0.6487 -0.4406  0.5165
 1880TIP3    H227132   4.892   3.162  15.607 -1.0472  0.4592  0.5666
 1881TIP3   OH227133   0.834   4.453   6.455 -0.6338 -0.1564 -0.0630
 1881TIP3    H127134   0.888   4.417   6.385 -1.1155  0.2317 -0.6425
 1881TIP3    H227135   0.809   4.378   6.508 -0.9272 -0.5568 -0.7690
 1882TIP3   OH227136   4.066   3.600  11.555  0.2879  0.2600 -0.3010
 1882TIP3    H127137   4.046   3.676  11.500  0.8226  0.6752  0.0816
 1882TIP3    H227138   4.117   3.635  11.627  0.2772 -0.4197  0.0368
 1883TIP3   OH227139   0.951   1.468   0.973  0.1341 -0.5758 -0.0409
 1883TIP3    H127140   0.995   1.383   0.968 -1.4836 -1.3561 -1.8726
 1883TIP3    H227141   0.903   1.474   0.891 -4.0561 -0.2531  2.3259
 1884TIP3   OH227142   0.722   3.598  15.796  0.0613  0.1383  0.5293
 1884TIP3    H127143   0.793   3.607  15.859  0.4170  0.1611  0.1319
 1884TIP3    H227144   0.764   3.564  15.717 -0.7081 -1.8722  0.9478
 1885TIP3   OH227145   6.351   6.000  13.888  0.1663 -0.2790  0.4340
 1885TIP3    H127146   6.432   6.029  13.847 -0.2811  1.4051  0.6885
 1885TIP3    H227147   6.297   5.969  13.815  1.1790 -1.7624  0.3122
 1886TIP3   OH227148   5.227   5.920   4.176 -0.3910  0.4418  0.6219
 1886TIP3    H127149   5.258   5.869   4.100 -1.8242  0.2034  0.1802
 1886TIP3    H227150   5.238   5.860   4.250 -2.7880 -0.8610 -0.0035
 1887TIP3   OH227151   0.191   6.132  11.477  0.0982 -0.0004 -0.2008
 1887TIP3    H127152   0.111   6.162  11.521 -0.4602  0.8756 -1.7741
 1887TIP3    H227153   0.159   6.082  11.402  1.0280 -2.5136  1.0083
 1888TIP3   OH227154   3.459   3.406  14.527 -0.2176  0.0025 -0.5633
 1888TIP3    H127155   3.375   3.402  14.574  0.6933 -1.0975  1.0311
 1888TIP3    H227156   3.475   3.316  14.499  1.7138 -0.3294  1.4879
 1889TIP3   OH227157   0.395   1.515  17.108 -0.0525 -0.1250  0.2721
 1889TIP3    H127158   0.437   1.523  17.193 -0.3083  2.0037  0.2285
 1889TIP3    H227159   0.391   1.605  17.074  0.1221 -0.9474 -2.0199
 1890TIP3   OH227160   3.080   0.609   0.190  0.0303  0.5562  0.1728
 1890TIP3    H127161   3.155   0.566   0.232 -0.4201 -0.1796  0.2297
 1890TIP3    H227162   3.114   0.637   0.105  0.5708  0.8578  0.4814
 1891TIP3   OH227163   5.904   2.116  15.874  0.1701 -0.1720  0.1323
 1891TIP3    H127164   5.817   2.143  15.843  0.5358  0.4705 -0.3459
 1891TIP3    H227165   5.942   2.070  15.799  1.6141  2.6144 -0.9334
 1892TIP3   OH227166   1.976   5.636  15.208  0.7136  0.2709 -0.5131
 1892TIP3    H127167   1.961   5.609  15.298 -0.3515 -0.2946 -0.8511
 1892TIP3    H227168   2.036   5.570  15.172  0.6663  0.1647 -0.3960
 1893TIP3   OH227169   6.007   5.635   4.574 -0.0034  0.2701 -0.1454
 1893TIP3    H127170   6.043   5.676   4.495 -0.8047  0.2543 -0.5292
 1893TIP3    H227171   5.927   5.685   4.593  0.6847  0.8722  1.2083
 1894TIP3   OH227172   4.152   4.861  13.209  0.1678 -0.2145  0.6696
 1894TIP3    H127173   4.069   4.814  13.213  0.9422 -1.6948 -0.1818
 1894TIP3    H227174   4.217   4.798  13.240  1.2540  0.1749 -0.7668
 1895TIP3   OH227175   4.684   6.298   4.879 -0.0334 -0.0397  0.2205
 1895TIP3    H127176   4.652   6.281   4.791  1.8276 -1.0941 -0.2821
 1895TIP3    H227177   4.705   6.391   4.880 -0.2269  0.0072 -0.4032
 1896TIP3   OH227178   2.043   3.528   4.665 -0.0501  0.6852 -0.0781
 1896TIP3    H127179   2.111   3.557   4.603  0.8130  1.6798  1.3068
 1896TIP3    H227180   2.026   3.437   4.640 -0.0225  1.1859 -2.0414
 1897TIP3   OH227181   6.608   0.220   2.798 -0.2861  0.7467  0.0040
 1897TIP3    H127182   6.525   0.257   2.768  0.0033  0.6192 -1.0009
 1897TIP3    H227183   6.644   0.178   2.720 -0.3649 -1.1920  0.9838
 1898TIP3   OH227184   3.908   3.529   2.073  0.2564  0.4752 -0.1352
 1898TIP3    H127185   3.961   3.457   2.106 -0.3618  0.0738 -0.0172
 1898TIP3    H227186   3.934   3.604   2.127  1.7867  0.6462 -1.0549
 1899TIP3   OH227187   2.974   6.269  14.991 -0.4085  0.3076  0.2832
 1899TIP3    H127188   2.909   6.260  15.062 -1.3481  1.3185 -0.4358
 1899TIP3    H227189   2.925   6.247  14.912  0.3175  0.3977 -0.1889
 1900TIP3   OH227190   0.965   3.724  12.130  0.3820  0.9591  0.0004
 1900TIP3    H127191   0.994   3.710  12.039  0.7590  0.2130  0.2242
 1900TIP3    H227192   0.892   3.784  12.123 -0.2116  0.1565 -0.8968
 1901TIP3   OH227193   0.532   3.130   4.050  0.5589 -0.2457 -0.0453
 1901TIP3    H127194   0.548   3.224   4.057  1.8306 -0.3461 -1.4021
 1901TIP3    H227195   0.495   3.105   4.134  3.1323  0.8912  1.4559
 1902TIP3   OH227196   4.801   4.848  16.276  0.2639  0.0939 -0.3641
 1902TIP3    H127197   4.735   4.917  16.283 -0.6262 -0.6064 -1.8742
 1902TIP3    H227198   4.866   4.882  16.214 -1.1845 -1.2058 -2.6470
 1903TIP3   OH227199   6.084   1.794   0.988  0.2923  0.4641  0.0292
 1903TIP3    H127200   6.005   1.773   1.039 -0.1639  0.9999 -0.4510
 1903TIP3    H227201   6.063   1.876   0.944  1.6954  1.4034  1.0966
 1904TIP3   OH227202   2.090   0.829   1.113 -0.4456  0.2588 -0.1338
 1904TIP3    H127203   2.071   0.919   1.085 -2.1935  0.2679  0.9960
 1904TIP3    H227204   2.074   0.830   1.207  0.1216 -1.1037 -0.0152
 1905TIP3   OH227205   0.852   2.234  11.260  0.4941 -0.5465 -0.7251
 1905TIP3    H127206   0.795   2.232  11.183 -0.1610  1.8170 -0.3409
 1905TIP3    H227207   0.908   2.310  11.247  1.8192 -1.3451  0.1548
 1906TIP3   OH227208   2.262   5.328  12.039  0.5946  0.5542 -0.4123
 1906TIP3    H127209   2.251   5.234  12.054  1.2217  0.5199 -0.1230
 1906TIP3    H227210   2.268   5.336  11.943 -1.3015  0.5245 -0.5476
 1907TIP3   OH227211   1.568   4.571  15.544  0.3239 -0.0356  0.0048
 1907TIP3    H127212   1.596   4.506  15.608  0.8606  0.2812  0.0981
 1907TIP3    H227213   1.593   4.532  15.459  2.5729  0.9632  0.1803
 1908TIP3   OH227214   3.564   2.976  12.857  0.1041 -0.3046 -0.0435
 1908TIP3    H127215   3.535   2.978  12.766  1.3679  0.4742 -0.4431
 1908TIP3    H227216   3.659   2.969  12.852  0.1280 -0.9246  1.2252
 1909TIP3   OH227217   2.287   6.565  11.235  0.1611 -0.3751  0.4309
 1909TIP3    H127218   2.309   6.534  11.147  0.6296  1.4292 -0.1051
 1909TIP3    H227219   2.368   6.557  11.285 -0.5478 -3.0486  1.2061
 1910TIP3   OH227220   1.398   3.030   4.438  0.0439 -0.0341  0.4263
 1910TIP3    H127221   1.424   3.067   4.354 -1.1291  1.6776  0.7720
 1910TIP3    H227222   1.303   3.042   4.440 -0.2006 -1.9896  1.1019
 1911TIP3   OH227223   2.577   3.404   5.211 -0.0597  0.3030 -0.0325
 1911TIP3    H127224   2.503   3.409   5.271  1.2020  2.1862  1.4214
 1911TIP3    H227225   2.653   3.426   5.265  1.6010 -1.6779 -1.4680
 1912TIP3   OH227226   3.675   2.369  13.290 -0.0536  0.0556  0.2875
 1912TIP3    H127227   3.594   2.366  13.340 -0.8319  0.6165 -0.9135
 1912TIP3    H227228   3.742   2.336  13.350 -1.0544  0.2168  1.5019
 1913TIP3   OH227229   2.332   0.527   3.259 -0.0928 -0.5026 -0.3149
 1913TIP3    H127230   2.276   0.507   3.184 -1.1722  0.6631  0.1508
 1913TIP3    H227231   2.342   0.622   3.257 -0.6832 -0.3752  1.3730
 1914TIP3   OH227232   3.483   1.245   5.296  0.2364  0.0643 -0.2642
 1914TIP3    H127233   3.425   1.273   5.226  1.1788 -0.3261 -1.2042
 1914TIP3    H227234   3.431   1.180   5.345 -0.5580  0.6305 -0.3394
 1915TIP3   OH227235   5.769   5.125  15.384  0.0323  0.4655 -0.1957
 1915TIP3    H127236   5.678   5.122  15.354 -0.8099 -1.0662  2.4281
 1915TIP3    H227237   5.785   5.218  15.402 -1.5986  0.5237  1.0445
 1916TIP3   OH227238   1.160   6.749   4.028 -0.2218 -0.2950  0.1002
 1916TIP3    H127239   1.111   6.702   4.095  0.5410  0.3341  1.1234
 1916TIP3    H227240   1.118   6.835   4.022  3.0454  1.7056  3.8006
 1917TIP3   OH227241   4.610   5.503  12.027  0.1424  0.3621 -0.1875
 1917TIP3    H127242   4.696   5.468  12.003  0.7857  1.4478  0.5374
 1917TIP3    H227243   4.616   5.597  12.012 -0.2520  0.7279  1.8004
 1918TIP3   OH227244   4.786   6.095  10.771 -0.6135 -0.1379 -0.2669
 1918TIP3    H127245   4.708   6.140  10.803  0.7262  2.1028  0.0049
 1918TIP3    H227246   4.844   6.166  10.743  0.7126 -1.8187 -1.8842
 1919TIP3   OH227247   4.877   3.152   1.068 -0.5050 -0.4731  0.2964
 1919TIP3    H127248   4.797   3.188   1.107  3.0114  1.0384  6.7444
 1919TIP3    H227249   4.878   3.061   1.096 -0.4401 -0.7628 -0.6437
 1920TIP3   OH227250   1.402   2.289   3.052  0.3853  0.0512  0.0722
 1920TIP3    H127251   1.478   2.320   3.002 -0.4131  1.4974 -0.2896
 1920TIP3    H227252   1.394   2.351   3.125  1.0641 -1.5817  1.5528
 1921TIP3   OH227253   6.301   4.891   4.947 -0.0233  0.1326  0.4285
 1921TIP3    H127254   6.344   4.810   4.977 -0.0228 -1.1011 -2.7397
 1921TIP3    H227255   6.210   4.864   4.932 -0.9746  1.7071  2.9945
 1922TIP3   OH227256   4.877   1.293   1.288  0.1373  0.8929 -0.2748
 1922TIP3    H127257   4.865   1.386   1.270 -0.8069  0.9051  0.3926
 1922TIP3    H227258   4.842   1.248   1.211 -1.4570  1.0346  0.3322
 1923TIP3   OH227259   6.145   6.541  12.131  0.3766 -0.5678 -0.7570
 1923TIP3    H127260   6.198   6.507  12.058 -0.2504 -0.1680 -1.4019
 1923TIP3    H227261   6.059   6.556  12.093  0.7262  2.0588 -0.5746
 1924TIP3   OH227262   5.383   2.380  14.640  0.1301 -0.3738 -0.0139
 1924TIP3    H127263   5.401   2.314  14.573  1.1265  0.4088 -0.5119
 1924TIP3    H227264   5.442   2.358  14.712  0.6685  0.1534 -0.2957
 1925TIP3   OH227265   5.310   3.957   0.684  0.5736 -0.2508  0.5986
 1925TIP3    H127266   5.269   3.871   0.694  1.4610 -0.4844  2.3244
 1925TIP3    H227267   5.237   4.017   0.669 -0.1122 -1.1724  0.1619
 1926TIP3   OH227268   6.741   2.777  13.836 -0.2784 -0.1940  0.7073
 1926TIP3    H127269   6.718   2.868  13.820 -0.0965 -0.5696 -2.0364
 1926TIP3    H227270   6.713   2.731  13.757 -1.2978 -2.6980  2.4534
 1927TIP3   OH227271   2.227   3.435  11.903 -0.1148  0.0860  0.4713
 1927TIP3    H127272   2.212   3.497  11.974 -1.3883 -0.7297  0.9269
 1927TIP3    H227273   2.144   3.389  11.892  0.4040 -0.5961 -0.7820
 1928TIP3   OH227274   2.542   6.655  13.172  0.1976  0.2733  0.2228
 1928TIP3    H127275   2.458   6.693  13.144  0.4828  1.1072  0.4635
 1928TIP3    H227276   2.601   6.671  13.099  0.3357  0.3518  0.3502
 1929TIP3   OH227277   6.749   4.268   1.293  0.5150  0.4480  0.0290
 1929TIP3    H127278   6.731   4.203   1.361 -0.1002 -0.6613 -1.1669
 1929TIP3    H227279   6.821   4.321   1.328 -1.4873  1.5415  2.6295
 1930TIP3   OH227280   4.620   2.865  10.649  0.0770  0.2139  0.2170
 1930TIP3    H127281   4.664   2.794  10.695  0.4904 -0.3060 -0.9532
 1930TIP3    H227282   4.669   2.875  10.568 -0.2760  1.5169  0.1542
 1931TIP3   OH227283   4.000   6.441  14.515 -0.5162 -0.0648 -0.0696
 1931TIP3    H127284   4.089   6.436  14.480 -0.6621 -1.7574 -0.2428
 1931TIP3    H227285   3.973   6.532  14.500  0.6504  0.0830 -1.3309
 1932TIP3   OH227286   4.197   3.229  13.433 -0.3679  0.2106 -0.1160
 1932TIP3    H127287   4.166   3.315  13.461 -1.7550 -0.4718  0.5037
 1932TIP3    H227288   4.163   3.219  13.344 -2.3701 -0.7043  0.7069
 1933TIP3   OH227289   0.803   0.345  16.401  0.0884  0.9316  0.3281
 1933TIP3    H127290   0.839   0.398  16.473 -1.0795  0.2311  1.4493
 1933TIP3    H227291   0.876   0.336  16.339  1.0468  1.7395  1.3154
 1934TIP3   OH227292   5.449   1.261   3.608  0.1053 -0.5640  0.7861
 1934TIP3    H127293   5.473   1.243   3.517 -2.2352  1.3381 -0.2684
 1934TIP3    H227294   5.358   1.231   3.615 -0.2373  0.7179  2.0725
 1935TIP3   OH227295   1.542   4.464  13.189 -0.7827  0.0448  0.4881
 1935TIP3    H127296   1.489   4.472  13.110  1.3658 -1.2877 -1.1639
 1935TIP3    H227297   1.501   4.523  13.252 -2.6354  1.0203 -1.5578
 1936TIP3   OH227298   4.745   4.852  12.423  0.3355  0.0138 -0.2967
 1936TIP3    H127299   4.831   4.829  12.460 -0.0126 -0.7288  0.0532
 1936TIP3    H227300   4.715   4.925  12.477  0.4058 -0.2254  0.0720
 1937TIP3   OH227301   6.280   3.375   4.015 -0.0150 -0.3484  0.0986
 1937TIP3    H127302   6.291   3.453   4.070 -0.3861  0.5807 -1.0985
 1937TIP3    H227303   6.190   3.347   4.031 -0.5951  0.7725 -1.0798
 1938TIP3   OH227304   6.681   4.356  15.505  0.0515  0.4026 -0.0915
 1938TIP3    H127305   6.717   4.371  15.417 -0.5782  1.7061 -0.1313
 1938TIP3    H227306   6.739   4.404  15.563 -0.0885  0.3183  0.1180
 1939TIP3   OH227307   0.395   2.018   0.484  0.8392  0.4533  0.4559
 1939TIP3    H127308   0.313   2.054   0.450 -0.3236 -1.7127  0.8740
 1939TIP3    H227309   0.428   2.086   0.544 -0.3671  1.5595 -0.1027
 1940TIP3   OH227310   2.713   3.856  14.714  0.0322  0.3146 -0.2162
 1940TIP3    H127311   2.724   3.770  14.674 -0.2160 -0.1038  0.6202
 1940TIP3    H227312   2.620   3.860  14.738  0.0503  0.7994 -0.2254
 1941TIP3   OH227313   5.398   2.628   5.888  0.7216  0.0814  0.0174
 1941TIP3    H127314   5.367   2.560   5.829 -0.4618  1.2654 -0.7354
 1941TIP3    H227315   5.420   2.581   5.969  0.1735 -1.2190 -0.5776
 1942TIP3   OH227316   1.628   4.063   1.887 -0.2748 -0.5848 -0.3631
 1942TIP3    H127317   1.535   4.082   1.894 -0.3078 -0.4065 -1.2279
 1942TIP3    H227318   1.665   4.092   1.970 -0.6622  1.3406 -0.8308
 1943TIP3   OH227319   1.774   1.035   3.905  0.2473 -0.0598  0.2433
 1943TIP3    H127320   1.752   1.082   3.985 -1.1845 -0.3525  0.0371
 1943TIP3    H227321   1.807   1.103   3.845  0.7164  0.2532  0.8495
 1944TIP3   OH227322   3.679   1.295  10.998 -0.0543 -0.5196  0.5297
 1944TIP3    H127323   3.771   1.269  10.988 -0.2445 -0.9450 -0.0985
 1944TIP3    H227324   3.681   1.391  10.996  0.1089 -0.5585 -1.8196
 1945TIP3   OH227325   2.266   5.034  14.753 -0.2867 -0.1480 -0.3855
 1945TIP3    H127326   2.221   5.081  14.823 -0.9901 -1.1936 -0.1293
 1945TIP3    H227327   2.293   5.102  14.692  0.2727  0.7719  0.8608
 1946TIP3   OH227328   5.968   6.330   0.186  0.0914 -0.1977 -0.9674
 1946TIP3    H127329   5.874   6.342   0.180  0.0709  0.2235  0.1884
 1946TIP3    H227330   5.993   6.293   0.101 -0.9394  0.7513 -1.6825
 1947TIP3   OH227331   2.498   1.776   4.791  0.0730  0.1810  0.0343
 1947TIP3    H127332   2.405   1.754   4.790  0.4298 -1.2934 -1.9883
 1947TIP3    H227333   2.541   1.697   4.822  0.8583  0.0077 -1.4800
 1948TIP3   OH227334   0.077   2.635   3.350 -0.6552  0.0501  0.2458
 1948TIP3    H127335   0.142   2.623   3.281 -0.5653  1.7535  0.0330
 1948TIP3    H227336  -0.007   2.639   3.304 -0.7666 -0.5452  0.3892
 1949TIP3   OH227337   1.061   6.460  15.687 -0.6758  0.2105 -0.2128
 1949TIP3    H127338   1.065   6.463  15.783 -2.3338  0.1462 -0.1304
 1949TIP3    H227339   1.091   6.372  15.664  2.1299  1.0270  0.0788
 1950TIP3   OH227340   3.677   4.217  12.690 -0.0705 -0.3172 -0.2638
 1950TIP3    H127341   3.726   4.289  12.650  2.0492 -0.8902  1.2444
 1950TIP3    H227342   3.744   4.160  12.728 -1.9003 -0.9430  2.1304
 1951TIP3   OH227343   5.044   0.099   0.919 -0.0441 -0.4101 -0.6288
 1951TIP3    H127344   5.139   0.094   0.904  0.5548  2.7663  1.5877
 1951TIP3    H227345   5.028   0.039   0.992  0.3387 -0.6361 -0.7301
 1952TIP3   OH227346   3.237   5.715  16.197 -0.3497 -0.9277 -0.4122
 1952TIP3    H127347   3.195   5.681  16.276 -0.9222  1.3912  0.3002
 1952TIP3    H227348   3.173   5.697  16.128 -1.3429  0.1332  0.2188
 1953TIP3   OH227349   3.588   4.075  13.045  0.3081  0.4112 -0.0420
 1953TIP3    H127350   3.559   4.050  13.132  1.4325 -1.9211 -0.2957
 1953TIP3    H227351   3.515   4.054  12.987  0.3425 -0.0373  0.0754
 1954TIP3   OH227352   2.900   2.596   5.591 -1.0268  0.0752 -0.7854
 1954TIP3    H127353   2.946   2.655   5.531  1.2998 -0.1383  0.7123
 1954TIP3    H227354   2.810   2.594   5.559 -0.2250  1.2932 -3.2364
 1955TIP3   OH227355   0.800   2.053   0.525 -0.1864 -0.1994  0.0073
 1955TIP3    H127356   0.765   1.964   0.532 -0.3610 -0.0901  0.5210
 1955TIP3    H227357   0.736   2.099   0.470  0.0352 -0.4569 -0.4701
 1956TIP3   OH227358   0.739   2.614  15.624 -0.3674 -0.1857 -0.3588
 1956TIP3    H127359   0.830   2.597  15.650 -0.7838 -0.5667  0.9075
 1956TIP3    H227360   0.706   2.528  15.597 -0.7997 -0.3319  0.6347
 1957TIP3   OH227361   6.197   3.648   1.526  0.6208 -0.0549 -0.6587
 1957TIP3    H127362   6.194   3.571   1.470  1.0211 -0.8873  0.4368
 1957TIP3    H227363   6.286   3.681   1.519  0.4823  0.2458 -1.0351
 1958TIP3   OH227364   3.086   6.502   0.700  0.5367 -0.0916 -0.2288
 1958TIP3    H127365   3.005   6.472   0.657 -0.0645  1.3224 -0.1160
 1958TIP3    H227366   3.069   6.489   0.793  0.2284  0.6547 -0.1714
 1959TIP3   OH227367   2.882   3.563   4.209 -0.1259  0.1246  0.7528
 1959TIP3    H127368   2.968   3.528   4.185  0.9985  3.4967 -0.4241
 1959TIP3    H227369   2.901   3.630   4.274 -1.8778  0.9677  0.4239
 1960TIP3   OH227370   5.285   0.249  12.307 -1.0915 -0.1830 -0.0043
 1960TIP3    H127371   5.204   0.218  12.348 -0.3153 -0.7586  1.1204
 1960TIP3    H227372   5.259   0.329  12.262 -2.7090 -1.3878 -1.3093
 1961TIP3   OH227373   0.437   3.948   2.607  0.2602  0.3757  0.5040
 1961TIP3    H127374   0.427   4.020   2.669 -1.1780  0.0555  0.6644
 1961TIP3    H227375   0.453   3.871   2.662 -2.9501 -0.2567  0.6261
 1962TIP3   OH227376   4.739   5.324   3.605 -0.3909  0.5790 -0.0193
 1962TIP3    H127377   4.740   5.297   3.513  1.6128  1.0569 -0.1743
 1962TIP3    H227378   4.652   5.362   3.619 -0.9833 -0.2198 -1.5018
 1963TIP3   OH227379   4.413   6.809   2.604  0.1627  0.2820 -0.1899
 1963TIP3    H127380   4.371   6.860   2.674 -0.4310 -0.8968  0.3328
 1963TIP3    H227381   4.375   6.722   2.613  1.1642 -0.2470 -1.0815
 1964TIP3   OH227382   6.238   5.042   4.189 -0.5061 -0.3439  0.0012
 1964TIP3    H127383   6.248   5.128   4.229 -1.0170  0.1432 -0.9094
 1964TIP3    H227384   6.292   5.045   4.110 -1.8343 -0.2779 -0.9203
 1965TIP3   OH227385   3.234   1.864  16.148  0.1566  0.0068  0.2904
 1965TIP3    H127386   3.139   1.862  16.139  0.2759 -1.6418 -0.9548
 1965TIP3    H227387   3.265   1.904  16.066  0.5623 -0.0208  0.4300
 1966TIP3   OH227388   5.188   4.902  14.367  0.3753  0.0139 -0.4792
 1966TIP3    H127389   5.279   4.906  14.397  0.4237  0.3377 -0.6658
 1966TIP3    H227390   5.143   4.852  14.435  0.4631  0.8417  0.2018
 1967TIP3   OH227391   6.047   0.763  14.315  0.2157  0.1104 -0.1027
 1967TIP3    H127392   6.016   0.753  14.405  0.1901  0.3582 -0.0829
 1967TIP3    H227393   5.975   0.730  14.261 -0.1605  0.8266 -0.0585
 1968TIP3   OH227394   2.207   4.732  12.346  0.3378 -0.1265  0.8389
 1968TIP3    H127395   2.114   4.713  12.346  0.2241  0.3881  0.1940
 1968TIP3    H227396   2.213   4.824  12.321  1.0625 -0.4533 -0.2708
 1969TIP3   OH227397   2.479   5.145  16.922 -0.4153 -0.5329 -0.5098
 1969TIP3    H127398   2.490   5.239  16.937  2.6520 -0.8911 -0.3031
 1969TIP3    H227399   2.385   5.134  16.909 -0.9232  2.4304  0.3434
 1970TIP3   OH227400   5.369   0.847  11.612 -0.3487  0.1200 -0.1239
 1970TIP3    H127401   5.325   0.762  11.616 -1.1861  0.5129 -0.6082
 1970TIP3    H227402   5.454   0.833  11.652 -1.3185 -0.4187  1.7818
 1971TIP3   OH227403   5.235   0.237   4.977 -0.6089  0.1614 -0.5363
 1971TIP3    H127404   5.238   0.151   4.934 -0.5363 -0.3909  0.5709
 1971TIP3    H227405   5.149   0.240   5.019 -0.0037  0.0206  0.7012
 1972TIP3   OH227406   1.898   2.750   0.430  0.2564  0.2189 -0.5997
 1972TIP3    H127407   1.878   2.844   0.430  0.6828  0.3228  0.4967
 1972TIP3    H227408   1.887   2.723   0.339 -0.3338  1.2362 -0.8385
 1973TIP3   OH227409   5.167   3.606   4.799 -0.4441 -0.4806 -0.6286
 1973TIP3    H127410   5.204   3.668   4.737  1.0312 -0.5763  0.1281
 1973TIP3    H227411   5.090   3.650   4.834  0.2718  0.6997 -0.5241
 1974TIP3   OH227412   0.548   2.807  16.727  0.0038  0.2652  0.0625
 1974TIP3    H127413   0.594   2.733  16.686  0.3212  0.6241 -0.2287
 1974TIP3    H227414   0.613   2.846  16.785  0.1707  0.9623 -0.5861
 1975TIP3   OH227415   3.853   2.325   6.119  0.1151  0.8327 -0.5277
 1975TIP3    H127416   3.806   2.274   6.053  2.0841  1.3205 -2.3268
 1975TIP3    H227417   3.895   2.259   6.174  0.0429  0.4597 -0.9140
 1976TIP3   OH227418   1.278   4.083   4.647 -0.5468 -0.0465  0.2576
 1976TIP3    H127419   1.320   4.139   4.712 -1.7010  0.8418  0.2551
 1976TIP3    H227420   1.272   4.137   4.568 -0.3724 -0.6669 -0.1898
 1977TIP3   OH227421   0.671   2.178   6.213  0.2655 -0.1502  0.1358
 1977TIP3    H127422   0.651   2.217   6.298 -1.7443  0.7173 -0.6933
 1977TIP3    H227423   0.585   2.157   6.175  1.1969 -3.2533 -0.4557
 1978TIP3   OH227424   6.439   6.608  12.240  0.4637 -0.4811 -0.3049
 1978TIP3    H127425   6.426   6.587  12.332 -0.5137 -0.3535 -0.4019
 1978TIP3    H227426   6.473   6.698  12.241  0.2174 -0.3883 -0.0749
 1979TIP3   OH227427   4.333   4.844  15.202  0.0368  0.2630  0.5108
 1979TIP3    H127428   4.309   4.817  15.113 -0.5711  1.2986  0.3395
 1979TIP3    H227429   4.380   4.770  15.238  0.4621 -0.1024 -0.7534
 1980TIP3   OH227430   1.188   0.859  13.796 -0.3927  0.2329  0.8500
 1980TIP3    H127431   1.118   0.829  13.854  0.0152 -2.4108  0.0629
 1980TIP3    H227432   1.264   0.871  13.854 -0.2229 -1.5548  1.0469
 1981TIP3   OH227433   1.772   4.538   1.602 -0.2217 -0.2263  0.3108
 1981TIP3    H127434   1.830   4.611   1.623  0.3811 -0.2971 -1.0026
 1981TIP3    H227435   1.713   4.572   1.535  0.1628 -0.9762 -0.4210
 1982TIP3   OH227436   2.582   1.688  13.048 -0.2953 -0.4239  0.0733
 1982TIP3    H127437   2.572   1.607  12.997  1.5944  0.1501 -1.2865
 1982TIP3    H227438   2.542   1.755  12.994  1.5562  0.1584 -0.6293
 1983TIP3   OH227439   0.458   0.000   0.866 -0.1832  0.1670 -0.1763
 1983TIP3    H127440   0.367  -0.028   0.853 -0.1401 -0.0104 -0.0958
 1983TIP3    H227441   0.507  -0.081   0.876 -0.1295  0.2901  0.5363
 1984TIP3   OH227442   3.745   3.560  13.488 -0.2358 -0.0702 -0.1376
 1984TIP3    H127443   3.766   3.507  13.411 -0.1581  1.7210 -1.3846
 1984TIP3    H227444   3.824   3.612  13.504 -0.5550  0.1898  0.6219
 1985TIP3   OH227445   1.623   0.257  13.001 -0.5784 -0.3714 -0.0017
 1985TIP3    H127446   1.570   0.295  12.931 -0.2290  1.1072  0.5241
 1985TIP3    H227447   1.568   0.265  13.080 -1.2342 -2.6148 -0.2000
 1986TIP3   OH227448   3.140   0.641   5.450 -0.6834  0.3409  0.1177
 1986TIP3    H127449   3.157   0.651   5.543 -0.3569 -2.2646  0.3473
 1986TIP3    H227450   3.046   0.659   5.441 -0.3629  2.4088  0.6421
 1987TIP3   OH227451   6.695   5.265  15.769  0.1509 -0.5078 -0.1251
 1987TIP3    H127452   6.722   5.333  15.707  0.0234 -0.0898  0.2775
 1987TIP3    H227453   6.746   5.282  15.848  1.4747 -1.9934 -0.6360
 1988TIP3   OH227454   0.153   3.621  12.492 -0.0447 -0.5952  0.7490
 1988TIP3    H127455   0.144   3.531  12.459  1.7015 -0.5958  0.1876
 1988TIP3    H227456   0.221   3.615  12.559 -2.3173 -0.2630  3.1823
 1989TIP3   OH227457   2.268   5.421   3.517 -0.4440  0.6312  0.5106
 1989TIP3    H127458   2.190   5.370   3.538 -1.4922  2.6755  1.7648
 1989TIP3    H227459   2.276   5.413   3.422 -1.7228 -0.2462  0.4599
 1990TIP3   OH227460   5.381   6.798   5.853 -0.2372  0.1444 -0.0572
 1990TIP3    H127461   5.387   6.856   5.928 -3.0532 -1.0399  1.1478
 1990TIP3    H227462   5.338   6.851   5.785  0.5878  0.6158 -0.2201
 1991TIP3   OH227463   3.842   0.181  13.757  0.0749 -0.4995 -0.6655
 1991TIP3    H127464   3.900   0.253  13.732  0.3511 -0.8932 -1.1609
 1991TIP3    H227465   3.777   0.221  13.815 -0.1961  0.2888 -1.5038
 1992TIP3   OH227466   6.271   0.348  17.010  0.4470  0.0431  0.2838
 1992TIP3    H127467   6.187   0.302  17.000  0.8771 -0.5472 -0.7080
 1992TIP3    H227468   6.320   0.294  17.071  0.2793  0.1363  0.5007
 1993TIP3   OH227469   6.224   5.171   3.565 -0.1054  0.2499  0.0051
 1993TIP3    H127470   6.217   5.078   3.583  0.5844  0.1219 -0.3808
 1993TIP3    H227471   6.291   5.178   3.497  1.0579  1.1549  1.2049
 1994TIP3   OH227472   2.609   0.983   1.628 -0.3152 -0.2807 -0.3326
 1994TIP3    H127473   2.667   0.915   1.661 -0.2926  0.0686  0.3696
 1994TIP3    H227474   2.521   0.949   1.644 -0.3097  0.3431  1.0823
 1995TIP3   OH227475   0.498   5.599  15.468  0.2715  0.2754  0.0746
 1995TIP3    H127476   0.579   5.556  15.443  0.6618  1.6906 -1.1194
 1995TIP3    H227477   0.475   5.559  15.553  1.6836 -0.8048 -0.0356
 1996TIP3   OH227478   3.336   2.386   5.318  0.3178 -0.0761  0.5138
 1996TIP3    H127479   3.334   2.304   5.367 -1.7215 -0.6366 -0.4686
 1996TIP3    H227480   3.244   2.414   5.313  0.6548  0.7731 -1.6397
 1997TIP3   OH227481   3.685   0.007   3.614 -0.0563 -0.2178  0.0233
 1997TIP3    H127482   3.751  -0.052   3.649 -0.7751  0.2577  2.3053
 1997TIP3    H227483   3.701   0.090   3.659 -0.4911  0.6729 -1.4339
 1998TIP3   OH227484   2.985   5.435   0.450  0.3585  0.3069 -0.2206
 1998TIP3    H127485   2.953   5.344   0.454 -0.2668  0.5677  1.2439
 1998TIP3    H227486   2.932   5.481   0.515 -0.2180  2.0213 -1.8648
 1999TIP3   OH227487   2.447   5.597   3.834 -0.5108  0.1470 -0.3370
 1999TIP3    H127488   2.456   5.560   3.922 -0.2887 -0.0777 -0.4564
 1999TIP3    H227489   2.389   5.672   3.846 -0.3542  0.2113  0.0304
 2000TIP3   OH227490   3.290   1.577  11.460 -0.4709  0.0841 -0.2239
 2000TIP3    H127491   3.378   1.611  11.475 -1.2304  1.2334  1.7316
 2000TIP3    H227492   3.244   1.649  11.415 -0.7573 -0.0667 -0.1729
 2001TIP3   OH227493   0.778   3.621  13.741 -0.7901 -0.6083  0.5621
 2001TIP3    H127494   0.800   3.714  13.735 -2.3683 -0.3762 -3.2283
 2001TIP3    H227495   0.862   3.576  13.748  0.1562  0.9563 -0.4760
 2002TIP3   OH227496   2.877   6.166  17.018  0.0121  0.6716 -0.3925
 2002TIP3    H127497   2.835   6.232  16.963 -1.9662  0.1782  0.4498
 2002TIP3    H227498   2.878   6.204  17.105 -1.3835 -0.4777  0.1508
 2003TIP3   OH227499   6.173   1.868   0.153 -0.2320  0.0051 -0.2700
 2003TIP3    H127500   6.182   1.780   0.192 -1.4430 -0.4283 -0.9402
 2003TIP3    H227501   6.126   1.853   0.071 -0.9853  1.3505 -0.1007
 2004TIP3   OH227502   1.682   2.408  14.697  0.0215 -0.1397  0.0985
 2004TIP3    H127503   1.595   2.437  14.668  0.8195  1.6365 -0.5795
 2004TIP3    H227504   1.680   2.312  14.687 -1.5752 -0.0432 -0.6550
 2005TIP3   OH227505   0.014   3.866  15.264 -0.5094 -0.8258  0.4372
 2005TIP3    H127506   0.075   3.919  15.212 -1.0975 -1.1486 -0.6087
 2005TIP3    H227507  -0.036   3.817  15.198  0.3116 -2.9878  1.3843
 2006TIP3   OH227508   0.679   4.012   4.697 -0.2275  0.5146 -0.9498
 2006TIP3    H127509   0.584   4.008   4.707 -0.2229  0.0892 -1.0688
 2006TIP3    H227510   0.713   3.990   4.784 -0.2370  0.6175 -0.9196
 2007TIP3   OH227511   5.808   4.755  14.135 -0.9826 -0.7085 -0.4287
 2007TIP3    H127512   5.731   4.765  14.079 -3.9745 -2.7534  3.0630
 2007TIP3    H227513   5.798   4.822  14.202  0.2443 -1.0674  0.1259
 2008TIP3   OH227514   0.529   3.987   6.172  0.2637 -0.0581 -0.3787
 2008TIP3    H127515   0.583   3.914   6.202  0.0128 -0.1597 -0.1705
 2008TIP3    H227516   0.443   3.970   6.210  0.4037  0.7701  0.3346
 2009TIP3   OH227517   2.108   4.792   3.123 -0.6623  0.7156  0.4332
 2009TIP3    H127518   2.012   4.797   3.125 -0.7019  0.3735 -0.4752
 2009TIP3    H227519   2.134   4.801   3.215 -1.6224 -0.2639  0.8107
 2010TIP3   OH227520   4.428   0.597  13.556  0.2537  0.0010  0.4788
 2010TIP3    H127521   4.354   0.655  13.542  0.6676  0.8220  1.6081
 2010TIP3    H227522   4.389   0.510  13.566 -0.4255  0.1922 -0.4720
 2011TIP3   OH227523   0.187   4.973  16.417  0.3527 -0.6172 -0.7823
 2011TIP3    H127524   0.252   4.995  16.351 -0.4667 -1.0010 -1.7217
 2011TIP3    H227525   0.238   4.937  16.489  1.4925  2.0889 -0.1653
 2012TIP3   OH227526   2.721   0.644  12.630  0.6322 -0.3810  0.4461
 2012TIP3    H127527   2.761   0.578  12.687  1.6317 -0.7854 -0.7000
 2012TIP3    H227528   2.629   0.644  12.655  0.4106 -2.9640 -0.2152
 2013TIP3   OH227529   4.792   6.078   3.742  0.2860 -0.4621  0.6768
 2013TIP3    H127530   4.820   5.989   3.765 -1.0133 -1.6572 -2.0891
 2013TIP3    H227531   4.697   6.073   3.739  0.1861  1.1592  0.9335
 2014TIP3   OH227532   2.402   2.830  13.735  0.5869 -0.1183 -0.3670
 2014TIP3    H127533   2.412   2.905  13.675  2.1067 -1.0217 -1.2590
 2014TIP3    H227534   2.486   2.825  13.781  0.0880 -0.6030  0.4984
 2015TIP3   OH227535   2.570   2.729  11.660  0.6603  0.5805 -0.0768
 2015TIP3    H127536   2.558   2.822  11.675  0.9562  0.8860 -1.6545
 2015TIP3    H227537   2.661   2.712  11.685  0.3819  0.5389  0.9544
 2016TIP3   OH227538   4.238   1.062   2.768  0.4776  0.7983  0.1741
 2016TIP3    H127539   4.159   1.110   2.792 -0.1645 -0.1124 -0.0738
 2016TIP3    H227540   4.223   1.034   2.677 -0.4486 -2.3675  1.2412
 2017TIP3   OH227541   6.425   1.085  10.848  0.0195  0.1534 -0.1805
 2017TIP3    H127542   6.393   1.128  10.769 -0.5163  0.2602  0.0913
 2017TIP3    H227543   6.501   1.138  10.875  1.1213 -0.7614 -1.4463
 2018TIP3   OH227544   4.165   6.435  12.270  0.3327 -0.4651 -0.4484
 2018TIP3    H127545   4.137   6.347  12.294  1.4188 -0.5747  0.4193
 2018TIP3    H227546   4.154   6.486  12.350  2.0344 -0.3745 -0.2620
 2019TIP3   OH227547   0.533   0.244   1.551  0.0300  0.0646 -0.7026
 2019TIP3    H127548   0.501   0.288   1.472 -2.0307 -1.5232 -0.7957
 2019TIP3    H227549   0.470   0.268   1.619  1.3384  0.7632  0.2851
 2020TIP3   OH227550   3.234   5.119  15.171  0.6150 -0.2045  0.2274
 2020TIP3    H127551   3.176   5.047  15.198  0.0238  0.3809  0.5210
 2020TIP3    H227552   3.200   5.196  15.217 -0.3301  0.8012 -2.1069
 2021TIP3   OH227553   2.998   5.090   2.274  0.4222  0.3012 -0.6124
 2021TIP3    H127554   3.065   5.159   2.269  0.7925  0.0934  1.1629
 2021TIP3    H227555   2.987   5.074   2.367 -0.1815 -1.5511 -0.9752
 2022TIP3   OH227556   5.379   2.918  11.331  0.2579  0.5426  0.1040
 2022TIP3    H127557   5.435   2.850  11.294 -0.1718  0.4870 -0.4550
 2022TIP3    H227558   5.299   2.914  11.279  0.5555  2.0484 -0.5105
 2023TIP3   OH227559   0.601   0.134  13.276 -0.2459 -0.1697  0.0004
 2023TIP3    H127560   0.529   0.139  13.339  0.2189  0.1684  0.5178
 2023TIP3    H227561   0.587   0.052  13.229 -0.4536 -0.5600  0.7294
 2024TIP3   OH227562   6.478   5.351  16.221  0.1007 -0.5685  0.3787
 2024TIP3    H127563   6.451   5.284  16.159  0.6647 -0.0579 -0.4295
 2024TIP3    H227564   6.457   5.434  16.179 -0.6439 -0.2245  1.3996
 2025TIP3   OH227565   4.450   0.793   2.469 -0.0052 -0.1107 -0.0126
 2025TIP3    H127566   4.507   0.745   2.409 -0.0639 -1.8592  1.2895
 2025TIP3    H227567   4.400   0.725   2.515 -1.0311  1.2585  0.9601
 2026TIP3   OH227568   1.007   0.401   1.162  0.5457  0.1354  0.4345
 2026TIP3    H127569   1.037   0.311   1.151 -1.0092 -0.3158 -0.2741
 2026TIP3    H227570   0.948   0.398   1.237 -0.7161  0.2323 -0.5251
 2027TIP3   OH227571   2.153   3.064   4.476  0.7906 -0.3876 -0.0209
 2027TIP3    H127572   2.064   3.036   4.497  0.2225  0.2535 -1.5623
 2027TIP3    H227573   2.150   3.160   4.482  1.2702 -0.3424 -0.5094
 2028TIP3   OH227574   2.844   3.875  13.439  0.4511 -0.3114 -0.1265
 2028TIP3    H127575   2.794   3.941  13.487  0.5147 -0.2953 -0.0836
 2028TIP3    H227576   2.780   3.807  13.419  0.6580 -0.7966  0.8649
 2029TIP3   OH227577   4.843   4.562   5.122 -0.3092 -0.1319  0.1727
 2029TIP3    H127578   4.827   4.629   5.056  4.0549 -0.5262 -1.4762
 2029TIP3    H227579   4.878   4.610   5.197 -1.1291 -0.1519  0.5736
 2030TIP3   OH227580   0.987   3.951  11.025  0.1226 -0.9552 -0.4514
 2030TIP3    H127581   0.946   3.864  11.020 -1.2451 -0.4396  1.3651
 2030TIP3    H227582   0.935   4.005  10.964 -0.8443 -0.7280  0.5546
 2031TIP3   OH227583   2.848   4.133  17.007  0.6683  0.1399 -0.1018
 2031TIP3    H127584   2.804   4.209  17.046 -0.4573  0.2282 -1.5021
 2031TIP3    H227585   2.933   4.167  16.979  0.2168  0.8707 -0.6151
 2032TIP3   OH227586   1.032   1.320   3.678  0.3192 -0.6032 -0.4981
 2032TIP3    H127587   0.989   1.400   3.709  0.9089 -1.3849  2.5112
 2032TIP3    H227588   1.124   1.331   3.704  0.7296 -1.5392 -1.5330
 2033TIP3   OH227589   5.261   0.783   0.508  0.2077  0.0430 -0.0483
 2033TIP3    H127590   5.170   0.787   0.479  0.4056 -0.3566 -0.7489
 2033TIP3    H227591   5.258   0.734   0.590 -0.1082 -0.7094 -0.5035
 2034TIP3   OH227592   4.317   0.119   2.835  0.3905 -0.8835 -0.0816
 2034TIP3    H127593   4.299   0.052   2.900 -2.6338  0.7519  0.8664
 2034TIP3    H227594   4.338   0.198   2.886  2.5856 -0.7227 -1.1595
 2035TIP3   OH227595   2.959   5.438  12.917  0.2593  0.3799 -0.4653
 2035TIP3    H127596   2.929   5.388  12.841 -1.6494  1.1584 -0.2590
 2035TIP3    H227597   2.932   5.386  12.993  1.1085  0.1902 -0.2801
 2036TIP3   OH227598   6.487   6.655   2.883  0.1285  0.1381  0.1160
 2036TIP3    H127599   6.481   6.592   2.955 -1.5009  1.6802  1.3777
 2036TIP3    H227600   6.551   6.720   2.914  0.1995  0.2497 -0.2710
 2037TIP3   OH227601   3.438   6.388   3.128  0.1083 -0.0611 -0.0267
 2037TIP3    H127602   3.441   6.298   3.161 -0.6924  0.2765  0.9996
 2037TIP3    H227603   3.352   6.421   3.154 -0.0505  0.6457 -1.3816
 2038TIP3   OH227604   6.560   6.330  11.840  0.6039  0.2575  0.3133
 2038TIP3    H127605   6.616   6.373  11.905  1.3516  0.3716 -0.4001
 2038TIP3    H227606   6.568   6.385  11.762  0.9051 -0.7178 -0.3431
 2039TIP3   OH227607   6.727   4.086   3.385 -0.0139 -0.2242  0.8286
 2039TIP3    H127608   6.814   4.098   3.348  0.0725  0.6644  1.3009
 2039TIP3    H227609   6.669   4.131   3.323  0.1703  1.5962  1.9286
 2040TIP3   OH227610   3.114   6.365   1.383 -0.5405  0.4240 -0.8793
 2040TIP3    H127611   3.178   6.345   1.451 -2.0959  1.2256  0.8557
 2040TIP3    H227612   3.143   6.449   1.347 -0.4361  0.6218 -0.3323
 2041TIP3   OH227613   0.186   0.773   5.175  0.0119 -0.4707 -0.2697
 2041TIP3    H127614   0.226   0.838   5.117 -0.9176  0.5185  0.1831
 2041TIP3    H227615   0.235   0.782   5.257  0.5515 -1.0572 -0.5212
 2042TIP3   OH227616   0.591   0.408   3.612 -0.1962 -0.6554  0.2970
 2042TIP3    H127617   0.534   0.477   3.580 -3.2934 -3.3066 -0.1701
 2042TIP3    H227618   0.571   0.401   3.705 -0.7302 -1.6492  0.1151
 2043TIP3   OH227619   4.192   0.627  15.547 -0.3970  0.4700 -0.0391
 2043TIP3    H127620   4.103   0.596  15.563 -0.3708 -0.3294 -1.3526
 2043TIP3    H227621   4.247   0.563  15.593 -0.4461  0.0345 -0.5789
 2044TIP3   OH227622   5.746   2.833   1.925  0.2280  0.1872 -0.3390
 2044TIP3    H127623   5.759   2.867   1.836  0.6517  0.0187 -0.3452
 2044TIP3    H227624   5.653   2.847   1.943 -0.0969 -0.7760 -1.2352
 2045TIP3   OH227625   3.555   3.863  17.138 -0.1157  0.1610  0.4739
 2045TIP3    H127626   3.630   3.922  17.131 -0.1539  0.1105 -0.4564
 2045TIP3    H227627   3.480   3.921  17.153 -0.0075  0.2713  0.5892
 2046TIP3   OH227628   1.996   2.464   3.391 -0.1918  0.0199 -0.1434
 2046TIP3    H127629   1.911   2.454   3.433 -1.1910 -0.2233 -2.1387
 2046TIP3    H227630   2.025   2.374   3.375 -1.3161  0.0701 -2.7939
 2047TIP3   OH227631   6.416   4.701   3.818 -0.5041  0.3116 -0.2828
 2047TIP3    H127632   6.389   4.612   3.838 -0.9726  0.7198  0.9636
 2047TIP3    H227633   6.500   4.692   3.774  0.2622 -0.6487  1.3733
 2048TIP3   OH227634   0.605   0.056  16.974  0.4650 -0.2953  0.3402
 2048TIP3    H127635   0.687   0.033  17.017  0.5869  0.0620  0.2982
 2048TIP3    H227636   0.578   0.139  17.015  0.9345  0.3999 -0.7427
 2049TIP3   OH227637   5.341   0.521   5.046  0.0544  0.3704 -0.2174
 2049TIP3    H127638   5.292   0.581   4.989  1.5667  0.4532 -1.4571
 2049TIP3    H227639   5.304   0.435   5.028 -0.4472  0.5919 -0.2511
 2050TIP3   OH227640   5.197   5.130   2.526 -0.9165  0.5044  0.5809
 2050TIP3    H127641   5.265   5.197   2.530 -1.2135  0.9653 -1.4603
 2050TIP3    H227642   5.199   5.089   2.612  2.2868  0.1604  0.4193
 2051TIP3   OH227643   1.348   5.232   2.027  0.4612  0.6693  0.8048
 2051TIP3    H127644   1.292   5.304   1.999  1.6098  1.8623  1.4804
 2051TIP3    H227645   1.410   5.273   2.088  0.4303 -1.1060  2.0768
 2052TIP3   OH227646   6.221   3.682  14.202 -0.4331  0.1752 -0.5988
 2052TIP3    H127647   6.179   3.674  14.116 -2.0459 -0.9442  0.2471
 2052TIP3    H227648   6.284   3.610  14.205  1.0878  1.4677 -1.6308
 2053TIP3   OH227649   1.134   3.367   5.007 -0.0772 -0.1662 -0.4382
 2053TIP3    H127650   1.086   3.289   5.037 -0.2540 -0.5637 -1.6898
 2053TIP3    H227651   1.223   3.354   5.039 -0.0923 -0.9227 -0.6778
 2054TIP3   OH227652   2.837   5.679   1.567  0.0584  0.1150 -0.0230
 2054TIP3    H127653   2.865   5.643   1.650  0.5045  2.1964  0.7648
 2054TIP3    H227654   2.756   5.632   1.546  0.8763 -1.6355  0.7079
 2055TIP3   OH227655   1.267   3.029   3.306 -0.2829  0.2763  0.3409
 2055TIP3    H127656   1.222   3.012   3.389 -0.3237 -1.3068  0.0095
 2055TIP3    H227657   1.289   3.122   3.309 -1.8614  0.6286  1.3456
 2056TIP3   OH227658   5.951   6.754   4.199  0.3609 -0.1994  0.2047
 2056TIP3    H127659   6.040   6.720   4.207  0.2252  0.0163  3.3020
 2056TIP3    H227660   5.961   6.848   4.194  0.3364 -0.1831  0.4349
 2057TIP3   OH227661   4.182   4.105   3.685  0.5037  0.1568  0.2722
 2057TIP3    H127662   4.110   4.157   3.651  0.4147 -1.3304 -1.9504
 2057TIP3    H227663   4.260   4.138   3.640  0.6520 -0.6515 -0.0845
 2058TIP3   OH227664   3.285   4.028   5.346  0.2503 -0.0160  0.1306
 2058TIP3    H127665   3.294   4.123   5.355  0.1959  0.0758 -0.7326
 2058TIP3    H227666   3.231   4.017   5.268  0.1414 -0.7538  0.3142
 2059TIP3   OH227667   3.870   3.526   4.361 -0.2249  0.6188  0.2783
 2059TIP3    H127668   3.836   3.608   4.397 -0.9204  1.2847 -1.8211
 2059TIP3    H227669   3.794   3.468   4.359  0.3026 -0.1568  1.9124
 2060TIP3   OH227670   5.587   2.420   2.149  0.4229  0.0507 -0.0141
 2060TIP3    H127671   5.628   2.346   2.192  2.1081  1.3716  0.7129
 2060TIP3    H227672   5.550   2.472   2.220 -0.2709  0.1982 -0.4723
 2061TIP3   OH227673   2.713   4.393   4.303  0.1250  0.4252  0.1678
 2061TIP3    H127674   2.744   4.476   4.267  0.3499  0.3888  0.2731
 2061TIP3    H227675   2.783   4.331   4.283 -0.8852 -0.1620 -1.5722
 2062TIP3   OH227676   4.347   5.074   5.570 -0.1417 -0.0500 -0.0841
 2062TIP3    H127677   4.300   5.104   5.648 -1.6326  0.2180 -1.0441
 2062TIP3    H227678   4.394   5.152   5.540 -0.3567  0.1162  0.0018
 2063TIP3   OH227679   1.752   3.908  12.468 -0.0660  0.5362  0.4699
 2063TIP3    H127680   1.763   4.003  12.473 -0.9756  0.6138  1.0531
 2063TIP3    H227681   1.719   3.892  12.380  0.0535  0.7601  0.3820
 2064TIP3   OH227682   5.336   1.878   0.638  0.3392  0.2481 -0.5454
 2064TIP3    H127683   5.258   1.844   0.683 -0.5586  0.6621 -1.7628
 2064TIP3    H227684   5.379   1.932   0.704 -0.3071 -0.1338  0.2053
 2065TIP3   OH227685   1.356   5.743  13.983 -0.3015  0.0063 -0.2807
 2065TIP3    H127686   1.271   5.782  13.962 -0.1152  0.4586 -0.2060
 2065TIP3    H227687   1.366   5.672  13.920 -0.3737  0.4695 -0.8187
 2066TIP3   OH227688   4.897   2.977  15.360 -0.6356 -0.4965 -0.1859
 2066TIP3    H127689   4.975   2.923  15.348 -1.0500 -0.7253 -2.0319
 2066TIP3    H227690   4.924   3.065  15.335 -0.8858 -0.5194 -0.5409
 2067TIP3   OH227691   3.917   5.800  11.295  0.1633 -0.3684  0.4372
 2067TIP3    H127692   3.930   5.877  11.241  0.4163 -1.9102 -1.7525
 2067TIP3    H227693   3.980   5.808  11.366  0.1546  1.4409  0.2424
 2068TIP3   OH227694   1.027   1.136  15.218  0.1528  0.1793 -0.0663
 2068TIP3    H127695   1.002   1.048  15.190  1.6126 -0.1249 -0.4346
 2068TIP3    H227696   0.980   1.148  15.301 -0.7609 -0.5947 -0.4538
 2069TIP3   OH227697   1.563   0.876  14.301  0.3155  0.6434 -0.2708
 2069TIP3    H127698   1.646   0.919  14.278  0.4156  0.5751 -0.0442
 2069TIP3    H227699   1.495   0.934  14.267  0.4638  0.4800 -0.8411
 2070TIP3   OH227700   3.274   2.158   4.709 -0.0927  0.1817  0.2152
 2070TIP3    H127701   3.259   2.210   4.788 -0.4728  1.0690 -0.4330
 2070TIP3    H227702   3.351   2.105   4.729  0.7654  1.5597  0.5970
 2071TIP3   OH227703   2.540   5.282  13.629  0.0609 -0.7541  0.7704
 2071TIP3    H127704   2.623   5.319  13.659  2.6700 -4.3773 -1.5436
 2071TIP3    H227705   2.509   5.231  13.704  0.8010 -0.7239  1.1070
 2072TIP3   OH227706   5.271   5.530   5.395 -0.2363  0.1171 -0.2311
 2072TIP3    H127707   5.260   5.469   5.468 -0.1582  0.3010 -0.0653
 2072TIP3    H227708   5.340   5.490   5.341  0.9089  0.8199  0.6849
 2073TIP3   OH227709   1.906   3.196  12.600  0.3070  0.5727 -0.5800
 2073TIP3    H127710   1.822   3.158  12.576 -0.2013  1.8457 -0.8841
 2073TIP3    H227711   1.911   3.186  12.695 -0.3870  0.8740 -0.5091
 2074TIP3   OH227712   1.515   6.621  12.713  0.0247 -0.5401  0.3281
 2074TIP3    H127713   1.559   6.699  12.746 -2.6870 -0.2159  3.4138
 2074TIP3    H227714   1.538   6.552  12.776  1.6039 -2.0471 -1.8306
 2075TIP3   OH227715   1.359   5.038  12.165  1.0402 -0.0610 -0.0596
 2075TIP3    H127716   1.276   5.043  12.118  0.5149  1.2472  0.9795
 2075TIP3    H227717   1.417   5.099  12.119 -0.0386  2.6543  2.0450
 2076TIP3   OH227718   2.205   5.157   5.694 -0.1020 -0.2253  0.3903
 2076TIP3    H127719   2.214   5.205   5.776 -0.6410 -2.1399  1.5843
 2076TIP3    H227720   2.258   5.078   5.705  0.4125 -0.1692 -1.3863
 2077TIP3   OH227721   0.697   5.856   0.428  0.4514 -0.3015  0.4186
 2077TIP3    H127722   0.655   5.876   0.511 -0.6143 -0.0170 -0.1703
 2077TIP3    H227723   0.637   5.795   0.385 -0.3323  1.5898 -1.2532
 2078TIP3   OH227724   6.777   1.874   1.626 -0.1225  0.5456  1.0452
 2078TIP3    H127725   6.827   1.901   1.703 -0.1469  1.2526  0.8144
 2078TIP3    H227726   6.725   1.800   1.656  1.4834 -0.5648  1.1451
 2079TIP3   OH227727   4.566   3.094  13.142 -0.2861 -0.5127  0.0055
 2079TIP3    H127728   4.600   3.045  13.068  0.8467 -1.9244  1.4306
 2079TIP3    H227729   4.592   3.043  13.219  1.5712  2.6695  1.5972
 2080TIP3   OH227730   4.555   0.609   4.648 -0.5339 -0.0485  0.1998
 2080TIP3    H127731   4.620   0.550   4.610 -0.1634 -0.0212  0.7842
 2080TIP3    H227732   4.471   0.570   4.625 -0.2991 -0.4944  0.0957
 2081TIP3   OH227733   0.983   6.439  16.323  0.7117 -0.3281 -0.0190
 2081TIP3    H127734   0.983   6.534  16.309  1.9584 -0.4600 -1.0592
 2081TIP3    H227735   0.893   6.412  16.305  0.4819  0.5909 -0.2691
 2082TIP3   OH227736   6.284   0.884   4.737  0.1715 -0.0694  0.0254
 2082TIP3    H127737   6.361   0.856   4.787  1.3710 -0.1210 -1.8350
 2082TIP3    H227738   6.317   0.904   4.650 -1.6294  1.6119 -0.3233
 2083TIP3   OH227739   0.327   3.235  15.644 -0.1850  0.6213 -0.4011
 2083TIP3    H127740   0.298   3.322  15.618  0.5192  1.1048  0.4289
 2083TIP3    H227741   0.420   3.245  15.663 -0.3485 -0.0690  0.8111
 2084TIP3   OH227742   1.935   6.699  16.205 -0.2999 -0.1153 -0.3781
 2084TIP3    H127743   1.855   6.667  16.247 -0.0206  1.1939  1.1492
 2084TIP3    H227744   2.000   6.701  16.274  0.4385  1.1010 -1.0917
 2085TIP3   OH227745   0.542   2.424   0.606 -0.0895 -0.0378 -0.1968
 2085TIP3    H127746   0.449   2.446   0.609 -0.2396 -0.5628 -0.9116
 2085TIP3    H227747   0.559   2.381   0.690 -0.5506 -0.1794 -0.1751
 2086TIP3   OH227748   2.949   5.560   4.865  0.3995  0.0127 -0.4057
 2086TIP3    H127749   2.919   5.635   4.814 -2.1497 -0.3342  0.5206
 2086TIP3    H227750   2.911   5.572   4.952  2.3812 -0.8547  0.6192
 2087TIP3   OH227751   1.283   2.558   2.006 -0.7787 -0.5824 -0.9401
 2087TIP3    H127752   1.325   2.627   1.955  2.4707 -1.2886  0.6761
 2087TIP3    H227753   1.280   2.483   1.947  0.8328 -0.7015 -0.8999
 2088TIP3   OH227754   0.139   1.062   0.678  0.1680 -0.5199  0.0015
 2088TIP3    H127755   0.220   1.113   0.686  0.1404 -0.7335  1.8008
 2088TIP3    H227756   0.069   1.124   0.697  0.0310 -0.8215  0.4903
 2089TIP3   OH227757   1.123   5.805   4.377  0.0267 -0.0008 -0.0175
 2089TIP3    H127758   1.157   5.893   4.389 -0.9969  0.2061  1.5985
 2089TIP3    H227759   1.080   5.806   4.292  0.5687  0.8779 -0.2846
 2090TIP3   OH227760   5.474   4.149   5.313 -0.2711 -0.6059  0.0206
 2090TIP3    H127761   5.491   4.198   5.232  1.4566 -0.0664  0.6984
 2090TIP3    H227762   5.392   4.185   5.346  0.6978  1.4840  0.2214
 2091TIP3   OH227763   3.789   5.656   1.755  0.1781 -0.0632  0.5050
 2091TIP3    H127764   3.807   5.564   1.738 -1.6634 -0.0953 -1.5409
 2091TIP3    H227765   3.872   5.692   1.784  1.5445 -1.8244 -1.1230
 2092TIP3   OH227766   0.244   1.654   4.462 -0.9738 -0.3892  0.3515
 2092TIP3    H127767   0.228   1.633   4.554 -1.2638  1.2984  0.7123
 2092TIP3    H227768   0.157   1.666   4.424 -0.8370 -0.4725  0.0075
 2093TIP3   OH227769   3.138   0.467   2.313 -0.2539  0.1475 -0.0414
 2093TIP3    H127770   3.104   0.458   2.402  1.4940 -0.9846  0.5451
 2093TIP3    H227771   3.180   0.553   2.311  0.1359 -0.0288  0.4051
 2094TIP3   OH227772   0.559   2.633   4.476  0.7309  0.4569 -0.2848
 2094TIP3    H127773   0.607   2.657   4.397  1.8321 -0.0241  0.2315
 2094TIP3    H227774   0.622   2.583   4.528 -0.4160 -0.4359  0.2699
 2095TIP3   OH227775   3.017   3.998   6.047 -0.1680  0.2808  0.5872
 2095TIP3    H127776   3.025   3.976   6.139 -1.3071  0.9515  0.8582
 2095TIP3    H227777   3.046   4.089   6.041 -0.9606  0.5226  0.4360
 2096TIP3   OH227778   3.528   4.733   5.305  0.3026 -0.2696  0.1592
 2096TIP3    H127779   3.572   4.649   5.294 -0.8065 -0.7365 -0.8574
 2096TIP3    H227780   3.538   4.753   5.398  2.3165 -0.5365  0.0104
 2097TIP3   OH227781   4.787   3.820  14.103 -0.7118 -0.5532 -0.0254
 2097TIP3    H127782   4.752   3.732  14.093 -1.0023 -0.5887  1.1924
 2097TIP3    H227783   4.755   3.849  14.189  1.1737 -0.1000  0.5576
 2098TIP3   OH227784   5.219   1.575   5.505  0.2493  0.2598  0.1983
 2098TIP3    H127785   5.286   1.569   5.437 -0.7358 -0.0805 -0.7690
 2098TIP3    H227786   5.268   1.579   5.587  1.5004  2.1694 -0.5954
 2099TIP3   OH227787   5.244   6.810  12.171 -0.4811 -0.2340 -0.0849
 2099TIP3    H127788   5.257   6.904  12.182 -0.0657 -0.3254  0.2063
 2099TIP3    H227789   5.247   6.774  12.260 -2.5180 -0.2914 -0.0199
 2100TIP3   OH227790   2.954   0.811  14.809 -0.2170 -0.0577  0.7346
 2100TIP3    H127791   2.932   0.882  14.750  1.3168 -0.4763 -0.3991
 2100TIP3    H227792   2.872   0.788  14.853 -1.6845 -0.6205 -2.2119
 2101TIP3   OH227793   3.850   3.262   1.257 -1.0106 -0.2097  0.3151
 2101TIP3    H127794   3.824   3.219   1.339  1.1293  1.6225  1.9965
 2101TIP3    H227795   3.817   3.351   1.265  1.5617  0.7816  0.4297
 2102TIP3   OH227796   3.518   1.407  13.999  0.0089  0.0739 -0.5310
 2102TIP3    H127797   3.500   1.500  14.015  2.5095  0.6343 -0.7443
 2102TIP3    H227798   3.461   1.361  14.059  0.5779  1.8434  1.4514
 2103TIP3   OH227799   6.653   4.690   2.005 -0.1769  0.3505 -0.0166
 2103TIP3    H127800   6.578   4.632   2.020 -0.6288  0.2198 -2.5877
 2103TIP3    H227801   6.640   4.761   2.067 -1.9881 -0.1061  0.1747
 2104TIP3   OH227802   4.917   2.022   2.925 -0.0155 -0.2463  0.4149
 2104TIP3    H127803   4.901   2.104   2.879  0.0309 -1.0147 -0.9938
 2104TIP3    H227804   4.969   1.969   2.864 -0.0326 -1.3169  1.2986
 2105TIP3   OH227805   0.002   5.000   3.256  0.2780  0.3229  0.2910
 2105TIP3    H127806   0.056   5.003   3.334  0.9081 -0.7864 -0.0916
 2105TIP3    H227807  -0.009   4.907   3.238 -2.9938  0.4624  1.2108
 2106TIP3   OH227808   2.071   3.715   3.603 -0.5555 -0.8827 -0.0704
 2106TIP3    H127809   2.150   3.751   3.643 -0.5681 -1.5489  0.5507
 2106TIP3    H227810   2.096   3.696   3.513 -0.2209 -0.4030 -0.0827
 2107TIP3   OH227811   2.800   1.688   0.468 -0.5534  0.6018  0.2109
 2107TIP3    H127812   2.763   1.775   0.451 -1.5739 -0.1239 -1.4287
 2107TIP3    H227813   2.760   1.632   0.402  1.2985 -0.8094  0.2422
 2108TIP3   OH227814   4.254   6.492   1.386 -1.0303  0.0330  0.7094
 2108TIP3    H127815   4.300   6.529   1.311  2.1961 -3.4578  0.8389
 2108TIP3    H227816   4.205   6.418   1.351 -1.1005 -0.4135  1.7204
 2109TIP3   OH227817   3.760   2.920   2.681 -0.1716  0.2780  0.1560
 2109TIP3    H127818   3.671   2.950   2.702  0.0965  1.3419 -0.2217
 2109TIP3    H227819   3.810   3.000   2.667  0.9555 -0.3162  0.7538
 2110TIP3   OH227820   2.719   1.345  12.002 -0.3328 -0.3812  0.2597
 2110TIP3    H127821   2.684   1.349  11.913 -0.1669  0.7086  0.2434
 2110TIP3    H227822   2.713   1.252  12.026  1.1634 -0.9467 -1.4928
 2111TIP3   OH227823   5.061   4.716  14.528 -0.2891 -0.1276 -0.1230
 2111TIP3    H127824   4.970   4.696  14.509 -0.5149  0.1283  0.6927
 2111TIP3    H227825   5.061   4.749  14.618  0.7428 -1.0567  0.2270
 2112TIP3   OH227826   5.578   2.808  14.864 -0.5501 -0.0187 -0.0895
 2112TIP3    H127827   5.492   2.795  14.823 -0.8372  1.1413  0.1232
 2112TIP3    H227828   5.571   2.764  14.948 -1.4657  1.3550  0.5724
 2113TIP3   OH227829   3.870   2.232  17.205 -0.4624  0.3440 -0.0569
 2113TIP3    H127830   3.867   2.143  17.170  1.2920  0.8471 -1.5630
 2113TIP3    H227831   3.920   2.224  17.286 -0.3246 -0.0453 -0.1789
 2114TIP3   OH227832   1.258   2.857  15.224  0.2773 -0.0577  0.3712
 2114TIP3    H127833   1.248   2.950  15.200 -0.2656  0.0074  0.8368
 2114TIP3    H227834   1.176   2.816  15.197  0.4525 -0.3710  0.3169
 2115TIP3   OH227835   1.422   5.645  12.228  0.3325 -0.3532 -0.0236
 2115TIP3    H127836   1.470   5.622  12.149 -0.9084  1.3360 -1.3092
 2115TIP3    H227837   1.457   5.731  12.253 -0.2462 -0.2567  0.4662
 2116TIP3   OH227838   4.273   1.093   1.530  0.6800  0.4548  0.0468
 2116TIP3    H127839   4.293   1.124   1.442  0.4687  0.4784  0.0055
 2116TIP3    H227840   4.293   1.167   1.587 -0.3252  0.8516 -0.1063
 2117TIP3   OH227841   3.465   3.191  15.819  0.8289  0.5648  0.1317
 2117TIP3    H127842   3.387   3.220  15.770 -0.4979  0.7506  2.2871
 2117TIP3    H227843   3.441   3.203  15.911  3.1256 -0.1664  0.8546
 2118TIP3   OH227844   4.201   5.708  16.716  0.8472 -0.1049  0.3992
 2118TIP3    H127845   4.231   5.765  16.645 -2.2389  0.3664 -0.5771
 2118TIP3    H227846   4.212   5.761  16.795 -2.1143  2.0081 -0.5055
 2119TIP3   OH227847   5.416   2.873  16.617  0.4429 -0.4067 -0.0106
 2119TIP3    H127848   5.495   2.849  16.667 -0.0679 -0.4897  0.7674
 2119TIP3    H227849   5.436   2.847  16.527  1.6910  0.4663  0.0008
 2120TIP3   OH227850   1.144   2.817   2.675 -0.3531  0.2119  0.3450
 2120TIP3    H127851   1.131   2.906   2.709 -0.3016 -0.4087  1.9999
 2120TIP3    H227852   1.237   2.800   2.688 -0.5898 -0.5194  1.1151
 2121TIP3   OH227853   2.099   1.380   1.142 -0.0182 -0.6257  0.3153
 2121TIP3    H127854   2.046   1.321   1.196 -0.9493  0.5598  0.7175
 2121TIP3    H227855   2.090   1.466   1.184 -1.1295  0.4200 -1.9663
 2122TIP3   OH227856   0.716   6.403  16.283  0.5286  0.4759  0.1240
 2122TIP3    H127857   0.673   6.480  16.246  1.6144  0.2855 -1.6278
 2122TIP3    H227858   0.659   6.330  16.259  1.0033  0.4071 -0.8398
 2123TIP3   OH227859   1.380   0.367   1.007 -0.2878  0.0207  0.0692
 2123TIP3    H127860   1.398   0.276   1.030  2.1323  0.2752 -0.7559
 2123TIP3    H227861   1.290   0.366   0.975 -0.2337 -2.1067 -0.0735
 2124TIP3   OH227862   0.276   6.540   5.259 -0.0703  0.4247 -0.1091
 2124TIP3    H127863   0.362   6.508   5.286 -0.6185  1.6023  3.2565
 2124TIP3    H227864   0.266   6.624   5.302 -2.3178  1.0129 -1.6625
 2125TIP3   OH227865   3.165   0.524  16.381 -0.4605 -0.5122  0.4316
 2125TIP3    H127866   3.158   0.553  16.472 -0.2440  1.2377 -0.0946
 2125TIP3    H227867   3.075   0.522  16.349 -0.4705 -0.3217  0.4459
 2126TIP3   OH227868   0.971   5.970   5.097  0.0640  0.1775  0.0035
 2126TIP3    H127869   0.923   6.052   5.108 -0.1744 -0.0640  0.8120
 2126TIP3    H227870   0.903   5.902   5.106  0.9183 -0.3060  3.9888
 2127TIP3   OH227871   2.119   4.785   3.565 -0.3456 -0.1688  0.2441
 2127TIP3    H127872   2.041   4.755   3.519  0.3733 -1.0245 -0.4354
 2127TIP3    H227873   2.176   4.820   3.497 -1.1773  2.8258  1.0185
 2128TIP3   OH227874   3.934   3.007  16.328  0.1461 -0.0859 -0.1048
 2128TIP3    H127875   3.932   2.974  16.238 -1.7460  0.8674 -0.4563
 2128TIP3    H227876   3.875   2.949  16.376  0.3394  0.0436  0.2919
 2129TIP3   OH227877   5.645   4.095   2.751  0.2965  0.1685 -0.4702
 2129TIP3    H127878   5.657   4.067   2.842 -0.5003 -2.5048 -1.1706
 2129TIP3    H227879   5.560   4.138   2.751  0.2604  0.1020  0.0247
 2130TIP3   OH227880   2.596   2.061  13.736  0.0866 -0.0068  0.1499
 2130TIP3    H127881   2.517   2.008  13.729 -0.1727  0.4077 -0.0796
 2130TIP3    H227882   2.569   2.139  13.784  0.3165  0.2114 -0.0700
 2131TIP3   OH227883   5.958   5.151   2.688  0.0535  0.0781 -0.2827
 2131TIP3    H127884   5.899   5.214   2.729 -0.8288 -1.4391  0.8371
 2131TIP3    H227885   5.934   5.067   2.728  3.0862 -0.5365  0.3203
 2132TIP3   OH227886   1.622   6.253   0.725  0.6182  0.0338 -0.5072
 2132TIP3    H127887   1.670   6.329   0.758 -0.2318  0.7810 -0.9640
 2132TIP3    H227888   1.629   6.259   0.630  1.5677 -1.1371 -0.5193
 2133TIP3   OH227889   2.412   3.095   2.185  0.3517 -0.1233 -0.3598
 2133TIP3    H127890   2.394   3.067   2.095 -0.8362  3.8680 -1.4334
 2133TIP3    H227891   2.333   3.071   2.233 -0.2574  0.4983 -1.0438
 2134TIP3   OH227892   5.175   4.403   5.698  0.2647  0.2027  0.0313
 2134TIP3    H127893   5.225   4.481   5.721  0.0251  0.5341 -0.5690
 2134TIP3    H227894   5.158   4.359   5.782  2.0357 -0.2073  0.2013
 2135TIP3   OH227895   0.384   6.542  15.097  0.1061  0.3644 -0.0470
 2135TIP3    H127896   0.421   6.599  15.164 -1.3542  0.0377  1.0751
 2135TIP3    H227897   0.357   6.463  15.144  1.2726 -0.8972 -1.4233
 2136TIP3   OH227898   1.684   0.833   1.001 -0.1455 -0.2699  0.0936
 2136TIP3    H127899   1.729   0.749   1.015  2.8379  1.5266  1.8894
 2136TIP3    H227900   1.718   0.864   0.917 -0.1456 -0.2116  0.1151
 2137TIP3   OH227901   1.727   5.773  14.272  0.1908 -0.2323 -0.0585
 2137TIP3    H127902   1.708   5.848  14.215  0.2577 -0.7802 -0.7929
 2137TIP3    H227903   1.686   5.698  14.230  0.7801 -0.7556  0.2797
 2138TIP3   OH227904   5.787   0.423  11.781  0.4186  0.6359 -0.3515
 2138TIP3    H127905   5.712   0.365  11.784  0.6845  0.3308  0.4479
 2138TIP3    H227906   5.787   0.458  11.692 -1.2995  1.4816 -0.0323
 2139TIP3   OH227907   4.778   4.827  13.887 -0.1310  0.4558  0.0799
 2139TIP3    H127908   4.770   4.921  13.870  0.5419  0.6195  0.6561
 2139TIP3    H227909   4.746   4.816  13.977  1.6221  0.4264  0.7127
 2140TIP3   OH227910   4.012   5.033   1.362 -0.4771  0.1673  0.1105
 2140TIP3    H127911   3.949   5.000   1.426 -0.7764 -1.6702 -1.1039
 2140TIP3    H227912   3.974   5.011   1.277  1.1737  0.2113 -0.6555
 2141TIP3   OH227913   5.290   2.069  11.811  0.0047 -0.5260  0.3729
 2141TIP3    H127914   5.227   2.138  11.786  0.5747 -0.6100 -1.3630
 2141TIP3    H227915   5.244   1.987  11.793  0.3742 -0.5904 -0.2744
 2142TIP3   OH227916   0.675   4.738  14.361 -0.6185 -0.1384  0.3355
 2142TIP3    H127917   0.581   4.721  14.373 -0.9411  1.9140  0.7681
 2142TIP3    H227918   0.710   4.745  14.450  0.4053 -3.1174  0.2364
 2143TIP3   OH227919   1.776   5.263  11.901  0.4033  0.1293  0.2717
 2143TIP3    H127920   1.838   5.336  11.896  1.8127 -1.0494  0.1928
 2143TIP3    H227921   1.790   5.214  11.820  0.0235 -0.6784  0.6838
 2144TIP3   OH227922   4.379   5.685  14.604 -0.0737 -0.2154  0.8379
 2144TIP3    H127923   4.292   5.646  14.592 -0.4565  1.0297 -0.4944
 2144TIP3    H227924   4.437   5.609  14.615 -1.3337 -1.0568  1.9667
 2145TIP3   OH227925   0.026   3.304   4.548 -0.6343 -0.3938 -0.1106
 2145TIP3    H127926  -0.034   3.252   4.495 -2.4978  0.1583  1.3962
 2145TIP3    H227927   0.059   3.242   4.613 -3.1191  0.3057  1.8999
 2146TIP3   OH227928   3.213   3.424  14.618 -0.0522 -0.1421  0.0197
 2146TIP3    H127929   3.138   3.469  14.656 -0.8110 -1.6525  0.3566
 2146TIP3    H227930   3.175   3.365  14.553  1.0650  0.8799 -1.6120
 2147TIP3   OH227931   4.064   3.907  12.772  0.0751 -0.2706 -0.5336
 2147TIP3    H127932   3.984   3.931  12.725 -0.1123  0.7287  0.2826
 2147TIP3    H227933   4.112   3.989  12.783  1.0277 -0.7990 -0.6643
 2148TIP3   OH227934   0.097   5.062   3.513  0.1884 -0.1098 -0.3690
 2148TIP3    H127935   0.182   5.058   3.556  0.5115  0.4573 -0.9359
 2148TIP3    H227936   0.095   5.150   3.474 -0.7487 -0.0402 -0.1647
 2149TIP3   OH227937   2.111   0.048   1.270  0.0592 -0.3885  0.1449
 2149TIP3    H127938   2.055   0.060   1.346 -2.4897 -1.3490 -1.5122
 2149TIP3    H227939   2.141   0.136   1.248  0.6425 -0.0761  2.1071
 2150TIP3   OH227940   2.817   5.112  15.372 -0.4331  0.6897 -0.0774
 2150TIP3    H127941   2.878   5.144  15.438  1.7749 -1.7010 -0.8785
 2150TIP3    H227942   2.748   5.068  15.422  2.1027 -2.6258  0.6952
 2151TIP3   OH227943   0.821   3.894  13.443 -0.0778 -0.1567 -0.0491
 2151TIP3    H127944   0.737   3.922  13.479  0.0975  0.3138 -0.0007
 2151TIP3    H227945   0.829   3.940  13.360 -0.0609 -0.5295 -0.2559
 2152TIP3   OH227946   5.090   0.102  12.781  0.8030  0.4084  0.0530
 2152TIP3    H127947   5.092   0.032  12.847 -0.4637  1.3122  1.0801
 2152TIP3    H227948   5.165   0.157  12.802  2.0451 -0.8425 -1.0070
 2153TIP3   OH227949   5.034   2.688  16.507 -0.3613 -0.3080  0.8488
 2153TIP3    H127950   5.027   2.682  16.602 -2.3271  0.2613  0.7798
 2153TIP3    H227951   5.038   2.781  16.489 -0.8374 -0.3780  0.3453
 2154TIP3   OH227952   1.527   5.165   0.924  0.0937  0.0176 -0.4240
 2154TIP3    H127953   1.575   5.149   0.842  0.4089 -0.2109 -0.1959
 2154TIP3    H227954   1.453   5.104   0.921 -0.4485  0.6948 -0.9924
 2155TIP3   OH227955   4.498   5.609   0.989  0.8184  0.3951  0.1568
 2155TIP3    H127956   4.511   5.521   0.954  0.6075  0.6862 -0.6670
 2155TIP3    H227957   4.585   5.636   1.019  0.9440  0.0204  0.1307
 2156TIP3   OH227958   4.436   4.138   6.230  0.5119  0.1505 -0.0838
 2156TIP3    H127959   4.505   4.189   6.189 -0.7784  0.1921 -2.2839
 2156TIP3    H227960   4.363   4.141   6.168 -0.7900 -1.5139  1.2917
 2157TIP3   OH227961   5.270   4.097   3.002 -0.3117 -0.2620 -0.4373
 2157TIP3    H127962   5.295   4.011   2.969 -0.9326 -0.5587 -0.1408
 2157TIP3    H227963   5.185   4.083   3.044 -0.2907  0.4416 -0.1546
 2158TIP3   OH227964   3.764   0.208   5.031  0.7464 -0.0141  0.2205
 2158TIP3    H127965   3.779   0.144   4.961  0.5097  0.1382  0.0296
 2158TIP3    H227966   3.780   0.293   4.990  3.2223 -0.0388  1.0256
 2159TIP3   OH227967   3.714   4.962   5.628 -0.4958 -0.4198  0.0560
 2159TIP3    H127968   3.746   4.886   5.579 -0.2152 -0.2722  0.0098
 2159TIP3    H227969   3.784   4.982   5.690 -0.4711 -0.0599 -0.0862
 2160TIP3   OH227970   2.744   0.070   4.348 -0.3751  0.8435  0.4971
 2160TIP3    H127971   2.665   0.076   4.402 -1.3765  0.2769 -0.8698
 2160TIP3    H227972   2.735  -0.014   4.302  0.8340  0.9625  0.0305
 2161TIP3   OH227973   1.189   1.797   1.114 -0.4103  0.1855 -0.0551
 2161TIP3    H127974   1.283   1.777   1.110 -0.5520 -0.6133  0.4678
 2161TIP3    H227975   1.169   1.794   1.208 -1.1842 -0.6898 -0.2546
 2162TIP3   OH227976   3.992   5.598  12.085  0.0819 -0.2131  0.2429
 2162TIP3    H127977   3.988   5.539  12.009  1.0291 -0.1525  0.1410
 2162TIP3    H227978   3.962   5.544  12.159  0.4792 -0.6802  0.0674
 2163TIP3   OH227979   0.552   5.331   3.966  0.1063 -0.7969 -0.0599
 2163TIP3    H127980   0.548   5.345   3.872  0.1349 -2.2740 -0.2877
 2163TIP3    H227981   0.636   5.370   3.993 -0.2611  0.3180 -0.5078
 2164TIP3   OH227982   0.402   3.547   3.648  0.1000 -0.1046 -0.0310
 2164TIP3    H127983   0.431   3.635   3.671  0.1530 -0.4576  1.2429
 2164TIP3    H227984   0.306   3.552   3.652 -0.0216  0.6034 -2.5979
 2165TIP3   OH227985   4.118   0.419  15.263 -0.1909 -0.3083 -0.3344
 2165TIP3    H127986   4.024   0.438  15.266 -0.2437 -0.4555 -1.0284
 2165TIP3    H227987   4.158   0.486  15.317 -0.8484 -1.1640  1.2527
 2166TIP3   OH227988   5.160   4.869   4.042 -0.4855 -0.1787 -0.0198
 2166TIP3    H127989   5.216   4.799   4.009 -1.7267 -2.2566  2.1733
 2166TIP3    H227990   5.219   4.927   4.089  0.5784  0.3984 -1.9920
 2167TIP3   OH227991   4.219   1.625   3.607  0.1814  0.4950 -0.4055
 2167TIP3    H127992   4.181   1.647   3.522 -0.0763  1.1062 -0.1308
 2167TIP3    H227993   4.145   1.596   3.660  0.7923 -3.4565 -1.4971
 2168TIP3   OH227994   1.696   4.437   4.180 -0.0539 -0.1239  0.0419
 2168TIP3    H127995   1.769   4.422   4.241  0.8675 -4.0945 -1.8674
 2168TIP3    H227996   1.713   4.376   4.108 -2.3448  2.8348 -3.1089
 2169TIP3   OH227997   6.182   0.516   5.495  0.4399 -0.1248  0.5680
 2169TIP3    H127998   6.151   0.469   5.418  0.5763  0.2711  0.2695
 2169TIP3    H227999   6.276   0.524   5.483  0.6188 -1.0223  1.3086
 2170TIP3   OH228000   4.145   1.916   2.318  0.0984 -0.0633  0.6045
 2170TIP3    H128001   4.222   1.942   2.266 -0.4432  0.4235  0.0382
 2170TIP3    H228002   4.125   1.827   2.288 -0.5300  0.4138 -0.4033
 2171TIP3   OH228003   1.007   0.843  16.129  0.1595 -0.7353  0.4590
 2171TIP3    H128004   1.055   0.925  16.132  1.2490 -1.3174 -0.5551
 2171TIP3    H228005   0.991   0.821  16.221  3.4282 -1.4190  0.9233
 2172TIP3   OH228006   3.867   4.902   1.549  1.0463  0.1651 -0.1041
 2172TIP3    H128007   3.881   4.825   1.605  1.2919 -0.5795 -1.1854
 2172TIP3    H228008   3.773   4.906   1.536  0.9088  0.8202  1.0305
 2173TIP3   OH228009   2.609   1.606  14.041 -0.3205 -0.5406 -0.3080
 2173TIP3    H128010   2.644   1.532  14.091 -0.7642 -1.5356 -1.4344
 2173TIP3    H228011   2.652   1.599  13.956  0.1525  0.9180 -0.2054
 2174TIP3   OH228012   5.034   5.629   3.977 -0.6029 -0.6885  0.4024
 2174TIP3    H128013   4.992   5.649   4.061 -0.6527 -1.1266  0.4826
 2174TIP3    H228014   4.978   5.562   3.937 -1.5077  0.7124 -0.7334
 2175TIP3   OH228015   1.541   2.658   4.303  0.0949 -0.6090  0.0144
 2175TIP3    H128016   1.453   2.643   4.337  0.4870 -0.7181  1.0031
 2175TIP3    H228017   1.595   2.670   4.382  1.0679 -1.1430 -0.5674
 2176TIP3   OH228018   1.898   0.904   2.926  0.2208  0.5135 -0.5657
 2176TIP3    H128019   1.975   0.952   2.957  0.7774 -0.4245 -0.4710
 2176TIP3    H228020   1.832   0.918   2.994  0.3525  1.1915 -0.5718
 2177TIP3   OH228021   5.144   4.980  14.676 -0.1094  0.3353  0.6985
 2177TIP3    H128022   5.219   4.934  14.713 -0.6739 -0.9159  0.3079
 2177TIP3    H228023   5.181   5.033  14.605  0.8532  2.1110  2.4859
 2178TIP3   OH228024   3.736   3.273  14.470  0.2486 -0.8726  0.6091
 2178TIP3    H128025   3.715   3.194  14.519 -0.8246 -1.2154 -0.3756
 2178TIP3    H228026   3.825   3.297  14.498  0.8899 -2.8604  0.3423
 2179TIP3   OH228027   6.791   0.608   1.016  0.4956  0.3805 -0.2599
 2179TIP3    H128028   6.814   0.622   1.108 -1.1199  0.1379  0.2056
 2179TIP3    H228029   6.770   0.515   1.011 -2.7753  1.0365 -0.0538
 2180TIP3   OH228030   1.144   0.994   1.147 -0.2405  0.5092  0.1219
 2180TIP3    H128031   1.151   1.039   1.231 -1.2420 -1.1528  1.1274
 2180TIP3    H228032   1.225   0.943   1.140 -0.6178 -0.1698  0.5926
 2181TIP3   OH228033   2.046   3.615  10.868  0.3898  0.0824 -0.6684
 2181TIP3    H128034   2.094   3.543  10.909 -0.9143 -0.9634 -0.9363
 2181TIP3    H228035   1.956   3.584  10.863 -0.9279  3.1187  2.4383
 2182TIP3   OH228036   2.747   5.155   4.237  0.4862  0.4961 -0.2065
 2182TIP3    H128037   2.687   5.081   4.237 -0.5513  1.2922  1.8029
 2182TIP3    H228038   2.795   5.148   4.320 -0.4782  2.6901  0.5846
 2183TIP3   OH228039   5.810   2.482   4.064 -0.2113 -0.5035 -0.1793
 2183TIP3    H128040   5.726   2.466   4.022  0.0584  2.6354 -2.1062
 2183TIP3    H228041   5.865   2.408   4.036 -2.1843 -2.4020  0.8401
 2184TIP3   OH228042   1.770   5.649   4.175 -0.9080 -0.4151 -0.4543
 2184TIP3    H128043   1.710   5.614   4.241 -0.3186  0.4405  0.5556
 2184TIP3    H228044   1.759   5.744   4.181 -1.7066 -0.3508 -2.4196
 2185TIP3   OH228045   5.659   1.696   6.127 -0.3307  0.4216 -0.3282
 2185TIP3    H128046   5.730   1.688   6.190  0.3384  0.5668 -1.0630
 2185TIP3    H228047   5.582   1.716   6.181  0.3602  1.2148  0.3866
 2186TIP3   OH228048   5.825   3.480   2.737  0.5110  0.7897 -0.6529
 2186TIP3    H128049   5.789   3.457   2.651 -0.9052  1.3005 -0.2178
 2186TIP3    H228050   5.782   3.421   2.798  2.7556 -0.6952 -0.4635
 2187TIP3   OH228051   0.842   3.437   5.559 -0.3263 -0.4425  0.2993
 2187TIP3    H128052   0.825   3.447   5.653 -0.7799  0.3125  0.1390
 2187TIP3    H228053   0.757   3.449   5.518 -0.1473 -0.8896 -0.2029
 2188TIP3   OH228054   4.886   2.066  10.995 -0.1549  0.3301  0.1458
 2188TIP3    H128055   4.943   2.040  11.067 -0.1902  1.7284  0.6972
 2188TIP3    H228056   4.939   2.128  10.944 -1.0600  1.3938  0.4782
 2189TIP3   OH228057   3.294   5.584   5.133  0.3514 -0.4926 -0.0775
 2189TIP3    H128058   3.260   5.505   5.091  1.1943 -0.5984 -0.5688
 2189TIP3    H228059   3.318   5.642   5.060 -0.7142  0.4117  0.2823
 2190TIP3   OH228060   4.964   1.211  12.661  0.4293 -0.2119 -0.0291
 2190TIP3    H128061   4.876   1.242  12.680  0.7028  0.8390 -0.3748
 2190TIP3    H228062   5.005   1.285  12.615  1.1876 -1.0254 -0.6833
 2191TIP3   OH228063   2.202   1.168  17.161 -0.4847  0.5112  0.3029
 2191TIP3    H128064   2.217   1.080  17.126  0.0816  0.6453  0.2031
 2191TIP3    H228065   2.139   1.155  17.232  0.1821 -0.0852  0.7927
 2192TIP3   OH228066   4.358   3.253  17.079 -0.3989  0.2711  0.2521
 2192TIP3    H128067   4.365   3.346  17.058 -1.6287  0.0856 -1.0758
 2192TIP3    H228068   4.265   3.232  17.066  0.0249 -1.3384 -0.3676
 2193TIP3   OH228069   5.193   3.431  10.816 -0.0682  0.0437  0.0681
 2193TIP3    H128070   5.277   3.384  10.805  0.3433  0.2555  2.0886
 2193TIP3    H228071   5.152   3.427  10.730  1.8016 -0.5146 -0.8258
 2194TIP3   OH228072   3.159   3.976   5.099  0.3283  0.1935 -0.3404
 2194TIP3    H128073   3.181   3.888   5.068  0.6638 -0.0715  0.6529
 2194TIP3    H228074   3.218   4.034   5.051  1.1403 -0.2542  0.1067
 2195TIP3   OH228075   3.492   1.972   3.365 -0.0573 -0.1117 -0.4035
 2195TIP3    H128076   3.459   2.041   3.307 -1.5373 -0.1996  0.3023
 2195TIP3    H228077   3.555   2.016   3.421  0.3922  0.2658 -1.2029
 2196TIP3   OH228078   4.709   2.883   1.407  0.1336  0.2113 -0.2096
 2196TIP3    H128079   4.692   2.852   1.496  0.3549  0.0476 -0.2242
 2196TIP3    H228080   4.696   2.978   1.412 -0.9887  0.0658 -0.2728
 2197TIP3   OH228081   2.618   2.031  10.603  0.4278  0.5001 -0.3189
 2197TIP3    H128082   2.680   1.958  10.600  1.2686  1.2422 -1.1754
 2197TIP3    H228083   2.549   2.006  10.542  0.5295  0.2514 -0.3362
 2198TIP3   OH228084   0.974   3.774   3.755  0.3270  0.3487  0.2812
 2198TIP3    H128085   1.051   3.831   3.757 -0.1789  1.0092  1.6656
 2198TIP3    H228086   0.990   3.710   3.824  0.3326 -0.4526 -0.4611
 2199TIP3   OH228087   4.300   4.343  11.864  0.4950  0.8402 -0.2135
 2199TIP3    H128088   4.276   4.416  11.920  1.7441  0.6602  0.5681
 2199TIP3    H228089   4.345   4.384  11.790 -1.3428  1.0948 -1.2159
 2200TIP3   OH228090   2.247   6.368  16.373 -0.2550 -0.4562  0.9775
 2200TIP3    H128091   2.164   6.413  16.356 -0.5510 -1.0936  0.7134
 2200TIP3    H228092   2.222   6.295  16.430  0.1363 -0.6167  0.9405
 2201TIP3   OH228093   1.768   3.382  14.409 -0.7376 -0.4413 -0.0889
 2201TIP3    H128094   1.844   3.324  14.421 -1.7085 -2.0601 -1.5687
 2201TIP3    H228095   1.700   3.343  14.463 -0.8330  0.4518  0.4475
 2202TIP3   OH228096   1.592   4.059   5.465 -0.4706  0.4772  0.5991
 2202TIP3    H128097   1.499   4.073   5.444  0.2958  2.1902 -1.8930
 2202TIP3    H228098   1.621   3.994   5.401 -0.0343 -0.3689  1.6446
 2203TIP3   OH228099   5.199   1.129   6.405 -0.1814  0.2232  0.1666
 2203TIP3    H128100   5.118   1.084   6.382  0.5277 -0.6409 -0.7220
 2203TIP3    H228101   5.264   1.058   6.410  0.5780  0.9431  0.5629
 2204TIP3   OH228102   0.382   2.760  17.118  0.0743  0.2811 -0.1167
 2204TIP3    H128103   0.385   2.855  17.104  1.4860  0.2903  0.1555
 2204TIP3    H228104   0.345   2.724  17.038  2.0752  0.8447 -1.3192
 2205TIP3   OH228105   6.353   2.263   4.105 -0.1237 -0.0694  0.3549
 2205TIP3    H128106   6.269   2.250   4.148 -1.0665  2.3030 -0.7200
 2205TIP3    H228107   6.373   2.179   4.064 -1.1622 -1.1284  1.9865
 2206TIP3   OH228108   3.442   4.270  14.896  0.0799 -0.2129  0.4447
 2206TIP3    H128109   3.514   4.208  14.908  1.0015  0.1400 -2.7741
 2206TIP3    H228110   3.372   4.218  14.856  0.0843  0.3135 -0.2755
 2207TIP3   OH228111   0.346   6.281   0.028 -0.2277 -0.1244 -0.0325
 2207TIP3    H128112   0.357   6.369  -0.009  1.8035  0.3079  1.5025
 2207TIP3    H228113   0.281   6.293   0.097 -0.3324  0.0741 -0.1633
 2208TIP3   OH228114   1.687   1.200  16.227  0.3108 -0.5224 -0.3498
 2208TIP3    H128115   1.707   1.118  16.182  4.6257 -1.3005  2.7263
 2208TIP3    H228116   1.772   1.234  16.255 -1.6154  3.6555  0.8111
 2209TIP3   OH228117   5.108   6.631   2.548 -0.0878 -0.4429  0.7887
 2209TIP3    H128118   5.043   6.630   2.479  0.8738  1.7223 -0.1965
 2209TIP3    H228119   5.182   6.681   2.512  1.8085 -2.1602  2.1496
 2210TIP3   OH228120   6.362   1.550  13.287  0.1464 -0.0959  0.2323
 2210TIP3    H128121   6.351   1.601  13.207 -0.8740 -0.1317  0.3500
 2210TIP3    H228122   6.429   1.597  13.336 -0.0313  0.5497 -0.1357
 2211TIP3   OH228123   3.534   2.686   2.073 -0.3236  0.1798  0.3065
 2211TIP3    H128124   3.463   2.717   2.128 -0.9746  0.2915 -0.5855
 2211TIP3    H228125   3.516   2.593   2.061 -1.0773  0.4900 -1.0349
 2212TIP3   OH228126   1.700   0.973  14.976  0.2588 -0.3822  0.5048
 2212TIP3    H128127   1.695   0.887  14.934 -1.2735 -0.5691  1.0403
 2212TIP3    H228128   1.729   0.955  15.065  2.2267 -0.1114 -0.0734
 2213TIP3   OH228129   6.759   5.514   2.415  0.1992 -0.5477  0.4979
 2213TIP3    H128130   6.809   5.529   2.495  1.3623  0.4080 -0.3847
 2213TIP3    H228131   6.821   5.534   2.344 -1.2371 -0.0041 -0.6224
 2214TIP3   OH228132   4.676   2.844   2.626 -0.2170 -0.7219 -0.5055
 2214TIP3    H128133   4.666   2.930   2.586  0.0173  0.2047  1.4210
 2214TIP3    H228134   4.768   2.822   2.613 -0.2462 -0.6437 -0.8678
 2215TIP3   OH228135   2.951   6.053   5.139 -0.3747 -0.2682  0.5240
 2215TIP3    H128136   2.895   6.054   5.061 -1.0999 -0.0402  1.0428
 2215TIP3    H228137   2.927   6.132   5.187 -0.3933 -0.7392  1.3041
 2216TIP3   OH228138   2.420   1.257   0.943 -0.2413  0.3056 -0.3959
 2216TIP3    H128139   2.432   1.324   1.010  0.1557 -0.5234  0.3678
 2216TIP3    H228140   2.335   1.218   0.962 -0.0809 -0.0033 -0.3110
 2217TIP3   OH228141   4.045   0.171  16.826  0.2015  0.2822  0.2532
 2217TIP3    H128142   4.086   0.248  16.866 -0.9935  1.6243 -1.0370
 2217TIP3    H228143   4.092   0.097  16.863  1.7030  1.6552  1.1659
 2218TIP3   OH228144   2.821   4.358   5.140 -0.3656 -0.6521 -0.5644
 2218TIP3    H128145   2.786   4.404   5.064 -2.2474 -1.0592  0.0344
 2218TIP3    H228146   2.833   4.267   5.110  3.3947  0.1319 -1.7606
 2219TIP3   OH228147   1.100   0.842  16.658  0.2875  0.4113  0.3586
 2219TIP3    H128148   1.163   0.810  16.593  0.2701  2.2211 -0.5641
 2219TIP3    H228149   1.153   0.879  16.728  0.2839 -0.5207  0.8643
 2220TIP3   OH228150   5.865   0.607   3.543 -0.0316  0.7468  0.4303
 2220TIP3    H128151   5.819   0.637   3.621  0.3586 -1.7142  1.6539
 2220TIP3    H228152   5.956   0.598   3.572 -0.5408 -3.8823  0.8423
 2221TIP3   OH228153   5.966   1.778   3.490  0.0035 -0.4286  0.0428
 2221TIP3    H128154   5.875   1.765   3.461 -0.2172 -0.7209  0.8556
 2221TIP3    H228155   5.960   1.840   3.562  0.5499  0.2437 -0.4814
 2222TIP3   OH228156   0.111   0.978  11.456  0.2124  0.0280 -0.0620
 2222TIP3    H128157   0.196   0.937  11.474 -0.0274 -0.8645 -0.9528
 2222TIP3    H228158   0.115   1.061  11.503  1.5738 -0.0221 -0.0516
 2223TIP3   OH228159   5.642   0.874  13.934  0.4846 -0.0484  0.1756
 2223TIP3    H128160   5.588   0.953  13.924 -0.7420 -0.9173 -0.2008
 2223TIP3    H228161   5.690   0.889  14.016 -1.1587  0.2930  1.1206
 2224TIP3   OH228162   3.656   2.845  15.854  0.6106  0.3249 -0.4888
 2224TIP3    H128163   3.746   2.831  15.823  0.3679 -0.2466 -0.9625
 2224TIP3    H228164   3.611   2.885  15.779  0.4728  0.6157 -0.2495
 2225TIP3   OH228165   6.393   5.979  14.160  0.3305 -0.3448 -0.1517
 2225TIP3    H128166   6.381   5.982  14.065  0.1719 -0.3083 -0.1312
 2225TIP3    H228167   6.487   5.993  14.173  0.6072 -1.8584 -0.3751
 2226TIP3   OH228168   6.210   4.220  14.321  0.1172  0.4394 -0.1266
 2226TIP3    H128169   6.185   4.282  14.252 -0.5970 -0.7200 -0.9261
 2226TIP3    H228170   6.204   4.134  14.279 -2.2778 -0.4516  1.9518
 2227TIP3   OH228171   0.197   1.044   3.599 -0.7455 -0.7103  0.1952
 2227TIP3    H128172   0.201   1.019   3.691 -1.9089 -3.5747 -0.4904
 2227TIP3    H228173   0.104   1.040   3.577 -0.6211  1.1537 -0.8305
 2228TIP3   OH228174   0.881   4.604   1.907  0.3197  0.1492 -0.1874
 2228TIP3    H128175   0.870   4.698   1.894 -2.3458 -0.1549 -0.3767
 2228TIP3    H228176   0.898   4.595   2.001 -1.5398  0.6803  0.2225
 2229TIP3   OH228177   3.519   4.482   4.325  0.1550 -0.5716 -0.4733
 2229TIP3    H128178   3.483   4.394   4.313  0.7481 -1.1390  1.6943
 2229TIP3    H228179   3.443   4.538   4.338 -0.1614 -0.9490 -0.6867
 2230TIP3   OH228180   4.252   5.153   0.038  0.1913  0.3408 -0.0168
 2230TIP3    H128181   4.321   5.213   0.008  0.0764  1.5302  2.0324
 2230TIP3    H228182   4.267   5.072  -0.011  0.4293  1.9854 -2.7677
 2231TIP3   OH228183   0.698   6.535  13.579  0.8076  0.6394  0.1011
 2231TIP3    H128184   0.661   6.504  13.496  0.3542  0.8060  0.2410
 2231TIP3    H228185   0.715   6.628  13.565 -0.6733  1.0140  0.6855
 2232TIP3   OH228186   3.657   5.086  13.727  0.8871 -0.0134 -0.3815
 2232TIP3    H128187   3.714   5.092  13.650 -0.2376 -1.2891 -1.3528
 2232TIP3    H228188   3.570   5.109  13.694 -0.2599 -3.9360 -0.3358
 2233TIP3   OH228189   2.171   1.561   2.848 -0.2855 -0.6001 -0.3589
 2233TIP3    H128190   2.257   1.600   2.837  0.0132 -1.3026 -0.5620
 2233TIP3    H228191   2.122   1.588   2.770 -1.2193  2.2472  1.1464
 2234TIP3   OH228192   1.770   3.545  14.702 -0.0312  0.5426  0.1415
 2234TIP3    H128193   1.681   3.535  14.734  0.1302  1.1493  0.8097
 2234TIP3    H228194   1.809   3.610  14.761  0.6965  0.6473 -0.4499
 2235TIP3   OH228195   2.580   1.018  15.861 -0.4440  0.7027 -0.8788
 2235TIP3    H128196   2.604   0.966  15.784  1.6652  1.1242 -0.5325
 2235TIP3    H228197   2.630   1.100  15.851 -0.6918  1.0427  0.5731
 2236TIP3   OH228198   3.700   0.777   4.762  0.2705 -0.5163 -0.5704
 2236TIP3    H128199   3.710   0.872   4.771 -0.6325 -0.4616 -0.0720
 2236TIP3    H228200   3.690   0.745   4.851 -1.0388 -0.8874 -0.8362
 2237TIP3   OH228201   2.174   3.822  12.587 -0.7868  0.0309 -0.3202
 2237TIP3    H128202   2.114   3.755  12.618  0.0515 -0.3815  0.4227
 2237TIP3    H228203   2.168   3.817  12.491 -3.6201  1.5319 -0.2823
 2238TIP3   OH228204   2.013   3.102  11.136  0.1740  0.0061  0.0554
 2238TIP3    H128205   1.946   3.079  11.200  2.2044 -0.3375  2.1348
 2238TIP3    H228206   2.004   3.196  11.124 -0.7298 -0.0519  0.2644
 2239TIP3   OH228207   5.310   0.803   2.974 -0.0899  0.0737 -0.2421
 2239TIP3    H128208   5.329   0.810   2.881 -0.6758 -0.5749 -0.4173
 2239TIP3    H228209   5.387   0.760   3.011  0.1762  0.4037 -0.4108
 2240TIP3   OH228210   1.331   2.220   3.683  0.0750  0.3698  0.1425
 2240TIP3    H128211   1.337   2.178   3.769  0.5716 -0.3405 -0.2305
 2240TIP3    H228212   1.390   2.295   3.688  0.2417  0.2237  0.3653
 2241TIP3   OH228213   3.045   1.580  11.770 -0.5247  0.2062  0.3603
 2241TIP3    H128214   2.971   1.628  11.732 -0.5073 -0.6123 -0.7265
 2241TIP3    H228215   3.122   1.631  11.745 -0.5185 -0.3064 -0.6796
 2242TIP3   OH228216   1.765   0.300   2.501  0.1490 -0.5833  0.2472
 2242TIP3    H128217   1.733   0.336   2.583  0.4926 -1.4501  0.7698
 2242TIP3    H228218   1.857   0.325   2.497  0.1257 -0.5160  0.1087
 2243TIP3   OH228219   1.643   4.110   2.441 -0.3889 -0.0463 -0.0064
 2243TIP3    H128220   1.718   4.166   2.461 -0.5346  1.2361 -2.8120
 2243TIP3    H228221   1.575   4.138   2.503  0.4211  0.9788  0.4358
 2244TIP3   OH228222   0.148   0.016   3.432  0.0638 -0.4603 -0.2064
 2244TIP3    H128223   0.229  -0.009   3.386  0.9250  1.9427 -0.0653
 2244TIP3    H228224   0.172   0.095   3.480 -1.7930 -0.9900  1.6370
 2245TIP3   OH228225   0.800   3.609   2.041  0.4569  0.5433 -0.1160
 2245TIP3    H128226   0.877   3.554   2.043  0.7628  0.9912  2.2266
 2245TIP3    H228227   0.832   3.697   2.062 -0.6527  0.7337  0.8939
 2246TIP3   OH228228   5.093   2.660  10.251 -0.0617  0.1120 -0.5797
 2246TIP3    H128229   5.076   2.582  10.199 -0.7222 -0.2480  0.1662
 2246TIP3    H228230   5.188   2.661  10.262 -0.1053 -0.9355 -0.0574
 2247TIP3   OH228231   3.819   0.490  14.671 -0.2631  0.6352  0.1095
 2247TIP3    H128232   3.815   0.556  14.602 -1.4450 -1.4200 -1.8606
 2247TIP3    H228233   3.892   0.433  14.646 -0.3636  0.1792  0.8183
 2248TIP3   OH228234   2.337   3.977   3.424  0.0153 -0.0061 -0.0832
 2248TIP3    H128235   2.371   3.951   3.338 -1.5044  0.3361 -0.7982
 2248TIP3    H228236   2.389   3.926   3.486  2.3024  1.0011 -1.1101
 2249TIP3   OH228237   6.161   3.167   3.736 -0.4649 -0.3610  0.3629
 2249TIP3    H128238   6.191   3.092   3.684  0.6754 -0.9025  1.7660
 2249TIP3    H228239   6.070   3.180   3.709 -0.1003 -1.0862 -1.2370
 2250TIP3   OH228240   4.456   3.196  10.822 -0.1272  0.2009  0.0694
 2250TIP3    H128241   4.487   3.200  10.731 -1.0736  2.9621 -0.1846
 2250TIP3    H228242   4.531   3.224  10.874  0.3366 -1.1341  0.1321
 2251TIP3   OH228243   5.890   2.891   6.072  0.4181  0.1785 -0.5002
 2251TIP3    H128244   5.945   2.821   6.035 -1.1847 -1.7334  0.6003
 2251TIP3    H228245   5.836   2.920   5.999  0.3268 -0.5205 -0.7205
 2252TIP3   OH228246   5.349   3.088   3.178  0.8292  0.4773  0.3227
 2252TIP3    H128247   5.264   3.113   3.213 -0.7616 -0.1877 -2.8109
 2252TIP3    H228248   5.407   3.160   3.201 -0.8898  1.5382  1.4573
 2253TIP3   OH228249   2.409   6.415  11.661  0.5258 -0.1516  0.4894
 2253TIP3    H128250   2.395   6.322  11.681  2.0792 -1.1938 -2.9499
 2253TIP3    H228251   2.451   6.450  11.740  1.4930 -2.7660  1.1864
 2254TIP3   OH228252   2.460   0.193  16.885 -0.8276  0.0034  0.0456
 2254TIP3    H128253   2.430   0.128  16.948 -0.8697  0.6034  0.6613
 2254TIP3    H228254   2.554   0.200  16.901 -1.0124  0.9541  0.8221
 2255TIP3   OH228255   2.752   3.051   0.038 -0.0937 -0.4187 -0.0941
 2255TIP3    H128256   2.784   3.097   0.116  0.3034 -1.2923  0.2631
 2255TIP3    H228257   2.691   2.985   0.072  2.8280 -3.2530 -0.1679
 2256TIP3   OH228258   3.143   0.626   5.119  0.2844 -0.3074  0.1358
 2256TIP3    H128259   3.220   0.579   5.151 -0.6217 -1.3941  0.7793
 2256TIP3    H228260   3.097   0.562   5.065 -0.0072  0.4341 -0.4992
 2257TIP3   OH228261   3.317   3.640   4.553 -0.7344  0.0225 -0.1676
 2257TIP3    H128262   3.338   3.708   4.617 -0.5092  0.5410 -0.7834
 2257TIP3    H228263   3.221   3.634   4.555 -0.7197 -0.0453  0.3029
 2258TIP3   OH228264   2.062   3.327  10.673 -0.0946  0.5340  0.2790
 2258TIP3    H128265   2.044   3.369  10.589  2.1668 -0.8147 -0.9021
 2258TIP3    H228266   2.083   3.237  10.651 -0.7353 -0.1665  2.4301
 2259TIP3   OH228267   6.162   6.541  11.121 -0.3660  0.0457 -0.6415
 2259TIP3    H128268   6.152   6.511  11.031 -2.6316  0.2989 -0.5023
 2259TIP3    H228269   6.228   6.482  11.158 -3.0531 -3.3916 -1.0318
 2260TIP3   OH228270   3.799   1.578  11.254 -0.0375  0.3493 -0.0480
 2260TIP3    H128271   3.821   1.491  11.287  1.4703  0.9707  0.6247
 2260TIP3    H228272   3.866   1.597  11.188  0.6101  1.6422  0.9489
 2261TIP3   OH228273   0.181   6.316   4.846  0.4480 -0.1174 -0.0418
 2261TIP3    H128274   0.199   6.408   4.824  2.2073 -0.0628  1.5086
 2261TIP3    H228275   0.171   6.315   4.941 -0.4332 -1.4047 -0.1410
 2262TIP3   OH228276   2.959   5.615  14.392  0.4168  0.8464 -0.3714
 2262TIP3    H128277   2.917   5.701  14.401  0.0474  1.0059 -3.1449
 2262TIP3    H228278   2.918   5.576  14.315  0.3201 -2.0119  1.0393
 2263TIP3   OH228279   3.113   4.875   4.093  0.1031  0.9834 -0.3296
 2263TIP3    H128280   3.020   4.890   4.106 -0.1272  0.9170 -1.8638
 2263TIP3    H228281   3.138   4.937   4.025  0.9085  0.0990 -0.8454
 2264TIP3   OH228282   5.654   6.722  13.770  0.3938 -0.0974  0.1398
 2264TIP3    H128283   5.715   6.677  13.710  1.3869 -0.2023  1.2049
 2264TIP3    H228284   5.711   6.770  13.830 -0.5954  0.2151  0.8401
 2265TIP3   OH228285   5.512   0.070   6.656 -0.3670  0.1537 -0.6522
 2265TIP3    H128286   5.440   0.130   6.639 -0.3188  0.1273 -0.9576
 2265TIP3    H228287   5.590   0.125   6.656 -0.3462  0.1250 -0.7173
 2266TIP3   OH228288   4.121   3.645   2.678  0.6656  0.3228  0.1783
 2266TIP3    H128289   4.073   3.595   2.613  0.0420  2.3586 -0.9816
 2266TIP3    H228290   4.102   3.601   2.761 -2.4013  0.4633 -0.3730
 2267TIP3   OH228291   2.027   2.782   2.554  0.3728 -0.6831  0.2707
 2267TIP3    H128292   2.078   2.764   2.633 -0.7185  0.8483  1.3524
 2267TIP3    H228293   1.938   2.800   2.585 -0.2969 -0.9829 -1.3796
 2268TIP3   OH228294   3.263   2.213   6.060  0.8789 -0.6639  0.3428
 2268TIP3    H128295   3.240   2.241   6.148 -1.6939 -0.1272 -0.4622
 2268TIP3    H228296   3.281   2.120   6.067  0.0333 -0.7550  1.3139
 2269TIP3   OH228297   1.078   0.319  13.703  0.3345 -0.4716 -1.0200
 2269TIP3    H128298   1.044   0.337  13.615  0.4604 -0.6569 -1.1094
 2269TIP3    H228299   1.028   0.376  13.761  2.1464  1.7158 -1.5276
 2270TIP3   OH228300   6.558   5.824  15.371 -0.0208 -0.0250  0.3118
 2270TIP3    H128301   6.603   5.820  15.287 -1.4794 -1.5707 -0.4394
 2270TIP3    H228302   6.627   5.815  15.437  0.9268 -0.8111 -0.7826
 2271TIP3   OH228303   6.440   4.485  15.526 -0.1691  0.4332  0.6694
 2271TIP3    H128304   6.481   4.571  15.532 -0.2826  0.5439 -0.0651
 2271TIP3    H228305   6.512   4.425  15.507 -0.2266  0.5103  0.1991
 2272TIP3   OH228306   1.442   2.928  11.527  0.3204 -0.4336 -0.2239
 2272TIP3    H128307   1.443   2.906  11.433 -2.2863 -1.2002 -0.0857
 2272TIP3    H228308   1.363   2.980  11.538 -0.3946 -1.9441  1.9156
 2273TIP3   OH228309   6.013   4.566  13.569 -0.1771 -0.1721  0.4847
 2273TIP3    H128310   5.944   4.615  13.615 -1.3936 -2.0507  0.7033
 2273TIP3    H228311   6.075   4.543  13.638 -0.6709 -0.7412  0.7418
 2274TIP3   OH228312   0.861   5.642   0.976 -0.8902  0.0429  0.4313
 2274TIP3    H128313   0.937   5.606   0.929 -0.5197  0.1917  0.9164
 2274TIP3    H228314   0.863   5.736   0.958  0.5502  0.4576  2.5499
 2275TIP3   OH228315   4.402   0.821   0.805  0.0322 -0.1712 -0.3088
 2275TIP3    H128316   4.326   0.880   0.798  0.9454  0.9589 -0.8625
 2275TIP3    H228317   4.370   0.737   0.774 -1.0537  0.2446 -0.3508
 2276TIP3   OH228318   4.379   5.932   4.414 -0.1569 -0.0384  0.2893
 2276TIP3    H128319   4.290   5.922   4.447  0.1337 -1.2658  0.7488
 2276TIP3    H228320   4.433   5.885   4.478  0.8552  1.0218  0.2123
 2277TIP3   OH228321   0.413   4.785   0.186  0.0956 -0.6249 -0.0926
 2277TIP3    H128322   0.380   4.777   0.096 -0.5608 -1.5133  0.2144
 2277TIP3    H228323   0.419   4.694   0.216 -0.2256 -0.2969  0.9555
 2278TIP3   OH228324   4.388   2.188  12.142  0.3403  0.3282 -0.1254
 2278TIP3    H128325   4.461   2.127  12.141  0.4760  0.4943 -0.6009
 2278TIP3    H228326   4.364   2.196  12.234  0.4491 -0.2903 -0.0426
 2279TIP3   OH228327   4.694   6.213   4.258 -0.4414 -0.3832 -0.0315
 2279TIP3    H128328   4.767   6.160   4.225 -1.2532 -1.8773  0.5656
 2279TIP3    H228329   4.617   6.181   4.211 -0.8983  0.4861  0.1112
 2280TIP3   OH228330   3.348   4.239   0.207 -0.1208 -0.8848 -0.6373
 2280TIP3    H128331   3.401   4.160   0.216  0.0444 -0.6320  0.7067
 2280TIP3    H228332   3.411   4.308   0.188 -0.2370 -1.0152 -1.5317
 2281TIP3   OH228333   1.967   4.109  15.335  0.1026 -0.0505  0.3841
 2281TIP3    H128334   1.896   4.070  15.284  0.3654 -1.5668  1.1445
 2281TIP3    H228335   2.046   4.068  15.300  0.4158  0.0355  0.9868
 2282TIP3   OH228336   4.465   2.451  12.091 -0.0049  0.2279  0.6981
 2282TIP3    H128337   4.498   2.453  12.002 -0.2704  0.2526  0.5998
 2282TIP3    H228338   4.415   2.370  12.097  0.1958  0.1163  0.8920
 2283TIP3   OH228339   2.011   4.140   4.032  0.5761 -0.0915  0.0517
 2283TIP3    H128340   2.065   4.219   4.027  1.0991 -0.5406 -1.5674
 2283TIP3    H228341   1.978   4.139   4.122  3.7546 -0.1569  1.2750
 2284TIP3   OH228342   1.745   4.905  17.130  0.2345 -0.0581 -0.2194
 2284TIP3    H128343   1.775   4.996  17.135  0.0342 -0.0724  1.4266
 2284TIP3    H228344   1.706   4.888  17.216  2.6718 -2.5079  0.4846
 2285TIP3   OH228345   4.449   6.724   3.310  0.1164 -0.3290 -0.1563
 2285TIP3    H128346   4.430   6.787   3.241  0.7330  0.8311  0.7147
 2285TIP3    H228347   4.531   6.683   3.284  0.3165  0.0624 -0.1437
 2286TIP3   OH228348   1.922   2.747  14.336  0.0373  0.2015 -0.6109
 2286TIP3    H128349   1.971   2.816  14.291 -0.1888  0.2528 -0.7836
 2286TIP3    H228350   1.983   2.712  14.401  0.6464 -0.4356 -1.5165
 2287TIP3   OH228351   5.863   6.582  12.134 -0.1356  0.4294  0.2360
 2287TIP3    H128352   5.844   6.492  12.109  0.9502 -0.6201  2.9217
 2287TIP3    H228353   5.855   6.582  12.230  0.5724  3.0145  0.3339
 2288TIP3   OH228354   5.288   1.687   1.484 -0.2303 -0.8055  0.3535
 2288TIP3    H128355   5.372   1.672   1.441 -0.3968 -2.8031  0.6856
 2288TIP3    H228356   5.223   1.669   1.416 -0.4140 -0.0989  0.3369
 2289TIP3   OH228357   5.351   1.402   0.605 -0.0937  0.6389  0.5037
 2289TIP3    H128358   5.412   1.467   0.639  1.0326  0.1401 -0.5405
 2289TIP3    H228359   5.319   1.439   0.523  0.3045  0.0272  0.0664
 2290TIP3   OH228360   4.083   6.609   0.887 -0.3289 -0.0730  0.2242
 2290TIP3    H128361   4.164   6.614   0.937  0.9896 -1.0788 -1.7473
 2290TIP3    H228362   4.093   6.674   0.817 -2.1608  1.3615  1.2494
 2291TIP3   OH228363   2.076   3.584   4.039 -0.1364  0.2271 -0.1254
 2291TIP3    H128364   1.989   3.556   4.067 -0.7453 -0.0046 -2.1333
 2291TIP3    H228365   2.101   3.651   4.103 -1.6632  0.0852  0.6495
 2292TIP3   OH228366   5.998   3.634  12.217  0.0220 -0.8012  0.7577
 2292TIP3    H128367   5.974   3.660  12.306  0.7365  0.8632  0.4820
 2292TIP3    H228368   5.959   3.702  12.161  2.1156 -0.1606  0.0362
 2293TIP3   OH228369   4.027   3.106  12.265 -0.3829 -0.3437 -0.8976
 2293TIP3    H128370   3.969   3.030  12.276  0.0457 -0.8536 -2.1014
 2293TIP3    H228371   4.108   3.080  12.309  0.0655 -0.9456 -2.0458
 2294TIP3   OH228372   1.528   5.387   4.666  0.4656  0.0870  0.2229
 2294TIP3    H128373   1.608   5.400   4.717 -0.3219  0.4853  1.3969
 2294TIP3    H228374   1.547   5.313   4.609  2.4142  1.5653 -1.0837
 2295TIP3   OH228375   5.933   1.446   0.080 -0.6869  0.0530  0.2327
 2295TIP3    H128376   6.024   1.417   0.089 -0.7574 -0.1741  0.2344
 2295TIP3    H228377   5.899   1.396   0.005 -1.5921 -1.8920  1.8667
 2296TIP3   OH228378   4.750   4.860  13.578 -0.0997 -0.0291 -0.2575
 2296TIP3    H128379   4.824   4.913  13.551 -0.1133  1.2734  2.1069
 2296TIP3    H228380   4.762   4.848  13.672 -2.6372 -0.2015  0.0866
 2297TIP3   OH228381   3.507   6.795   5.020  0.2698  0.0837  0.6018
 2297TIP3    H128382   3.443   6.753   4.963  1.8211 -1.6474  0.0826
 2297TIP3    H228383   3.543   6.866   4.966  1.0661 -0.9631 -0.2612
 2298TIP3   OH228384   2.864   2.651   4.241  0.2606 -0.2741  0.1352
 2298TIP3    H128385   2.910   2.732   4.261  1.2144 -0.6725 -0.4341
 2298TIP3    H228386   2.878   2.596   4.319 -1.2692  0.4824  0.9653
 2299TIP3   OH228387   6.622   1.340   3.749 -0.4434 -0.0204  0.0687
 2299TIP3    H128388   6.680   1.381   3.684  1.4212 -2.3395  0.1969
 2299TIP3    H228389   6.571   1.277   3.698  1.2794 -2.1066  0.8285
 2300TIP3   OH228390   3.738   4.521   2.639  0.3784 -0.1112  0.3746
 2300TIP3    H128391   3.683   4.566   2.702 -0.5192 -0.3421 -0.2396
 2300TIP3    H228392   3.732   4.573   2.559  0.4401 -0.5511  0.0785
 2301TIP3   OH228393   5.651   0.821   0.409  0.3680  0.3360  0.5103
 2301TIP3    H128394   5.730   0.830   0.356  0.7898 -0.7202  0.9317
 2301TIP3    H228395   5.584   0.791   0.349  0.3189  1.1307  0.1703
 2302TIP3   OH228396   3.617   5.182  16.045 -0.0505  0.3506  0.1039
 2302TIP3    H128397   3.595   5.090  16.033  1.7053 -0.0161 -0.5104
 2302TIP3    H228398   3.674   5.203  15.971 -0.0094  1.7827  0.5264
 2303TIP3   OH228399   3.602   6.410   0.246 -0.5736  0.7494 -0.3732
 2303TIP3    H128400   3.556   6.355   0.183 -1.4707 -0.0518  0.9550
 2303TIP3    H228401   3.539   6.477   0.271  0.0911  1.6265 -1.0237
 2304TIP3   OH228402   6.180   3.069  15.407 -0.1111  0.4963 -0.4718
 2304TIP3    H128403   6.201   2.976  15.418  1.3217  1.0271  1.6022
 2304TIP3    H228404   6.093   3.078  15.444  0.7025  0.3888  1.5505
 2305TIP3   OH228405   6.706   1.851  12.392 -0.2276  0.2693  0.0749
 2305TIP3    H128406   6.729   1.905  12.467 -0.0683 -1.7787  1.5600
 2305TIP3    H228407   6.664   1.911  12.331  0.0624  2.0774  1.5954
 2306TIP3   OH228408   3.739   0.426   2.421  0.1248 -0.5285 -0.0989
 2306TIP3    H128409   3.749   0.335   2.394  0.4315 -0.4187 -0.3557
 2306TIP3    H228410   3.766   0.477   2.345  1.8772 -0.2024  0.7112
 2307TIP3   OH228411   4.275   4.629  10.727  0.0763  0.4803 -0.0632
 2307TIP3    H128412   4.245   4.720  10.720  0.5514  0.6563  0.1497
 2307TIP3    H228413   4.368   4.636  10.747  0.1085 -0.0569 -0.0156
 2308TIP3   OH228414   0.222   4.264  10.584 -0.1734 -0.2787 -0.8404
 2308TIP3    H128415   0.263   4.320  10.518  2.3363  0.6975  1.4428
 2308TIP3    H228416   0.264   4.179  10.571 -1.4067 -0.7191 -2.0133
 2309TIP3   OH228417   4.523   4.983  16.130  0.3655 -0.1017 -0.4762
 2309TIP3    H128418   4.550   5.069  16.164  1.2449 -0.3366 -0.5530
 2309TIP3    H228419   4.493   5.001  16.041 -1.9524  0.5178  0.4120
 2310TIP3   OH228420   4.865   2.889  14.525 -0.4549  0.1139  0.1108
 2310TIP3    H128421   4.776   2.922  14.520 -0.8022 -0.8589 -0.2086
 2310TIP3    H228422   4.903   2.908  14.439 -0.2481  0.8176  0.3551
 2311TIP3   OH228423   0.839   4.017  14.869  0.4731 -0.2484  0.2713
 2311TIP3    H128424   0.924   4.060  14.865 -0.1476  1.0600  0.8820
 2311TIP3    H228425   0.846   3.958  14.944  1.1493 -0.8351 -0.2486
 2312TIP3   OH228426   4.500   1.486   1.007 -0.1436  0.1683 -0.3479
 2312TIP3    H128427   4.590   1.495   1.037 -0.9194 -0.6296  2.3087
 2312TIP3    H228428   4.480   1.393   1.017 -1.3558  0.3762 -0.6986
 2313TIP3   OH228429   0.805   0.198  12.495 -0.5081 -0.5485 -0.8404
 2313TIP3    H128430   0.819   0.113  12.537 -0.6899 -1.0666 -1.8303
 2313TIP3    H228431   0.781   0.256  12.567 -0.7115 -1.4113 -0.2052
 2314TIP3   OH228432   3.107   4.110   2.532 -0.8785  0.2769 -0.2558
 2314TIP3    H128433   3.043   4.146   2.470  0.9790  0.6835 -2.0130
 2314TIP3    H228434   3.192   4.125   2.489  0.3851 -0.2814  1.9951
 2315TIP3   OH228435   3.744   0.564   5.518  0.0174  0.5293  0.2534
 2315TIP3    H128436   3.796   0.521   5.586  0.8613 -1.6718 -1.7432
 2315TIP3    H228437   3.669   0.506   5.505  1.1175 -0.3596 -2.4014
 2316TIP3   OH228438   2.188   2.138   1.376  0.1993 -0.2739 -0.7129
 2316TIP3    H128439   2.281   2.135   1.401 -0.0484  0.6448  0.3866
 2316TIP3    H228440   2.163   2.046   1.370  1.2071 -0.5335 -1.1013
 2317TIP3   OH228441   4.524   3.783   3.052  0.1076 -0.2623 -0.0272
 2317TIP3    H128442   4.438   3.781   3.095  0.4731 -0.6812  0.6897
 2317TIP3    H228443   4.513   3.728   2.974 -0.4631  0.2239 -0.2929
 2318TIP3   OH228444   3.655   5.107   5.277  0.9074  0.1132  0.1620
 2318TIP3    H128445   3.708   5.165   5.223 -0.3313 -0.5911 -1.8883
 2318TIP3    H228446   3.715   5.036   5.302  1.4779  0.4124 -0.3594
 2319TIP3   OH228447   2.707   4.642   6.049 -0.0153 -0.4248  0.7122
 2319TIP3    H128448   2.640   4.587   6.089 -0.2083 -1.0121 -0.3748
 2319TIP3    H228449   2.787   4.589   6.053  0.1807 -0.0908  1.1999
 2320TIP3   OH228450   0.585   3.221  16.801 -0.4589 -0.4263  0.4539
 2320TIP3    H128451   0.513   3.236  16.862 -0.0472 -0.1194  0.8700
 2320TIP3    H228452   0.664   3.237  16.852 -0.1575  2.9148 -0.9316
 2321TIP3   OH228453   3.949   3.258  11.527 -0.1372  0.3885  0.5496
 2321TIP3    H128454   3.999   3.220  11.454  0.1134  1.3916  0.1967
 2321TIP3    H228455   3.886   3.189  11.551  1.0891 -0.6932  0.6851
 2322TIP3   OH228456   4.918   1.998   1.995 -0.5441  0.5283 -0.3551
 2322TIP3    H128457   4.926   2.052   1.917  0.2322  0.7518 -0.1288
 2322TIP3    H228458   5.005   2.002   2.036 -0.1562 -1.7556 -0.9073
 2323TIP3   OH228459   1.965   0.298   0.212 -0.0483  0.4579 -0.2243
 2323TIP3    H128460   1.930   0.387   0.206 -0.3060  0.3205 -0.8268
 2323TIP3    H228461   1.953   0.262   0.124  0.3161 -0.0753 -0.0580
 2324TIP3   OH228462   4.949   3.641  14.395 -1.0684  0.0128 -0.1043
 2324TIP3    H128463   5.023   3.589  14.424 -1.7143 -0.4275  0.8081
 2324TIP3    H228464   4.924   3.604  14.310 -1.4084 -1.0647  0.4519
 2325TIP3   OH228465   0.712   2.025  15.268  0.2546  0.2178  0.0518
 2325TIP3    H128466   0.722   1.990  15.179 -1.1379 -0.1794  0.0338
 2325TIP3    H228467   0.799   2.054  15.292  0.4184  1.4662 -1.9253
 2326TIP3   OH228468   1.966   3.260  15.192 -0.0383 -0.1556 -0.4085
 2326TIP3    H128469   2.052   3.246  15.154 -0.9263 -2.3623 -1.7105
 2326TIP3    H228470   1.921   3.176  15.182 -2.0841  0.7256  0.9230
 2327TIP3   OH228471   4.925   4.826   3.802 -0.1684  0.2839 -0.2034
 2327TIP3    H128472   4.943   4.909   3.847 -0.7141  0.9658 -1.2419
 2327TIP3    H228473   4.831   4.815   3.810 -0.2239  0.2585 -0.9420
 2328TIP3   OH228474   6.144   6.601   0.793  0.3221 -0.6955 -0.1606
 2328TIP3    H128475   6.170   6.682   0.837 -0.2612 -0.4074 -0.3378
 2328TIP3    H228476   6.171   6.532   0.853 -1.1858 -0.2729  1.0527
 2329TIP3   OH228477   2.356   3.040  15.579 -0.4191 -0.0721  0.0691
 2329TIP3    H128478   2.451   3.035  15.582 -0.4708 -0.7216  1.1103
 2329TIP3    H228479   2.337   3.113  15.521  0.6722 -1.5529 -2.2115
 2330TIP3   OH228480   6.067   1.977   2.219  0.6635  0.0711  0.0694
 2330TIP3    H128481   6.054   1.916   2.292  1.4103  1.4919  1.4356
 2330TIP3    H228482   6.162   1.993   2.217  1.0182 -2.0638 -3.0118
 2331TIP3   OH228483   3.625   6.326  12.097 -0.2295  0.3803 -0.1977
 2331TIP3    H128484   3.623   6.231  12.091  0.2742  0.4492 -1.5894
 2331TIP3    H228485   3.596   6.345  12.186  0.5906 -1.1109  0.3961
 2332TIP3   OH228486   1.337   3.608   4.425 -0.2179  0.3101  0.1940
 2332TIP3    H128487   1.430   3.587   4.441  0.8075  0.0184 -5.1361
 2332TIP3    H228488   1.333   3.704   4.430  0.6954  0.4168 -1.0367
 2333TIP3   OH228489   3.081   4.604   4.858 -0.0221 -0.4239  0.3926
 2333TIP3    H128490   3.133   4.670   4.812 -2.9693  1.1913 -0.7780
 2333TIP3    H228491   3.056   4.542   4.790  0.4627 -1.2475  0.9643
 2334TIP3   OH228492   2.972   4.673  11.958 -0.1998  0.0357  0.0849
 2334TIP3    H128493   3.036   4.672  11.887 -0.9656  0.4797 -0.6256
 2334TIP3    H228494   2.990   4.754  12.006  1.4022 -1.0767  1.4284
 2335TIP3   OH228495   5.126   2.160  16.247  0.0423 -0.3972 -0.2954
 2335TIP3    H128496   5.098   2.250  16.233 -1.3198 -0.8573 -0.5863
 2335TIP3    H228497   5.213   2.168  16.285 -0.9287  1.0869  1.7206
 2336TIP3   OH228498   4.988   2.116  15.753  0.0250 -0.7612  0.0275
 2336TIP3    H128499   4.959   2.208  15.753 -0.5857 -0.9207 -1.7780
 2336TIP3    H228500   5.049   2.110  15.826 -0.3852  0.9388  0.5470
 2337TIP3   OH228501   4.836   0.625  14.587 -0.0684 -0.1002 -0.0830
 2337TIP3    H128502   4.766   0.690  14.596 -0.6680 -0.7637  0.0833
 2337TIP3    H228503   4.799   0.558  14.529  0.8018  0.0579 -0.8280
 2338TIP3   OH228504   1.817   3.534   3.537  0.4086 -0.4855  0.4348
 2338TIP3    H128505   1.770   3.600   3.487 -1.2826 -2.0864 -0.1462
 2338TIP3    H228506   1.894   3.580   3.572  0.4284  1.2195 -1.7491
 2339TIP3   OH228507   5.960   6.082   1.805 -0.3002 -0.1006  0.0746
 2339TIP3    H128508   5.957   6.031   1.724 -1.3696 -0.2252  0.1917
 2339TIP3    H228509   6.012   6.160   1.782  0.0072 -0.4813 -0.5300
 2340TIP3   OH228510   0.759   1.868   6.513 -0.5659 -0.2773  0.6778
 2340TIP3    H128511   0.666   1.872   6.492 -0.5367  0.3153  0.6569
 2340TIP3    H228512   0.770   1.929   6.586  0.0185  0.5519 -0.0969
 2341TIP3   OH228513   1.165   1.889  14.550  0.3327  0.0602 -0.5462
 2341TIP3    H128514   1.205   1.814  14.594  0.7787  0.0375 -0.9815
 2341TIP3    H228515   1.221   1.963  14.572 -0.3041  0.3258  0.1592
 2342TIP3   OH228516   5.209   4.361  16.806  0.2111 -0.0588 -0.1665
 2342TIP3    H128517   5.201   4.369  16.711 -0.0590  2.1247  0.0184
 2342TIP3    H228518   5.119   4.362  16.838  0.3468  0.3434  0.2007
 2343TIP3   OH228519   3.264   1.084   3.593 -0.0351  0.1343  0.0501
 2343TIP3    H128520   3.325   1.154   3.566  2.0690 -1.8810 -0.5492
 2343TIP3    H228521   3.195   1.086   3.526  0.7038  0.7615 -0.7120
 2344TIP3   OH228522   2.695   1.592   5.241  0.0433 -0.0153 -0.2898
 2344TIP3    H128523   2.687   1.687   5.235 -0.4091 -0.0734 -0.5911
 2344TIP3    H228524   2.608   1.562   5.266 -0.4470 -0.5464 -2.5157
 2345TIP3   OH228525   6.420   1.373   5.433  0.3645 -0.4287  0.2841
 2345TIP3    H128526   6.413   1.345   5.525 -0.9240 -0.1779  0.2662
 2345TIP3    H228527   6.333   1.359   5.397  0.4312  1.0119 -0.4653
 2346TIP3   OH228528   6.328   3.396   1.079  0.6797 -0.8357 -0.4301
 2346TIP3    H128529   6.376   3.445   1.012  1.3899  0.0118  0.6678
 2346TIP3    H228530   6.367   3.308   1.076  0.2799 -0.9826 -1.5375
 2347TIP3   OH228531   4.239   3.936  12.529  0.0180  0.2257 -0.3669
 2347TIP3    H128532   4.196   3.903  12.450  1.5409 -0.8728 -0.7699
 2347TIP3    H228533   4.310   3.873  12.545  1.4530  1.9660  0.2730
 2348TIP3   OH228534   0.758   2.152  10.800 -0.3557  0.3313 -0.0990
 2348TIP3    H128535   0.701   2.078  10.820 -1.2677  1.2319  0.6626
 2348TIP3    H228536   0.785   2.138  10.709 -1.4473 -0.3254 -0.3265
 2349TIP3   OH228537   3.062   3.934  12.148 -0.3849  0.2509 -0.6314
 2349TIP3    H128538   3.071   3.885  12.066  2.4246 -1.1029  0.4013
 2349TIP3    H228539   2.970   3.926  12.172 -0.5149 -2.2918 -1.8772
 2350TIP3   OH228540   4.904   6.654  15.647  0.3494  0.0668  0.5557
 2350TIP3    H128541   4.960   6.624  15.719 -1.0657 -1.0859  1.1957
 2350TIP3    H228542   4.824   6.685  15.690 -0.2466 -0.0138 -0.4862
 2351TIP3   OH228543   3.890   6.806  13.214 -0.6534  0.6659 -0.2211
 2351TIP3    H128544   3.881   6.753  13.136  1.2364 -0.8978  0.5845
 2351TIP3    H228545   3.944   6.880  13.187  1.4427 -0.7478 -0.0388
 2352TIP3   OH228546   1.798   3.263   1.360  0.2492 -0.1502 -0.1494
 2352TIP3    H128547   1.782   3.231   1.449  1.1533  0.4431  0.2304
 2352TIP3    H228548   1.875   3.319   1.368 -1.2106  2.0019 -0.8405
 2353TIP3   OH228549   3.816   6.791  12.472 -0.0198  0.1445  0.2115
 2353TIP3    H128550   3.732   6.750  12.491 -0.5221  0.0672 -2.0172
 2353TIP3    H228551   3.797   6.852  12.401  2.1671 -1.2437 -1.6323
 2354TIP3   OH228552   5.358   5.655  14.218 -0.4162 -0.0986 -0.4410
 2354TIP3    H128553   5.361   5.720  14.147  1.0708  0.0904 -0.2167
 2354TIP3    H228554   5.300   5.694  14.283  1.7515  1.7750  0.4154
 2355TIP3   OH228555   1.985   3.906   6.167 -0.1138  0.2492 -0.1663
 2355TIP3    H128556   2.053   3.967   6.139  0.6821 -1.5488 -2.2972
 2355TIP3    H228557   1.957   3.863   6.087 -1.0916 -1.7453  1.2036
 2356TIP3   OH228558   0.567   0.220  13.979  0.7082  0.1335 -0.5249
 2356TIP3    H128559   0.488   0.170  13.956  0.7672 -1.7293  3.0015
 2356TIP3    H228560   0.637   0.155  13.984  1.4473  1.0095  1.0476
 2357TIP3   OH228561   5.818   5.142  13.144  0.2980 -0.0895 -0.0902
 2357TIP3    H128562   5.861   5.201  13.206  0.6374  0.0327 -0.4365
 2357TIP3    H228563   5.886   5.080  13.119 -0.1929 -0.9387  0.6522
 2358TIP3   OH228564   3.554   3.895   6.532 -0.3012 -0.0412 -0.3600
 2358TIP3    H128565   3.632   3.949   6.536 -0.9425  0.8783 -0.0130
 2358TIP3    H228566   3.571   3.823   6.592  1.3609 -1.3289 -2.3172
 2359TIP3   OH228567   5.759   4.891   0.471  0.6545 -0.0875  0.1325
 2359TIP3    H128568   5.707   4.924   0.545 -0.9454  1.3773 -1.5985
 2359TIP3    H228569   5.813   4.822   0.509 -1.2062 -0.3736  2.3881
 2360TIP3   OH228570   1.050   5.833   4.118  0.4540 -0.4825  0.2021
 2360TIP3    H128571   1.120   5.897   4.126 -1.1898  1.4173 -0.0628
 2360TIP3    H228572   1.029   5.832   4.024  0.2554 -1.1903  0.2469
 2361TIP3   OH228573   5.843   4.000  17.121 -0.1770 -0.2775 -0.0596
 2361TIP3    H128574   5.873   3.959  17.202 -0.6658  2.7558  1.7478
 2361TIP3    H228575   5.917   4.053  17.093 -0.2992 -0.6855 -1.1790
 2362TIP3   OH228576   6.024   4.856   1.682  0.2512  0.4767 -0.1663
 2362TIP3    H128577   5.948   4.906   1.653  1.0343  1.9666  0.3125
 2362TIP3    H228578   6.066   4.827   1.601 -0.2687  0.4799 -0.4404
 2363TIP3   OH228579   1.605   6.463   4.759  0.0373 -0.3862  0.0694
 2363TIP3    H128580   1.527   6.481   4.812 -0.5561  1.2574 -1.3235
 2363TIP3    H228581   1.677   6.504   4.807 -0.3731  0.3672  0.0492
 2364TIP3   OH228582   2.779   5.911   4.529  0.0469  0.4817 -1.0904
 2364TIP3    H128583   2.749   5.974   4.595 -1.1788  0.0250 -1.1960
 2364TIP3    H228584   2.856   5.952   4.490  0.1360  1.2498 -0.1351
 2365TIP3   OH228585   4.585   6.237   1.081  0.3822 -0.1320 -0.3197
 2365TIP3    H128586   4.544   6.151   1.091  1.2426 -0.4028  1.0393
 2365TIP3    H228587   4.514   6.294   1.049 -0.5035 -1.0659 -0.0535
 2366TIP3   OH228588   5.684   5.658   4.070 -0.1733  0.5488 -0.4956
 2366TIP3    H128589   5.606   5.698   4.109 -1.7501 -1.4377 -1.4886
 2366TIP3    H228590   5.660   5.566   4.057  3.5363 -0.9446  2.2870
 2367TIP3   OH228591   0.864   4.397  14.515 -0.8696  0.7743 -0.1303
 2367TIP3    H128592   0.777   4.405  14.554 -1.2414  1.1035 -1.0128
 2367TIP3    H228593   0.882   4.303  14.518 -0.4533  0.8937  1.7563
 2368TIP3   OH228594   6.723   3.824  14.233 -0.3291  0.1756 -0.0991
 2368TIP3    H128595   6.676   3.890  14.285 -1.7296 -1.1810  0.4088
 2368TIP3    H228596   6.775   3.776  14.297 -0.3798 -0.0988 -0.2627
 2369TIP3   OH228597   1.984   4.778  15.374  0.2183 -0.1489  0.4076
 2369TIP3    H128598   1.956   4.754  15.462 -1.1652  2.0749  0.6216
 2369TIP3    H228599   2.049   4.847  15.387 -2.5132  2.7256 -0.2726
 2370TIP3   OH228600   1.672   5.549  13.305  0.1387 -0.7192  0.3859
 2370TIP3    H128601   1.623   5.624  13.337  0.9501  0.4429 -1.0337
 2370TIP3    H228602   1.689   5.496  13.383  0.4879  1.1050  1.5656
 2371TIP3   OH228603   6.591   4.484   0.157  0.3416 -0.4867 -0.6138
 2371TIP3    H128604   6.617   4.413   0.216 -0.7399  1.2049  2.0289
 2371TIP3    H228605   6.498   4.467   0.140  0.4093 -0.4251 -1.0398
 2372TIP3   OH228606   2.041   5.752   5.081  0.3502 -0.3767 -0.0647
 2372TIP3    H128607   2.080   5.732   4.996  1.3829  1.0326  0.0575
 2372TIP3    H228608   2.115   5.777   5.136 -0.5364  0.7686  0.6377
 2373TIP3   OH228609   2.549   5.742   4.455  0.0145  0.3804  0.3660
 2373TIP3    H128610   2.620   5.794   4.493  0.2583  0.5174 -0.2575
 2373TIP3    H228611   2.555   5.657   4.497  0.5843  0.3771  0.2866
 2374TIP3   OH228612   3.537   0.622  13.291  0.1731  0.3053  0.0619
 2374TIP3    H128613   3.526   0.601  13.198  1.0416  0.2272 -0.0262
 2374TIP3    H228614   3.450   0.651  13.319 -0.9070 -2.6932  0.0074
 2375TIP3   OH228615   2.850   2.196  12.729  0.1181 -0.2741 -0.4497
 2375TIP3    H128616   2.891   2.169  12.811  1.2412  0.7294 -0.6555
 2375TIP3    H228617   2.850   2.117  12.675 -1.5997 -1.2099  0.8722
 2376TIP3   OH228618   6.338   0.355  15.807  0.2393  0.4406 -0.2098
 2376TIP3    H128619   6.256   0.315  15.779  0.0126  1.5535 -1.2121
 2376TIP3    H228620   6.320   0.389  15.895 -0.4754  0.9479 -0.5463
 2377TIP3   OH228621   1.521   1.325  15.711 -0.4112  0.2282  0.3837
 2377TIP3    H128622   1.433   1.301  15.739 -0.0296 -0.0666  1.3768
 2377TIP3    H228623   1.524   1.420  15.717 -0.1236  0.1312  2.0566
 2378TIP3   OH228624   0.092   4.722   0.416  0.6150 -0.4503  0.0712
 2378TIP3    H128625   0.073   4.670   0.495  0.0801 -0.6176 -0.1662
 2378TIP3    H228626   0.094   4.658   0.345  1.8318 -0.4056  0.0463
 2379TIP3   OH228627   4.345   4.040  16.050  0.5871  0.0932 -0.1791
 2379TIP3    H128628   4.380   3.971  15.994  1.3116 -0.2679  0.7061
 2379TIP3    H228629   4.250   4.033  16.041  0.6902 -0.0177 -1.2794
 2380TIP3   OH228630   2.942   6.214   5.639 -0.1450  0.7207 -0.4849
 2380TIP3    H128631   2.984   6.144   5.590 -1.0518 -1.0714  1.2426
 2380TIP3    H228632   3.007   6.239   5.705 -0.4041  0.4263 -0.1147
 2381TIP3   OH228633   3.401   1.348   2.577  0.5456  0.0887 -0.5736
 2381TIP3    H128634   3.390   1.357   2.672  0.2409 -0.9007 -0.5084
 2381TIP3    H228635   3.432   1.434   2.548 -0.7565  0.8349  0.2170
 2382TIP3   OH228636   6.623   2.839  12.859 -0.1355 -0.3868  0.0578
 2382TIP3    H128637   6.666   2.823  12.776  0.0891  1.3157 -0.1768
 2382TIP3    H228638   6.570   2.917  12.844 -0.0038  0.0055  1.5250
 2383TIP3   OH228639   5.370   1.885  14.612  0.1950  0.3732  0.3571
 2383TIP3    H128640   5.325   1.849  14.536 -1.7191  0.2188  1.5375
 2383TIP3    H228641   5.392   1.975  14.586  0.9382 -0.1579 -0.9219
 2384TIP3   OH228642   2.908   6.756  14.500  0.2293 -0.1688  0.1382
 2384TIP3    H128643   3.003   6.763  14.510  0.0950  2.9789 -0.3485
 2384TIP3    H228644   2.888   6.808  14.422 -1.7489 -2.0590 -0.6637
 2385TIP3   OH228645   3.925   2.401  12.929 -0.0352 -0.1080 -0.0606
 2385TIP3    H128646   3.837   2.419  12.964  0.8027 -0.4659  2.3420
 2385TIP3    H228647   3.939   2.308  12.946  1.0537  0.0859  0.1426
 2386TIP3   OH228648   6.764   0.727  14.154 -0.3539 -0.7412  0.1786
 2386TIP3    H128649   6.795   0.670  14.225  2.5432 -0.8963 -1.1841
 2386TIP3    H228650   6.808   0.810  14.169 -2.0989  0.2021  0.2721
 2387TIP3   OH228651   1.027   6.698  11.932 -0.2364  0.3987 -0.3731
 2387TIP3    H128652   0.959   6.714  11.866  0.0236  2.2775 -0.2153
 2387TIP3    H228653   1.093   6.647  11.885 -1.0694 -0.1679 -0.9497
 2388TIP3   OH228654   4.851   4.035  13.844  0.3769  0.0643 -0.0852
 2388TIP3    H128655   4.768   4.027  13.797  0.0655  1.9366  0.1338
 2388TIP3    H228656   4.827   4.031  13.936  0.8364 -2.1241 -0.0381
 2389TIP3   OH228657   1.953   2.236  11.404 -0.6843 -0.2285  0.7491
 2389TIP3    H128658   1.985   2.304  11.345 -0.4031 -1.4572 -0.5642
 2389TIP3    H228659   1.896   2.182  11.349  0.7017 -2.2329  1.2050
 2390TIP3   OH228660   6.757   2.431   6.655 -0.4610 -0.1069 -0.0616
 2390TIP3    H128661   6.702   2.508   6.669  0.4008  0.5095 -0.0360
 2390TIP3    H228662   6.721   2.365   6.715 -2.1347 -0.2319 -1.1417
 2391TIP3   OH228663   2.813   1.431  15.291  0.0114 -0.4774 -0.1099
 2391TIP3    H128664   2.796   1.475  15.374 -1.2585  0.7605 -0.9958
 2391TIP3    H228665   2.748   1.468  15.231  0.5859 -1.7197 -1.5216
 2392TIP3   OH228666   2.730   1.332   0.573  0.0177  0.3035 -0.5216
 2392TIP3    H128667   2.771   1.245   0.572  2.0135  1.1491  1.5993
 2392TIP3    H228668   2.744   1.363   0.663 -0.8943  2.7048 -1.1797
 2393TIP3   OH228669   6.630   0.499  16.116 -0.1700  0.1842 -1.1544
 2393TIP3    H128670   6.637   0.473  16.207 -1.0750 -0.0741 -1.1497
 2393TIP3    H228671   6.681   0.434  16.068 -0.8779 -0.5141 -0.9664
 2394TIP3   OH228672   4.298   3.811  11.782  0.2216 -0.6649 -0.2519
 2394TIP3    H128673   4.312   3.905  11.784 -3.7930  0.0717 -1.9551
 2394TIP3    H228674   4.284   3.786  11.873  2.1825  0.1844  0.3055
 2395TIP3   OH228675   0.075   0.391   5.522 -0.2193  0.0223 -0.0033
 2395TIP3    H128676   0.056   0.319   5.462 -1.9273  0.9093 -0.5887
 2395TIP3    H228677   0.137   0.446   5.474  3.1026 -2.3109  1.4541
 2396TIP3   OH228678   1.308   4.293   0.257 -0.0605  0.3158  0.4927
 2396TIP3    H128679   1.373   4.333   0.315 -1.8963  1.1558  2.0339
 2396TIP3    H228680   1.232   4.350   0.264 -1.3628 -1.2777 -0.3863
 2397TIP3   OH228681   6.354   3.786  11.575  0.3852 -0.0366  0.8192
 2397TIP3    H128682   6.423   3.834  11.530  2.9168 -1.4576  3.0943
 2397TIP3    H228683   6.318   3.849  11.637  0.9445  0.1410  0.9652
 2398TIP3   OH228684   2.080   4.081  10.906 -0.3213  0.0748  0.3207
 2398TIP3    H128685   1.987   4.063  10.893 -0.0036 -0.3803 -1.4593
 2398TIP3    H228686   2.099   4.153  10.845  0.9389 -1.2038 -0.8283
 2399TIP3   OH228687   2.299   3.327  16.962  0.2367  0.1241  0.2691
 2399TIP3    H128688   2.252   3.307  16.881  1.1782  2.3763 -0.8763
 2399TIP3    H228689   2.310   3.422  16.960  2.8776 -0.1147  1.5744
 2400TIP3   OH228690   5.875   3.054  16.180  0.0204 -0.5088 -0.0104
 2400TIP3    H128691   5.853   3.143  16.154  0.9377 -0.4555 -0.6594
 2400TIP3    H228692   5.796   3.003  16.162 -0.5305  0.1825  0.4391
 2401TIP3   OH228693   6.725   6.607   5.038  0.1271  0.1245  0.0099
 2401TIP3    H128694   6.746   6.658   4.960 -2.4364  0.0271 -0.7635
 2401TIP3    H228695   6.802   6.552   5.052  0.9539  0.7541 -1.9356
 2402TIP3   OH228696   2.253   1.766  16.558  0.4442  0.2842 -0.7316
 2402TIP3    H128697   2.180   1.704  16.554  0.4182  0.1651  1.2504
 2402TIP3    H228698   2.320   1.727  16.502  0.6401 -1.8746  0.9252
 2403TIP3   OH228699   5.752   3.277   5.459 -0.0885 -0.0979  0.5003
 2403TIP3    H128700   5.758   3.198   5.512 -0.7404  0.6477  1.7185
 2403TIP3    H228701   5.701   3.338   5.513  2.1053  1.8475  0.4754
 2404TIP3   OH228702   1.141   5.830  14.175  0.1846 -0.0460  0.0403
 2404TIP3    H128703   1.128   5.848  14.268  1.5702 -0.3043  0.2988
 2404TIP3    H228704   1.151   5.916  14.135 -1.3575  0.1132 -0.0305
 2405TIP3   OH228705   0.867   5.811   6.046 -0.4761  0.6874 -0.4120
 2405TIP3    H128706   0.877   5.815   6.141 -0.4264 -1.0442 -0.3255
 2405TIP3    H228707   0.925   5.879   6.012 -0.7795  1.5526  0.8205
 2406TIP3   OH228708   1.214   1.256   3.891 -0.2784  0.0907 -0.2964
 2406TIP3    H128709   1.177   1.342   3.910  2.0276  0.8544  0.9315
 2406TIP3    H228710   1.309   1.267   3.902  0.1828 -2.2631 -1.4593
 2407TIP3   OH228711   4.005   5.165  15.305 -0.1721 -0.5176 -0.5064
 2407TIP3    H128712   3.930   5.132  15.254 -0.0752 -1.2216 -0.1895
 2407TIP3    H228713   3.993   5.260  15.305 -1.8163 -0.7044  0.6982
 2408TIP3   OH228714   1.291   3.539  11.798  0.3080  0.0676 -0.4744
 2408TIP3    H128715   1.308   3.523  11.891 -1.8629  5.3285  0.9877
 2408TIP3    H228716   1.365   3.592  11.769 -0.3976  0.8047 -0.9576
 2409TIP3   OH228717   1.646   0.143   3.802  0.3990 -0.0546  0.7052
 2409TIP3    H128718   1.556   0.116   3.781  0.4660 -0.0536  0.4094
 2409TIP3    H228719   1.660   0.112   3.891  0.2381 -0.3908  0.6159
 2410TIP3   OH228720   4.406   2.883   1.029  0.2505 -0.5437 -0.6532
 2410TIP3    H128721   4.413   2.865   1.123 -3.3417 -0.7100 -0.3356
 2410TIP3    H228722   4.494   2.909   1.003  0.6508  2.7861  3.4527
 2411TIP3   OH228723   3.003   1.319  15.948  0.0323 -0.2869  0.1477
 2411TIP3    H128724   3.095   1.324  15.974 -0.0375 -1.4661  0.6586
 2411TIP3    H228725   2.983   1.407  15.916  1.7748 -0.4434 -1.4593
 2412TIP3   OH228726   2.348   4.803  11.608  0.5266  0.3989  0.2648
 2412TIP3    H128727   2.285   4.812  11.535 -0.1833  1.3049  0.9747
 2412TIP3    H228728   2.417   4.866  11.587  0.8172 -0.0580 -0.1387
 2413TIP3   OH228729   2.390   0.878   1.038 -0.0710 -0.1019 -0.3094
 2413TIP3    H128730   2.297   0.856   1.046  0.2758 -0.5326  3.1408
 2413TIP3    H228731   2.432   0.830   1.109  2.6172  1.2098 -0.9592
 2414TIP3   OH228732   0.948   3.644   4.375  0.2564  0.1266 -0.4135
 2414TIP3    H128733   0.907   3.690   4.448  0.8910 -0.5320  0.3542
 2414TIP3    H228734   1.042   3.658   4.386  0.3538  0.1530 -1.1952
 2415TIP3   OH228735   3.495   5.728  15.707 -0.3574  0.1631 -0.0639
 2415TIP3    H128736   3.510   5.761  15.618  0.3452 -0.5529 -0.2148
 2415TIP3    H228737   3.564   5.769  15.759 -1.5417  1.5988  0.4167
 2416TIP3   OH228738   2.167   1.580   0.367 -0.2223  0.2808  0.0834
 2416TIP3    H128739   2.162   1.525   0.445 -1.1592 -1.9534 -1.4894
 2416TIP3    H228740   2.098   1.645   0.379 -2.9815 -2.4054 -0.5488
 2417TIP3   OH228741   6.025   1.631   6.514 -0.1597  0.2863  0.1325
 2417TIP3    H128742   6.029   1.539   6.540  2.8113  0.0294 -1.0645
 2417TIP3    H228743   6.033   1.679   6.596  3.7233 -0.5313  0.3095
 2418TIP3   OH228744   0.828   4.361  13.998  0.1908  0.3312  0.0041
 2418TIP3    H128745   0.752   4.308  13.977 -0.3645  0.6665  1.1325
 2418TIP3    H228746   0.899   4.323  13.946 -0.2345 -1.3890  0.6673
 2419TIP3   OH228747   6.332   3.110   4.901  0.0476  0.0389 -0.1746
 2419TIP3    H128748   6.238   3.093   4.907  0.1339 -0.6592 -0.7356
 2419TIP3    H228749   6.348   3.122   4.807  0.6671 -0.7421 -0.1773
 2420TIP3   OH228750   6.779   2.536  15.520  0.5685 -0.2558 -0.1788
 2420TIP3    H128751   6.829   2.482  15.458 -1.2252 -1.9364 -0.2216
 2420TIP3    H228752   6.692   2.496  15.521 -0.2058  1.4210  1.3819
 2421TIP3   OH228753   0.306   0.427   1.053 -0.0763  0.3629  0.5066
 2421TIP3    H128754   0.347   0.474   1.126  0.2447  0.1916  0.4380
 2421TIP3    H228755   0.376   0.373   1.017 -0.7270 -1.0287  1.2932
 2422TIP3   OH228756   0.230   3.838  12.859  0.2783  0.0982 -0.2076
 2422TIP3    H128757   0.141   3.806  12.847  0.5369 -0.2540 -1.1882
 2422TIP3    H228758   0.229   3.879  12.946 -1.1263  1.0864 -0.6690
 2423TIP3   OH228759   6.461   4.831  11.284  0.2969 -0.0307 -0.0220
 2423TIP3    H128760   6.531   4.825  11.348  0.2571 -0.6049 -0.0256
 2423TIP3    H228761   6.381   4.817  11.335  0.2158  0.1872 -0.0883
 2424TIP3   OH228762   5.019   1.297  16.309 -0.1639 -0.3240  0.1148
 2424TIP3    H128763   5.005   1.388  16.283  1.3228 -0.3315 -0.7909
 2424TIP3    H228764   5.000   1.246  16.230  0.5211 -0.6706  0.1674
 2425TIP3   OH228765   6.092   6.448   2.497 -0.1126 -0.3634  0.0149
 2425TIP3    H128766   6.008   6.402   2.500 -0.3711  0.1521  0.9449
 2425TIP3    H228767   6.104   6.482   2.586  0.3829  0.7996 -0.4845
 2426TIP3   OH228768   1.552   0.981   3.294  0.5735 -0.2578 -0.0902
 2426TIP3    H128769   1.517   1.026   3.217 -0.2634 -0.9951 -0.1523
 2426TIP3    H228770   1.549   1.046   3.364  1.7904  0.5675 -0.7902
 2427TIP3   OH228771   0.308   5.445   0.540  0.6344  0.2040  0.3199
 2427TIP3    H128772   0.252   5.400   0.604 -2.2229  1.6081 -1.0878
 2427TIP3    H228773   0.318   5.382   0.468  0.9391 -0.0604  0.5880
 2428TIP3   OH228774   5.489   6.607  12.384 -0.1943  0.5282 -0.4969
 2428TIP3    H128775   5.531   6.561  12.456 -0.1258  0.2771 -0.6943
 2428TIP3    H228776   5.559   6.659  12.345 -0.0275 -0.0095 -0.9233
 2429TIP3   OH228777   0.514   5.687   5.037 -0.0663 -0.3452 -0.1293
 2429TIP3    H128778   0.570   5.710   4.963 -1.7557  0.9104 -1.0510
 2429TIP3    H228779   0.512   5.591   5.036  1.0605 -0.3793 -0.8189
 2430TIP3   OH228780   4.338   4.006  14.017 -0.0167  0.2274  0.0949
 2430TIP3    H128781   4.366   4.041  13.933  1.0174  0.2578  0.4481
 2430TIP3    H228782   4.402   4.040  14.080  0.6398 -1.7924  0.5440
 2431TIP3   OH228783   4.030   5.598  15.574 -0.2584 -0.0944 -0.1116
 2431TIP3    H128784   4.094   5.544  15.621 -0.1897 -0.0157 -0.1158
 2431TIP3    H228785   3.982   5.643  15.644 -1.2575 -1.2293 -0.0608
 2432TIP3   OH228786   4.861   1.404   2.502  0.4960  0.0478  0.1702
 2432TIP3    H128787   4.813   1.487   2.500  2.5020  1.2418  0.5974
 2432TIP3    H228788   4.859   1.374   2.411 -1.0950  0.0323  0.1892
 2433TIP3   OH228789   6.107   0.644   0.531  0.2027  0.4387  0.0070
 2433TIP3    H128790   6.082   0.729   0.494  0.0005 -0.1896 -1.3396
 2433TIP3    H228791   6.054   0.635   0.609 -0.5300  1.1104 -0.4102
 2434TIP3   OH228792   0.457   6.194   4.416  0.0711  0.2599  0.1145
 2434TIP3    H128793   0.492   6.238   4.338 -0.5024 -1.1965 -0.9856
 2434TIP3    H228794   0.427   6.265   4.472  0.9294  1.3530 -0.7951
 2435TIP3   OH228795   6.752   0.698  10.796  0.3348 -0.5345 -0.0117
 2435TIP3    H128796   6.788   0.648  10.870 -1.0377 -0.0242  1.0194
 2435TIP3    H228797   6.666   0.657  10.780  0.1271  0.1194 -0.5632
 2436TIP3   OH228798   2.639   3.622   2.797 -0.2879 -0.9553  0.3842
 2436TIP3    H128799   2.663   3.536   2.832  2.7897  0.0275  0.8793
 2436TIP3    H228800   2.622   3.607   2.704 -1.3217 -2.3624  0.8027
 2437TIP3   OH228801   1.392   4.717  16.431 -0.2603 -0.4905  0.1260
 2437TIP3    H128802   1.488   4.718  16.438 -0.0728 -1.3343 -1.9605
 2437TIP3    H228803   1.375   4.673  16.348 -2.5100 -1.4360  1.0713
 2438TIP3   OH228804   5.630   6.048  14.042 -0.0442 -0.4648 -0.0702
 2438TIP3    H128805   5.713   6.013  14.010 -0.3838 -0.6708 -0.7475
 2438TIP3    H228806   5.629   6.139  14.012  0.3452 -0.1939  0.7330
 2439TIP3   OH228807   1.456   4.465   0.645 -0.5120  0.9697 -0.2707
 2439TIP3    H128808   1.547   4.437   0.657 -1.2149 -1.1162  0.4265
 2439TIP3    H228809   1.462   4.555   0.612  1.8002  0.6283 -0.8110
 2440TIP3   OH228810   1.204   3.302  13.903 -0.0646  0.3581 -0.2501
 2440TIP3    H128811   1.218   3.325  13.811 -1.0581 -0.9274 -0.7326
 2440TIP3    H228812   1.111   3.279  13.907  0.1343 -0.2256  0.9451
 2441TIP3   OH228813   4.445   3.224  10.542 -0.2620  0.2880 -0.1085
 2441TIP3    H128814   4.452   3.319  10.550  1.8064  0.1148  0.3485
 2441TIP3    H228815   4.433   3.209  10.448 -0.0269  0.9551 -0.2463
 2442TIP3   OH228816   5.746   3.486  16.477  0.1156  0.2961  0.2466
 2442TIP3    H128817   5.735   3.471  16.570 -0.2553 -0.1854  0.1319
 2442TIP3    H228818   5.692   3.418  16.435  1.1411 -0.1767 -0.3282
 2443TIP3   OH228819   0.533   4.134  11.356  0.2104  0.0431 -0.5189
 2443TIP3    H128820   0.535   4.042  11.381  1.8606  0.2485  0.1673
 2443TIP3    H228821   0.584   4.179  11.424  1.1363  1.1775 -1.9299
 2444TIP3   OH228822   1.067   6.389   4.373 -0.0541 -0.1265  0.5562
 2444TIP3    H128823   1.153   6.407   4.335 -0.9624  2.1347 -0.5340
 2444TIP3    H228824   1.075   6.413   4.465  0.6263 -0.4125  0.5704
 2445TIP3   OH228825   0.837   1.549   6.255 -0.3216  0.2402 -0.3483
 2445TIP3    H128826   0.912   1.503   6.293  0.6894  1.3837 -0.9190
 2445TIP3    H228827   0.774   1.554   6.326  0.3009 -0.3854  0.2617
 2446TIP3   OH228828   2.682   0.317   2.974  0.5713 -0.1867 -0.2348
 2446TIP3    H128829   2.640   0.286   3.054  0.9976 -0.8353 -0.2577
 2446TIP3    H228830   2.610   0.349   2.919  0.2765  0.2022  0.3807
 2447TIP3   OH228831   3.859   3.028   5.569  0.0048 -0.0777  0.2133
 2447TIP3    H128832   3.830   3.054   5.656  0.2288 -1.0152  0.5786
 2447TIP3    H228833   3.792   2.968   5.538 -0.4745  0.8575 -0.5935
 2448TIP3   OH228834   5.024   5.582  15.626  0.4280  0.2818 -0.5013
 2448TIP3    H128835   5.063   5.533  15.554  0.5039 -0.0767 -0.2189
 2448TIP3    H228836   4.969   5.518  15.671  0.5919  0.4332 -0.0810
 2449TIP3   OH228837   4.864   1.057  15.621 -0.7717 -0.5562 -0.0706
 2449TIP3    H128838   4.917   0.985  15.657 -0.6757 -0.7283 -0.5467
 2449TIP3    H228839   4.917   1.135  15.635  0.3322 -0.9179 -1.9434
 2450TIP3   OH228840   3.336   3.261  11.479 -0.1803 -0.1367 -0.3518
 2450TIP3    H128841   3.289   3.284  11.559 -0.5505  2.1886 -1.1738
 2450TIP3    H228842   3.269   3.226  11.421 -0.2131 -0.2698 -0.2336
 2451TIP3   OH228843   0.312   0.913   4.716  0.6541  0.5955  0.2356
 2451TIP3    H128844   0.397   0.913   4.673 -0.4839  3.2983 -2.2750
 2451TIP3    H228845   0.256   0.965   4.657 -2.5366 -0.5368  2.1327
 2452TIP3   OH228846   2.124   5.828   2.568 -1.0726  0.3868  0.2691
 2452TIP3    H128847   2.094   5.842   2.478 -0.9094 -1.2009 -0.0497
 2452TIP3    H228848   2.046   5.800   2.615 -1.1045  0.9721  0.5627
 2453TIP3   OH228849   2.544   0.791  16.012  0.0479  0.7202 -0.1401
 2453TIP3    H128850   2.450   0.776  16.015 -0.1009  1.7470  0.7503
 2453TIP3    H228851   2.553   0.880  15.978  0.7725 -0.0596 -2.0279
 2454TIP3   OH228852   1.002   6.468  12.962 -0.4781  0.4002  0.0575
 2454TIP3    H128853   1.051   6.546  12.987 -2.0992  1.5142 -0.1111
 2454TIP3    H228854   0.936   6.500  12.901 -1.8878 -0.9174  0.8399
 2455TIP3   OH228855   3.110   4.377   0.046  0.6401 -0.1110 -0.2773
 2455TIP3    H128856   3.190   4.382   0.097 -0.2320  0.0855  1.0901
 2455TIP3    H228857   3.105   4.461   0.001  0.8979  0.0947  0.0774
 2456TIP3   OH228858   2.062   4.201   1.928  0.1032 -0.0465  0.4417
 2456TIP3    H128859   1.993   4.265   1.914 -2.2264 -2.7642 -1.0624
 2456TIP3    H228860   2.020   4.131   1.979  1.9708 -1.3571  0.2541
 2457TIP3   OH228861   3.868   1.884  14.781 -0.5430  0.5089 -0.2785
 2457TIP3    H128862   3.832   1.967  14.811 -1.6531 -0.0544 -0.0217
 2457TIP3    H228863   3.936   1.862  14.845 -1.7077  0.1765  0.8674
 2458TIP3   OH228864   5.593   5.290  11.295  0.1190  0.1582  0.1126
 2458TIP3    H128865   5.556   5.209  11.330 -1.9894  1.5984  1.3158
 2458TIP3    H228866   5.550   5.301  11.210  1.1717 -0.4742 -0.5252
 2459TIP3   OH228867   0.941   4.154   1.255 -0.4199 -0.2426 -0.4253
 2459TIP3    H128868   0.933   4.232   1.309  1.5342  0.3825 -1.0183
 2459TIP3    H228869   1.031   4.124   1.270 -0.7803 -1.6985 -1.1177
 2460TIP3   OH228870   4.516   2.113  13.862 -0.4774  0.2043  0.6179
 2460TIP3    H128871   4.572   2.072  13.795 -1.1694 -0.6986  0.5794
 2460TIP3    H228872   4.570   2.112  13.941 -0.3241 -0.3960  0.5125
 2461TIP3   OH228873   5.214   0.524   3.007 -0.1140  0.2398  0.8673
 2461TIP3    H128874   5.133   0.518   2.956  1.5599  0.5069 -1.9526
 2461TIP3    H228875   5.227   0.618   3.021  1.1622  0.4093 -1.2186
 2462TIP3   OH228876   1.077   5.472  16.943  0.4403 -0.0337  0.3229
 2462TIP3    H128877   1.160   5.455  16.988  1.5339  0.3476 -1.5026
 2462TIP3    H228878   1.083   5.563  16.915 -1.1610  0.3956  1.2896
 2463TIP3   OH228879   4.512   1.179   0.760  0.4490 -0.3922  0.6512
 2463TIP3    H128880   4.466   1.097   0.742 -1.6241  0.6633  0.9752
 2463TIP3    H228881   4.508   1.189   0.855  2.2396 -0.7584  0.7941
 2464TIP3   OH228882   1.031   0.711   3.088  0.8924 -0.2875 -0.6589
 2464TIP3    H128883   1.094   0.768   3.133  1.6017 -1.9541  0.5076
 2464TIP3    H228884   1.086   0.643   3.047  0.0243 -0.3865 -1.6753
 2465TIP3   OH228885   2.390   4.204  11.796 -0.0986  0.4015  0.1636
 2465TIP3    H128886   2.404   4.297  11.784 -1.4454  0.6738  0.6145
 2465TIP3    H228887   2.472   4.163  11.768  0.2864  1.6719 -0.5875
 2466TIP3   OH228888   3.443   4.324   3.130  0.3299  0.6391 -0.1386
 2466TIP3    H128889   3.519   4.293   3.080 -0.0009 -0.2518 -0.0973
 2466TIP3    H228890   3.389   4.369   3.065 -0.4970 -1.2210 -0.7824
 2467TIP3   OH228891   1.316   3.868   1.544 -0.0154 -0.4067  0.1604
 2467TIP3    H128892   1.292   3.800   1.481 -1.7628 -0.7939  1.2018
 2467TIP3    H228893   1.297   3.950   1.500 -2.4517 -0.6940  0.6045
 2468TIP3   OH228894   6.564   4.283   1.090  0.0578  0.4117 -0.0572
 2468TIP3    H128895   6.627   4.306   1.158  1.9238 -0.1503 -1.5726
 2468TIP3    H228896   6.564   4.357   1.030 -0.7210  0.3975 -0.0849
 2469TIP3   OH228897   0.774   2.137  15.982  0.4566 -0.4245 -0.0418
 2469TIP3    H128898   0.857   2.184  15.975  0.5706 -0.7004 -0.6299
 2469TIP3    H228899   0.754   2.136  16.076 -0.1574  1.8266 -0.1221
 2470TIP3   OH228900   3.211   5.565  14.810  0.2015  0.2566  0.1618
 2470TIP3    H128901   3.163   5.580  14.891  2.7147  1.8761  1.4315
 2470TIP3    H228902   3.274   5.496  14.831  0.4056  0.2033 -0.5984
 2471TIP3   OH228903   2.300   0.397   0.034  0.1098 -0.1439 -0.1609
 2471TIP3    H128904   2.372   0.438  -0.015  0.2764  0.9318  0.9588
 2471TIP3    H228905   2.287   0.312  -0.009  1.9088 -0.2653 -0.5097
 2472TIP3   OH228906   1.210   3.374   2.246 -0.1186 -0.4319  1.0086
 2472TIP3    H128907   1.288   3.426   2.231  0.9626 -1.6633  2.2609
 2472TIP3    H228908   1.169   3.414   2.323 -0.4554 -0.1061  0.6630
 2473TIP3   OH228909   6.619   3.844   5.219  0.0279  0.7094 -0.3028
 2473TIP3    H128910   6.609   3.749   5.219  0.1404  0.6879 -1.8171
 2473TIP3    H228911   6.532   3.877   5.240 -0.2658  0.2899 -0.8485
 2474TIP3   OH228912   5.229   1.336  12.314  0.4801 -0.6096 -0.2904
 2474TIP3    H128913   5.156   1.302  12.262 -2.4663  2.1613  1.8342
 2474TIP3    H228914   5.267   1.405  12.260 -0.8412  0.4150  0.0683
 2475TIP3   OH228915   4.163   5.518  14.610 -0.0722 -0.3860  0.0966
 2475TIP3    H128916   4.242   5.464  14.608 -0.6389 -1.2872  1.4925
 2475TIP3    H228917   4.092   5.458  14.587 -0.4123  0.3189 -0.7176
 2476TIP3   OH228918   6.388   5.432  15.464 -0.6070 -0.2236  0.0769
 2476TIP3    H128919   6.481   5.413  15.456 -0.7232 -0.9440  0.3847
 2476TIP3    H228920   6.359   5.447  15.374 -0.6063 -1.9845 -0.2329
 2477TIP3   OH228921   1.750   1.274   4.035  0.1341  0.0596 -0.1980
 2477TIP3    H128922   1.735   1.302   4.125 -2.4260  1.7733 -1.1035
 2477TIP3    H228923   1.830   1.320   4.008  1.0843 -0.6899  1.2467
 2478TIP3   OH228924   1.811   5.174  17.150 -0.0105  0.4444  0.4099
 2478TIP3    H128925   1.727   5.220  17.145  0.2845  0.8668 -1.0270
 2478TIP3    H228926   1.876   5.244  17.142  0.4470 -0.0656 -0.3521
 2479TIP3   OH228927   1.253   5.936   6.049  1.0548 -0.2926 -0.1820
 2479TIP3    H128928   1.245   6.031   6.039 -0.2901 -0.3709  0.0508
 2479TIP3    H228929   1.251   5.922   6.143 -3.6535 -0.8987 -0.2518
 2480TIP3   OH228930   1.151   4.690  16.566 -0.4641 -0.3449 -0.3154
 2480TIP3    H128931   1.112   4.602  16.565 -0.6077 -0.3254 -4.2173
 2480TIP3    H228932   1.242   4.676  16.540  0.1833  0.4567  1.4196
 2481TIP3   OH228933   6.697   2.689  15.844  0.0302 -0.6685 -0.6252
 2481TIP3    H128934   6.766   2.754  15.857 -1.0132  0.3878 -0.2372
 2481TIP3    H228935   6.743   2.606  15.836  1.3842  0.1061 -1.0260
 2482TIP3   OH228936   0.093   5.812  12.597  0.8565  0.0515  0.4391
 2482TIP3    H128937   0.006   5.790  12.564  0.1877 -1.7004  3.1896
 2482TIP3    H228938   0.148   5.738  12.572  0.5980 -0.7544  2.1406
 2483TIP3   OH228939   4.519   2.839   5.884  0.5378 -0.2676  0.0077
 2483TIP3    H128940   4.515   2.893   5.805  0.5710 -0.1995  0.0526
 2483TIP3    H228941   4.428   2.816   5.902  0.4047  0.6770  0.6040
 2484TIP3   OH228942   0.713   3.174   0.127 -0.0546  0.3401 -0.0232
 2484TIP3    H128943   0.641   3.151   0.068 -0.5700  1.9428 -0.0342
 2484TIP3    H228944   0.719   3.100   0.187 -1.0426 -0.2686 -0.6609
 2485TIP3   OH228945   1.377   0.619  14.566 -0.0182  0.4742 -0.2086
 2485TIP3    H128946   1.416   0.556  14.625  0.2002  0.2406 -0.6007
 2485TIP3    H228947   1.428   0.612  14.485 -2.0226 -1.1826 -1.3980
 2486TIP3   OH228948   5.835   1.462   0.730  0.0782  0.2271 -0.4879
 2486TIP3    H128949   5.754   1.465   0.781  1.2001  2.3590  1.2668
 2486TIP3    H228950   5.846   1.370   0.706 -1.1133 -0.6121  2.1032
 2487TIP3   OH228951   5.824   4.239  10.716 -0.0445 -0.4285 -0.4057
 2487TIP3    H128952   5.758   4.209  10.779  1.3084 -0.9618  0.7942
 2487TIP3    H228953   5.868   4.312  10.762  1.8539 -1.6925 -0.1585
 2488TIP3   OH228954   5.742   5.546  15.219 -0.3263  0.0527  0.9937
 2488TIP3    H128955   5.809   5.522  15.156 -0.9519  1.9302 -0.4429
 2488TIP3    H228956   5.772   5.630  15.255 -1.9761  1.0501  0.1465
 2489TIP3   OH228957   4.766   2.021  11.721  0.6189 -0.5992 -0.1481
 2489TIP3    H128958   4.712   1.947  11.693 -0.9169  1.4937 -3.1027
 2489TIP3    H228959   4.708   2.073  11.777 -0.0103  0.8493 -2.0711
 2490TIP3   OH228960   1.947   1.084  12.330  0.3633 -0.3261  0.1808
 2490TIP3    H128961   1.988   1.011  12.282  0.6152  0.8529 -1.4181
 2490TIP3    H228962   1.933   1.151  12.264 -0.0984  0.9991  1.6116
 2491TIP3   OH228963   4.031   1.289   1.593  0.2425 -0.4377 -0.4131
 2491TIP3    H128964   4.026   1.200   1.629  1.3353 -1.1202 -1.8935
 2491TIP3    H228965   4.045   1.276   1.499  0.6293  1.2931 -0.6057
 2492TIP3   OH228966   0.789   4.650  15.186  0.2488  0.0273  0.0333
 2492TIP3    H128967   0.704   4.681  15.156  0.1131 -1.5604 -1.3278
 2492TIP3    H228968   0.793   4.675  15.279 -1.9622 -0.4218  0.2736
 2493TIP3   OH228969   5.585   5.436  12.244 -0.4765  0.8332  0.4025
 2493TIP3    H128970   5.527   5.379  12.195  0.1257  1.1162 -0.6612
 2493TIP3    H228971   5.549   5.524  12.231 -0.1006  0.9529  0.1449
 2494TIP3   OH228972   2.948   6.182   2.830 -0.1728 -0.3631 -0.6265
 2494TIP3    H128973   2.941   6.277   2.821  0.5765 -0.0203  1.7957
 2494TIP3    H228974   2.862   6.148   2.804 -1.6663  1.3087  1.9024
 2495TIP3   OH228975   4.990   4.659  15.137  0.1349 -0.1269 -0.0367
 2495TIP3    H128976   5.005   4.745  15.177  1.7180  0.2248 -1.3687
 2495TIP3    H228977   4.903   4.633  15.169  0.0820  1.4977  1.1988
 2496TIP3   OH228978   4.376   6.707  15.875  0.0683 -0.5126  0.1788
 2496TIP3    H128979   4.343   6.796  15.860 -1.6080 -0.9379  1.2135
 2496TIP3    H228980   4.462   6.706  15.832 -1.5671  0.3677 -3.2693
 2497TIP3   OH228981   0.426   1.988  14.842  0.4076 -0.0923 -0.1179
 2497TIP3    H128982   0.412   1.902  14.881  0.9088 -0.5660 -0.9839
 2497TIP3    H228983   0.405   2.050  14.913  0.8104 -0.9346  0.7462
 2498TIP3   OH228984   5.941   5.327   6.112 -0.0336  0.3158  0.3016
 2498TIP3    H128985   6.016   5.298   6.164  0.9565 -1.3062 -1.9253
 2498TIP3    H228986   5.956   5.421   6.099  1.3038  0.1259  0.3864
 2499TIP3   OH228987   1.312   0.911  14.587 -0.4256 -0.0033  0.3332
 2499TIP3    H128988   1.368   0.836  14.567  0.4574  0.5586  0.6695
 2499TIP3    H228989   1.312   0.916  14.682 -3.9764 -2.1860  0.5655
 2500TIP3   OH228990   0.245   5.296  12.541 -0.6131 -0.4425  0.0928
 2500TIP3    H128991   0.307   5.224  12.545  0.1929  0.1788 -1.1124
 2500TIP3    H228992   0.285   5.365  12.595 -0.4805 -0.2221 -0.2830
 2501TIP3   OH228993   4.619   0.553  11.080  0.1827 -0.3511 -0.5809
 2501TIP3    H128994   4.562   0.538  11.155 -0.9408 -1.2380 -1.6089
 2501TIP3    H228995   4.573   0.618  11.027  0.8697  0.1079 -0.6305
 2502TIP3   OH228996   1.607   6.112  12.360 -0.1520  0.1571  0.0446
 2502TIP3    H128997   1.610   6.083  12.269 -0.5933  0.8048 -0.1770
 2502TIP3    H228998   1.574   6.036  12.408  0.6716 -0.3971 -0.2371
 2503TIP3   OH228999   3.509   1.858   5.125  0.1614 -0.4907 -0.0763
 2503TIP3    H129000   3.535   1.899   5.208 -0.1320 -1.3225  0.4314
 2503TIP3    H229001   3.462   1.927   5.079  2.5533  0.7813 -0.6687
 2504TIP3   OH229002   6.557   3.215  16.288 -0.9655  0.5493 -0.0983
 2504TIP3    H129003   6.622   3.275  16.324  0.2404  0.3019 -1.8001
 2504TIP3    H229004   6.501   3.271  16.234 -0.6533  0.3694 -0.6108
 2505TIP3   OH229005   3.692   4.674  11.882 -0.0017 -1.0195 -0.4686
 2505TIP3    H129006   3.747   4.733  11.934 -1.2123 -0.7686  0.5563
 2505TIP3    H229007   3.730   4.677  11.795  1.0292 -0.0912 -0.0028
 2506TIP3   OH229008   2.434   3.733  15.319  0.2426  0.0489  0.0005
 2506TIP3    H129009   2.493   3.747  15.394 -0.2441 -2.1535  0.8499
 2506TIP3    H229010   2.347   3.752  15.354  0.2043  1.0095 -0.5991
 2507TIP3   OH229011   4.709   4.727  14.133  0.0591 -0.5540 -0.1305
 2507TIP3    H129012   4.781   4.684  14.179 -0.2660  0.3278  1.2368
 2507TIP3    H229013   4.688   4.803  14.187 -0.2376  0.5984 -1.8339
 2508TIP3   OH229014   4.363   1.570   0.445  0.3748  0.1590  0.3958
 2508TIP3    H129015   4.424   1.557   0.373 -0.8647 -1.0224 -0.4761
 2508TIP3    H229016   4.414   1.550   0.523  1.6864  1.2723 -0.1593
 2509TIP3   OH229017   3.914   0.409  11.346  0.9348 -0.0203  0.6084
 2509TIP3    H129018   3.830   0.371  11.371  0.7321  0.6980  1.0350
 2509TIP3    H229019   3.949   0.444  11.428  1.7298 -0.4709  0.4654
 2510TIP3   OH229020   3.720   4.366  15.044 -0.5019 -0.1839 -0.5632
 2510TIP3    H129021   3.639   4.394  15.087 -0.1993 -2.2598  1.4184
 2510TIP3    H229022   3.707   4.273  15.025  1.1894 -0.4063 -0.7310
 2511TIP3   OH229023   5.542   6.079   4.000 -0.9391  0.4259  0.1785
 2511TIP3    H129024   5.579   6.147   4.057 -2.1241  0.9288  0.3606
 2511TIP3    H229025   5.589   6.089   3.917  2.4102 -1.7541  1.7024
 2512TIP3   OH229026   0.750   0.788   2.734 -0.2529 -0.4749  0.5178
 2512TIP3    H129027   0.721   0.807   2.824  1.7553  0.2504  1.0386
 2512TIP3    H229028   0.829   0.736   2.745  0.1573 -0.1431 -0.8403
 2513TIP3   OH229029   6.727   0.157  15.077  0.0375 -0.0792 -0.3018
 2513TIP3    H129030   6.654   0.154  15.015  1.7047  0.5904 -2.3628
 2513TIP3    H229031   6.778   0.233  15.049  2.1860 -1.2721  0.3357
 2514TIP3   OH229032   5.040   3.713   1.661 -0.5864 -0.0464  0.0907
 2514TIP3    H129033   5.104   3.780   1.638 -0.3666  0.3934  1.9339
 2514TIP3    H229034   4.957   3.760   1.668 -0.7770 -0.2957 -0.4527
 2515TIP3   OH229035   1.450   2.572  15.230  0.0537 -0.0081 -0.1811
 2515TIP3    H129036   1.531   2.568  15.179  2.4751 -0.1106  3.5204
 2515TIP3    H229037   1.426   2.664  15.229  0.0384 -0.0069 -1.4841
 2516TIP3   OH229038   6.153   3.118  15.036 -0.3361  0.0799  0.2750
 2516TIP3    H129039   6.173   3.145  14.946 -0.8359  0.8212  0.3813
 2516TIP3    H229040   6.129   3.026  15.029 -0.8072  0.2475 -0.4204
 2517TIP3   OH229041   6.389   5.238  12.598 -0.5944 -0.7804  0.5981
 2517TIP3    H129042   6.340   5.177  12.543  0.3106 -0.9115 -0.0851
 2517TIP3    H229043   6.324   5.274  12.658 -1.4726 -1.1445 -0.1155
 2518TIP3   OH229044   5.468   3.113   5.363 -0.1418 -0.5029  0.5354
 2518TIP3    H129045   5.445   3.095   5.271  1.5419  0.0609 -0.0099
 2518TIP3    H229046   5.471   3.208   5.369  4.2229 -0.5098 -0.0251
 2519TIP3   OH229047   0.781   5.655   3.859  0.5167 -0.1853 -0.1052
 2519TIP3    H129048   0.875   5.659   3.840  0.3996 -1.3780 -1.0074
 2519TIP3    H229049   0.751   5.576   3.813 -1.2295  1.0861 -1.2022
 2520TIP3   OH229050   2.815   2.061   4.407  0.4686 -0.2511 -0.0764
 2520TIP3    H129051   2.746   2.005   4.442  1.5462 -1.4051  0.2373
 2520TIP3    H229052   2.892   2.039   4.458  1.2047  0.6338 -0.7862
 2521TIP3   OH229053   1.236   4.193  12.722 -0.0744  0.6135 -0.2017
 2521TIP3    H129054   1.151   4.154  12.743 -0.4082  1.4385 -0.0261
 2521TIP3    H229055   1.275   4.132  12.659  0.4152 -1.2636  1.8208
 2522TIP3   OH229056   6.639   0.900  16.151 -0.5801 -0.1479 -0.1483
 2522TIP3    H129057   6.714   0.847  16.178  1.0446  0.6850 -2.7805
 2522TIP3    H229058   6.658   0.987  16.185  0.0046  0.2161 -1.3732
 2523TIP3   OH229059   5.761   1.903  17.209 -0.6210 -0.1093 -0.2725
 2523TIP3    H129060   5.819   1.897  17.284  2.1873 -0.6829 -2.4179
 2523TIP3    H229061   5.736   1.812  17.191 -0.2050 -0.1103 -0.8505
 2524TIP3   OH229062   3.878   2.954  14.386 -0.2930 -0.3506  0.0086
 2524TIP3    H129063   3.937   3.008  14.438 -1.3172 -0.7170  1.5730
 2524TIP3    H229064   3.931   2.879  14.359  0.3707  0.0819  0.1047
 2525TIP3   OH229065   4.462   5.253  12.686  0.1237 -0.3903  0.1804
 2525TIP3    H129066   4.427   5.256  12.597  2.5082 -0.8473 -0.7990
 2525TIP3    H229067   4.384   5.255  12.742 -1.4290 -0.5418 -1.9043
 2526TIP3   OH229068   5.648   5.429   3.307 -0.1490 -0.0187 -0.4040
 2526TIP3    H129069   5.565   5.466   3.338  0.7288 -0.1127  2.1934
 2526TIP3    H229070   5.633   5.335   3.304 -0.5468  0.0692 -1.2463
 2527TIP3   OH229071   6.610   1.998  14.850  0.3645 -0.3452 -0.3412
 2527TIP3    H129072   6.592   1.911  14.886 -2.2642  0.4847  0.4405
 2527TIP3    H229073   6.626   2.053  14.927 -4.1592  1.1915 -0.3772
 2528TIP3   OH229074   1.912   4.609   2.129 -0.0626  0.6432  0.7533
 2528TIP3    H129075   2.008   4.613   2.128  0.0795 -1.6534  2.0803
 2528TIP3    H229076   1.892   4.546   2.198 -2.5339  0.8663  0.2585
 2529TIP3   OH229077   5.967   2.570  12.047  0.3401 -0.5400 -0.5628
 2529TIP3    H129078   5.938   2.653  12.083  2.3155 -0.6744  1.4919
 2529TIP3    H229079   5.936   2.570  11.956 -3.4491  0.5001  0.6541
 2530TIP3   OH229080   4.129   6.503  11.870  0.0098  0.4307 -0.4330
 2530TIP3    H129081   4.115   6.587  11.826 -2.1131 -0.0999 -0.7956
 2530TIP3    H229082   4.056   6.448  11.842 -0.6440 -0.3605  2.6860
 2531TIP3   OH229083   3.989   4.104  15.096  0.2744  0.7330  0.1699
 2531TIP3    H129084   3.942   4.052  15.031  1.5347 -1.0881  0.6965
 2531TIP3    H229085   4.081   4.080  15.085  0.6174  1.1307  1.9638
 2532TIP3   OH229086   1.503   1.742  13.926 -0.2642  0.9127 -0.2111
 2532TIP3    H129087   1.541   1.824  13.893 -2.8028  1.2979 -2.3625
 2532TIP3    H229088   1.483   1.761  14.018  1.5298  1.8238  0.0153
 2533TIP3   OH229089   1.335   5.197   1.605 -0.6773 -0.0048 -0.4188
 2533TIP3    H129090   1.366   5.107   1.593 -1.3208 -0.5090  1.4156
 2533TIP3    H229091   1.240   5.189   1.616 -0.4803  0.5836  2.1288
 2534TIP3   OH229092   0.138   5.982  12.940  0.1098  0.0630 -0.0797
 2534TIP3    H129093   0.189   6.023  13.011  0.5463  0.2194 -0.4789
 2534TIP3    H229094   0.180   6.014  12.860 -0.2312 -0.3088 -0.4035
 2535TIP3   OH229095   6.775   6.444   5.746 -0.0659  0.8130  0.0072
 2535TIP3    H129096   6.737   6.372   5.796 -0.4561  2.2248  1.8026
 2535TIP3    H229097   6.827   6.493   5.810  2.9040  0.2724 -1.8899
 2536TIP3   OH229098   5.884   3.329  16.158  0.0217  0.2889 -0.0722
 2536TIP3    H129099   5.961   3.315  16.102  0.8072 -0.9015  1.2590
 2536TIP3    H229100   5.904   3.408  16.208 -0.2336  0.7666 -0.7173
 2537TIP3   OH229101   1.980   6.785   5.564 -0.3709  0.4350  0.6216
 2537TIP3    H129102   2.027   6.778   5.481  0.3279  0.4063  1.0192
 2537TIP3    H229103   2.049   6.786   5.631 -0.8451  2.0038  1.1127
 2538TIP3   OH229104   4.273   0.791  16.233  0.4247 -0.1810  0.2133
 2538TIP3    H129105   4.278   0.832  16.146 -1.1425  0.3427  0.3545
 2538TIP3    H229106   4.358   0.809  16.273  2.3535 -3.0861 -2.3536
 2539TIP3   OH229107   0.258   5.747  16.859 -0.1555 -0.0385  0.7819
 2539TIP3    H129108   0.221   5.711  16.778 -0.6019  1.1674  0.4406
 2539TIP3    H229109   0.330   5.803  16.829  0.6646 -0.7858  1.3213
 2540TIP3   OH229110   1.757   1.143   1.988 -0.0801 -0.3538  1.0854
 2540TIP3    H129111   1.796   1.067   2.030 -0.4773 -1.1196  0.1136
 2540TIP3    H229112   1.791   1.141   1.898 -1.8862 -0.7278  0.3821
 2541TIP3   OH229113   2.689   2.820   4.487  0.4512  1.0289 -0.1039
 2541TIP3    H129114   2.773   2.809   4.443  0.9456 -1.0034  1.2585
 2541TIP3    H229115   2.638   2.876   4.429  2.1617  0.9276 -1.7421
 2542TIP3   OH229116   4.760   1.535  14.429 -0.0289  0.1500  0.3321
 2542TIP3    H129117   4.849   1.561  14.453  0.1854 -1.2219  1.0874
 2542TIP3    H229118   4.703   1.598  14.473  0.5370  0.4085  0.6955
 2543TIP3   OH229119   3.352   2.751   2.284 -0.0053  0.2315  0.4166
 2543TIP3    H129120   3.275   2.722   2.333 -1.8827  2.8834 -0.8376
 2543TIP3    H229121   3.415   2.774   2.352 -0.6468 -1.1081  1.4878
 2544TIP3   OH229122   1.835   3.344  13.095  0.6880 -0.2103  0.0711
 2544TIP3    H129123   1.741   3.343  13.113  0.1647 -0.9406 -2.4582
 2544TIP3    H229124   1.876   3.341  13.181 -1.6052 -1.5127  1.1681
 2545TIP3   OH229125   0.158   1.359   0.537  0.0713 -0.3748 -0.2200
 2545TIP3    H129126   0.072   1.318   0.523  0.6391 -1.2752 -1.1252
 2545TIP3    H229127   0.209   1.334   0.460  0.8213  1.0351 -0.1958
 2546TIP3   OH229128   0.673   0.974   5.497  0.2413 -0.8492  0.1113
 2546TIP3    H129129   0.766   0.965   5.519  0.4552 -0.4923 -0.6077
 2546TIP3    H229130   0.674   1.016   5.410 -0.5798 -1.2814 -0.1041
 2547TIP3   OH229131   5.871   0.711   1.402  0.4463  0.1615  0.3809
 2547TIP3    H129132   5.899   0.757   1.323  1.0944  2.1594  1.7251
 2547TIP3    H229133   5.949   0.713   1.459 -0.6561  0.6718  1.9065
 2548TIP3   OH229134   3.315   3.297  15.002  0.1067  0.1813 -0.3510
 2548TIP3    H129135   3.409   3.314  15.000 -0.4981  3.6964 -2.7122
 2548TIP3    H229136   3.295   3.259  14.916 -0.9372  1.3318 -0.6253
 2549TIP3   OH229137   4.074   4.178  12.906  0.0085  0.0337  0.2708
 2549TIP3    H129138   4.134   4.249  12.885  0.5291 -0.3818  0.3256
 2549TIP3    H229139   3.999   4.220  12.946  0.1293  0.5916 -0.0907
 2550TIP3   OH229140   6.479   4.330  12.898 -0.2791 -0.4508 -0.3630
 2550TIP3    H129141   6.491   4.260  12.834  0.4615 -0.5777 -0.0947
 2550TIP3    H229142   6.458   4.285  12.979  0.4295 -0.3805 -0.1346
 2551TIP3   OH229143   6.320   0.939   1.758  0.3708  0.6349 -0.5533
 2551TIP3    H129144   6.315   0.990   1.838  0.7500  0.4190 -0.3927
 2551TIP3    H229145   6.373   0.991   1.698  0.5456  0.5461 -0.4761
 2552TIP3   OH229146   5.949   1.296   1.388  0.2566 -0.1096 -0.0395
 2552TIP3    H129147   6.021   1.235   1.402 -1.2436 -1.5526  1.8414
 2552TIP3    H229148   5.879   1.242   1.350 -1.5530  0.0266  2.8702
 2553TIP3   OH229149   0.080   4.085  12.326 -0.2935  0.3388  0.2206
 2553TIP3    H129150   0.071   4.054  12.416  2.3129  0.5616  0.5961
 2553TIP3    H229151   0.077   4.005  12.273 -4.0240  0.3749  0.2606
 2554TIP3   OH229152   5.778   2.141  13.425  0.0363 -0.1324 -0.2022
 2554TIP3    H129153   5.758   2.061  13.378  0.1206  1.0342 -2.2649
 2554TIP3    H229154   5.707   2.201  13.402  1.2867  1.2017 -0.7066
 2555TIP3   OH229155   2.134   1.631  16.127 -0.7781  0.0300 -0.1163
 2555TIP3    H129156   2.161   1.542  16.150  1.3727  0.6472 -0.1392
 2555TIP3    H229157   2.118   1.628  16.033 -0.5810 -0.3087 -0.1390
 2556TIP3   OH229158   2.368   2.185  13.053  0.1194 -0.3595 -0.2404
 2556TIP3    H129159   2.454   2.177  13.013 -0.6148 -1.0162 -1.7130
 2556TIP3    H229160   2.371   2.125  13.128  1.1181  0.0284  0.0298
 2557TIP3   OH229161   6.091   1.410  12.259  0.9092 -0.1782 -0.0383
 2557TIP3    H129162   6.050   1.379  12.178  0.6834  0.6719 -0.2511
 2557TIP3    H229163   6.032   1.479  12.290 -0.2446 -2.0490  2.0722
 2558TIP3   OH229164   3.223   4.984   3.857 -0.4616  0.5347  0.1584
 2558TIP3    H129165   3.311   4.952   3.838 -1.0571 -0.5677 -0.8334
 2558TIP3    H229166   3.171   4.958   3.780 -1.1416  3.2275 -0.3757
 2559TIP3   OH229167   2.751   1.632  14.364  0.4486 -0.5039 -0.3792
 2559TIP3    H129168   2.689   1.559  14.362  1.4106 -1.3350 -0.4043
 2559TIP3    H229169   2.745   1.667  14.453 -1.8010  0.9712 -1.0534
 2560TIP3   OH229170   5.818   0.327  17.021  0.3719  0.4012  0.3445
 2560TIP3    H129171   5.833   0.418  17.047  1.2454  0.0891  0.9721
 2560TIP3    H229172   5.788   0.332  16.931  0.1303  1.3355  0.4742
 2561TIP3   OH229173   3.894   5.552   5.424  0.1078 -0.6913 -0.0067
 2561TIP3    H129174   3.962   5.530   5.487  0.1101  0.9734  0.5721
 2561TIP3    H229175   3.858   5.635   5.454 -1.4185 -0.9811 -0.9417
 2562TIP3   OH229176   2.372   6.448   1.256 -0.0223 -0.1918 -0.2325
 2562TIP3    H129177   2.450   6.426   1.307  0.0393  1.6419  0.5125
 2562TIP3    H229178   2.395   6.425   1.166  1.8280  1.4283 -0.1981
 2563TIP3   OH229179   3.934   2.330  13.712  0.7523 -0.0479  0.1417
 2563TIP3    H129180   3.899   2.365  13.794 -1.3952  0.2399 -0.8865
 2563TIP3    H229181   3.886   2.375  13.643  1.5409 -1.3132 -1.2790
 2564TIP3   OH229182   4.239   2.580  15.351 -0.6325  0.0514  0.0978
 2564TIP3    H129183   4.276   2.501  15.312 -0.3063  0.0078  0.4972
 2564TIP3    H229184   4.205   2.630  15.277  0.1335  0.0442 -0.2594
 2565TIP3   OH229185   4.624   0.594   2.350  0.1035 -0.1815 -0.2954
 2565TIP3    H129186   4.699   0.653   2.350 -2.4546  3.2466 -0.7753
 2565TIP3    H229187   4.609   0.574   2.258  0.6838 -1.2805 -0.1647
 2566TIP3   OH229188   0.435   2.017  10.362 -0.0577  0.2261  0.5945
 2566TIP3    H129189   0.403   1.937  10.404  0.4228  0.3490  1.1979
 2566TIP3    H229190   0.355   2.063  10.336 -0.3663 -2.3055 -3.3952
 2567TIP3   OH229191   0.763   1.630  16.703  0.0176  0.9786 -0.1191
 2567TIP3    H129192   0.802   1.622  16.616  0.4296  0.1349  0.1361
 2567TIP3    H229193   0.831   1.599  16.762 -0.5386  0.8269  0.4434
 2568TIP3   OH229194   3.623   0.978  13.944 -0.4152  0.2058  0.4592
 2568TIP3    H129195   3.658   1.045  13.885  0.5593  0.2416  1.0586
 2568TIP3    H229196   3.636   1.014  14.032 -2.8860  0.6433  0.6772
 2569TIP3   OH229197   3.687   0.822   5.423  0.5695 -0.0283 -0.4954
 2569TIP3    H129198   3.693   0.729   5.442  0.7214  0.4735  2.1282
 2569TIP3    H229199   3.773   0.857   5.445 -0.1380  1.0661  0.5849
 2570TIP3   OH229200   2.781   0.479   0.935  0.2593 -0.1403  0.1221
 2570TIP3    H129201   2.758   0.501   1.025  0.0697 -1.0700  0.3075
 2570TIP3    H229202   2.725   0.404   0.914  0.0067  0.3354 -0.9065
 2571TIP3   OH229203   1.328   3.389   5.853 -0.5559  0.6755 -0.1372
 2571TIP3    H129204   1.376   3.463   5.892 -1.3069  1.0377  0.1095
 2571TIP3    H229205   1.241   3.394   5.893 -0.1456 -1.2623  1.0615
 2572TIP3   OH229206   1.555   1.502   3.873  0.2785 -0.2107 -0.0220
 2572TIP3    H129207   1.632   1.554   3.894  0.9759  0.1973 -3.3288
 2572TIP3    H229208   1.481   1.553   3.905  1.2751  0.0498  1.9153
 2573TIP3   OH229209   6.765   6.225   5.508  0.1082  0.4507 -0.0159
 2573TIP3    H129210   6.767   6.183   5.594 -0.0143  2.3508  0.9331
 2573TIP3    H229211   6.674   6.248   5.494 -0.0860 -0.9358 -1.2250
 2574TIP3   OH229212   0.153   6.276   1.747  0.6187  0.1636 -0.5823
 2574TIP3    H129213   0.133   6.237   1.832  1.4907 -0.0511 -0.4703
 2574TIP3    H229214   0.107   6.360   1.747 -0.9021 -0.6543 -0.6444
 2575TIP3   OH229215   2.149   4.834  16.666 -0.1209 -0.4687 -0.1349
 2575TIP3    H129216   2.132   4.835  16.760  0.8451 -3.2742  0.1066
 2575TIP3    H229217   2.244   4.833  16.659 -0.1807  0.1333 -1.1744
 2576TIP3   OH229218   4.680   3.484  16.231  0.5929 -0.0145 -0.8449
 2576TIP3    H129219   4.626   3.433  16.171  0.7356 -0.5099 -0.5519
 2576TIP3    H229220   4.628   3.491  16.311  1.5406 -1.7168 -0.0579
 2577TIP3   OH229221   3.048   3.253  17.192 -0.4285  0.0744 -0.1090
 2577TIP3    H129222   3.082   3.193  17.258  0.8953  0.4529 -0.4293
 2577TIP3    H229223   3.123   3.270  17.135 -1.4404  0.0945 -1.4516
 2578TIP3   OH229224   0.364   5.449   5.680 -0.2851 -0.0239 -0.3268
 2578TIP3    H129225   0.342   5.366   5.638  0.9725 -0.0449 -0.9806
 2578TIP3    H229226   0.458   5.443   5.696 -0.3128  0.9981  0.2495
 2579TIP3   OH229227   1.910   6.276  10.821  0.9931  0.1269 -0.5834
 2579TIP3    H129228   1.899   6.181  10.822 -0.7579  0.3184 -0.4426
 2579TIP3    H229229   1.907   6.299  10.728  1.4367  0.0586 -0.6187
 2580TIP3   OH229230   6.438   1.407   3.262  0.0504 -0.1596  0.4821
 2580TIP3    H129231   6.347   1.395   3.291  0.0895 -0.1080  0.6300
 2580TIP3    H229232   6.436   1.486   3.209 -0.2652 -0.9881 -0.7542
 2581TIP3   OH229233   6.692   5.763   3.199  0.6668 -0.7937  0.4571
 2581TIP3    H129234   6.740   5.699   3.251  0.1861 -0.6802  1.0433
 2581TIP3    H229235   6.602   5.733   3.201 -0.3770  2.1372  4.3052
 2582TIP3   OH229236   1.536   4.163  13.251 -0.7607  0.7360  0.0708
 2582TIP3    H129237   1.442   4.158  13.229 -0.4014  0.7676 -1.5720
 2582TIP3    H229238   1.552   4.256  13.262 -1.0920  0.6683  1.1458
 2583TIP3   OH229239   3.074   0.992   4.190  0.2135 -0.7199 -0.2787
 2583TIP3    H129240   3.006   1.056   4.168 -0.9690 -1.6561  0.6175
 2583TIP3    H229241   3.077   0.992   4.285  1.6014 -0.5688 -0.3123
 2584TIP3   OH229242   0.557   5.974   1.194 -0.4637 -0.2775  0.0516
 2584TIP3    H129243   0.566   5.927   1.111 -0.5528 -3.3802  1.7472
 2584TIP3    H229244   0.516   6.057   1.170  1.3968 -0.2314 -3.2647
 2585TIP3   OH229245   6.019   4.959   3.224  0.3685  0.1284 -0.0751
 2585TIP3    H129246   6.098   4.988   3.178 -0.1880  1.8866  0.0430
 2585TIP3    H229247   5.959   5.033   3.217 -0.3339 -0.2078  2.0565
 2586TIP3   OH229248   6.410   1.971  13.935 -0.1500  0.4621  0.0069
 2586TIP3    H129249   6.408   2.066  13.946  0.1593  0.2937  1.7408
 2586TIP3    H229250   6.390   1.937  14.023  1.7543 -1.0585 -0.1090
 2587TIP3   OH229251   3.755   3.317  17.171  0.1790 -0.1616 -0.0812
 2587TIP3    H129252   3.798   3.389  17.126 -0.6699  1.0953  1.0668
 2587TIP3    H229253   3.782   3.325  17.262 -2.2521  0.5473  0.6345
 2588TIP3   OH229254   4.277   4.544   5.660 -0.0332 -0.7012  0.1186
 2588TIP3    H129255   4.249   4.453   5.666 -0.5657 -0.6709 -1.6518
 2588TIP3    H229256   4.346   4.544   5.593 -0.2840  0.2565 -0.1572
 2589TIP3   OH229257   2.234   5.500   4.504 -0.3006  0.4180 -0.1889
 2589TIP3    H129258   2.304   5.516   4.567  0.5162 -0.1698 -0.9462
 2589TIP3    H229259   2.216   5.407   4.511 -0.8649  0.5238 -0.1578
 2590TIP3   OH229260   0.167   4.378   1.428 -0.1624  0.4711  0.2913
 2590TIP3    H129261   0.247   4.326   1.435  0.0353  0.6825 -0.3250
 2590TIP3    H229262   0.123   4.367   1.512  0.2073 -0.1537  0.4046
 2591TIP3   OH229263   4.965   0.814   4.852  0.4683 -0.3954 -0.0839
 2591TIP3    H129264   4.975   0.907   4.871  0.0014 -0.4731  0.5584
 2591TIP3    H229265   4.872   0.802   4.834  0.0183 -1.1956  2.5067
 2592TIP3   OH229266   3.280   3.237  16.059 -0.2524  0.6825 -0.6213
 2592TIP3    H129267   3.231   3.295  16.117  0.1446 -0.2070  0.6149
 2592TIP3    H229268   3.214   3.197  16.003 -1.0915 -1.1949  1.6240
 2593TIP3   OH229269   4.406   0.853  15.456 -0.4115 -0.1550  0.1270
 2593TIP3    H129270   4.434   0.841  15.546 -0.5753 -0.7561  0.1010
 2593TIP3    H229271   4.467   0.917  15.420 -0.7826  0.6262  0.8638
 2594TIP3   OH229272   0.604   5.697   2.413  0.0770 -0.1998 -0.1294
 2594TIP3    H129273   0.538   5.630   2.394  1.5687 -1.8518  0.3839
 2594TIP3    H229274   0.555   5.768   2.454 -1.0976 -2.2256  2.0532
 2595TIP3   OH229275   0.598   5.772   1.687  0.5976  0.3555 -0.0903
 2595TIP3    H129276   0.574   5.765   1.594  2.9677  0.1727 -0.7096
 2595TIP3    H229277   0.553   5.852   1.717  0.5312  0.9086 -1.6277
 2596TIP3   OH229278   4.199   0.337   1.653 -0.5745  0.8079  0.5169
 2596TIP3    H129279   4.262   0.409   1.660 -0.0818  0.2493  2.0968
 2596TIP3    H229280   4.137   0.366   1.586  1.0954  1.5545 -0.7371
 2597TIP3   OH229281   5.554   0.500   3.582  0.1367 -0.3854 -0.1476
 2597TIP3    H129282   5.541   0.540   3.496 -0.3305  0.6673  0.3971
 2597TIP3    H229283   5.496   0.425   3.583 -1.2619  0.6682 -0.0862
 2598TIP3   OH229284   5.117   0.532  14.439 -0.2445 -0.1119 -0.6698
 2598TIP3    H129285   5.202   0.498  14.467 -0.1678  0.9427  0.4424
 2598TIP3    H229286   5.099   0.487  14.357  2.8885  1.9843 -2.6036
 2599TIP3   OH229287   3.735   1.713  10.580 -0.6579 -0.0434  0.1845
 2599TIP3    H129288   3.660   1.689  10.634 -0.5119  1.8273  1.2858
 2599TIP3    H229289   3.763   1.631  10.539 -2.4552 -0.9970  0.8284
 2600TIP3   OH229290   5.386   5.864  16.533 -0.3007  0.2019  0.3447
 2600TIP3    H129291   5.480   5.851  16.547  0.4047  2.7317 -1.6371
 2600TIP3    H229292   5.376   5.870  16.438 -2.4559  0.0974  0.5352
 2601TIP3   OH229293   5.782   2.783  12.350  0.4304  0.0068 -0.0116
 2601TIP3    H129294   5.741   2.729  12.283 -0.5505  0.8619 -0.1228
 2601TIP3    H229295   5.738   2.868  12.342 -1.7388 -0.6545  3.5237
 2602TIP3   OH229296   1.292   0.303  13.453  0.3675 -0.4545  0.2820
 2602TIP3    H129297   1.197   0.291  13.454 -0.0234  2.3886  0.5492
 2602TIP3    H229298   1.311   0.347  13.536  2.0378 -1.6394  0.5584
 2603TIP3   OH229299   5.481   3.745   4.567 -0.0242  0.1940 -0.2188
 2603TIP3    H129300   5.528   3.828   4.567  0.6013 -0.1270 -1.8633
 2603TIP3    H229301   5.477   3.720   4.474  1.0938 -2.3052  0.3441
 2604TIP3   OH229302   1.896   2.493  16.944 -0.2436  0.2680 -0.3134
 2604TIP3    H129303   1.888   2.460  16.854 -0.3420 -1.8422  0.4293
 2604TIP3    H229304   1.816   2.465  16.987  0.7179 -0.6062  0.9684
 2605TIP3   OH229305   2.856   4.865   0.476 -0.5992 -0.4518  0.1710
 2605TIP3    H129306   2.929   4.807   0.454 -1.0298 -1.0957  0.4066
 2605TIP3    H229307   2.852   4.863   0.572  0.3818  1.2219  0.2553
 2606TIP3   OH229308   0.371   2.931   4.706  0.4407  0.4862  0.1869
 2606TIP3    H129309   0.374   2.836   4.692 -3.2433  0.2426  0.5180
 2606TIP3    H229310   0.364   2.968   4.618  3.7325  0.6346 -0.0766
 2607TIP3   OH229311   4.680   0.850   0.822  0.1892  0.2210 -0.6192
 2607TIP3    H129312   4.711   0.834   0.911 -0.3853 -0.7364 -0.5789
 2607TIP3    H229313   4.585   0.836   0.827  0.1603  0.1091 -1.3893
 2608TIP3   OH229314   2.702   6.705  13.390 -0.4607  0.7856  0.4761
 2608TIP3    H129315   2.678   6.679  13.302 -2.4496  1.3605  0.8101
 2608TIP3    H229316   2.744   6.790  13.380 -0.2150  0.6063  0.0231
 2609TIP3   OH229317   0.238   5.630  11.183  0.2830  0.5059  0.6740
 2609TIP3    H129318   0.312   5.578  11.154 -0.0110 -0.1833  1.1488
 2609TIP3    H229319   0.196   5.578  11.251 -2.2918 -0.4249 -1.4998
 2610TIP3   OH229320   0.420   3.266  11.981  0.5560  0.4221  0.0025
 2610TIP3    H129321   0.409   3.172  11.970  1.7819  0.3349 -0.5941
 2610TIP3    H229322   0.491   3.289  11.921 -0.4977  1.9144 -0.7132
 2611TIP3   OH229323   5.071   2.921   1.811  0.4118 -0.5866  0.3189
 2611TIP3    H129324   5.019   2.844   1.832 -0.6131 -0.3185 -1.1116
 2611TIP3    H229325   5.128   2.893   1.739 -0.4065  0.1409 -0.6329
 2612TIP3   OH229326   4.566   6.675   4.301  0.1700  0.0287  0.0231
 2612TIP3    H129327   4.472   6.692   4.303  0.2937  0.6808  1.1286
 2612TIP3    H229328   4.604   6.752   4.259  0.0240 -1.3078 -2.6670
 2613TIP3   OH229329   0.027   6.410   3.225 -0.4009 -0.6386 -0.7025
 2613TIP3    H129330  -0.005   6.500   3.221 -3.2702 -1.5991 -0.7131
 2613TIP3    H229331   0.101   6.414   3.285 -0.7938  1.6444 -0.3038
 2614TIP3   OH229332   0.506   3.069   1.955  0.0833 -0.1263 -0.0374
 2614TIP3    H129333   0.446   3.017   1.902 -0.4114  1.7688 -1.4207
 2614TIP3    H229334   0.582   3.084   1.898  0.4687  0.1556  0.5492
 2615TIP3   OH229335   5.386   5.519   5.763  0.2596 -0.0136 -0.4021
 2615TIP3    H129336   5.300   5.550   5.738 -0.8756 -0.8322  2.2722
 2615TIP3    H229337   5.425   5.591   5.813  0.9237  0.1401 -1.1193
 2616TIP3   OH229338   0.029   0.342   3.256  0.4916  0.1340 -0.2395
 2616TIP3    H129339  -0.051   0.386   3.228  0.0570  0.2890  1.1768
 2616TIP3    H229340   0.070   0.313   3.175 -1.4138 -0.6847 -0.9427
 2617TIP3   OH229341   2.569   4.531  17.092 -0.5838 -0.1915 -0.4537
 2617TIP3    H129342   2.611   4.588  17.027 -2.3570 -0.1096 -1.5581
 2617TIP3    H229343   2.483   4.569  17.105 -1.1782 -1.6796  0.0493
 2618TIP3   OH229344   0.067   2.767  16.273 -0.1788 -0.1831  0.1657
 2618TIP3    H129345   0.016   2.719  16.208 -0.5556 -0.1028  0.3976
 2618TIP3    H229346   0.045   2.859  16.258  2.2815  0.1257 -1.7706
 2619TIP3   OH229347   0.357   2.777  15.695  0.0682  0.1623  0.6412
 2619TIP3    H129348   0.374   2.704  15.635 -0.8170  0.1030  0.4523
 2619TIP3    H229349   0.261   2.779  15.702  0.0777  1.5366  0.3694
 2620TIP3   OH229350   2.406   3.157  15.998  0.0008  0.8708  0.4383
 2620TIP3    H129351   2.471   3.166  16.068 -0.8462 -0.3772  1.4206
 2620TIP3    H229352   2.398   3.244  15.961  0.6271  1.5127  1.7691
 2621TIP3   OH229353   0.640   1.714   3.838  0.2708 -0.0689 -0.1016
 2621TIP3    H129354   0.606   1.625   3.831 -0.2175  0.0149  1.0311
 2621TIP3    H229355   0.653   1.728   3.932 -0.8851  1.5094 -0.1557
 2622TIP3   OH229356   0.572   1.002  11.680 -0.3380  0.0037 -0.2448
 2622TIP3    H129357   0.643   1.067  11.674 -2.8624  3.0271  1.1721
 2622TIP3    H229358   0.601   0.942  11.749  1.4768  0.3875 -0.6487
 2623TIP3   OH229359   3.708   2.140  15.850 -0.5119  0.1034  0.3820
 2623TIP3    H129360   3.775   2.101  15.906 -0.4936 -1.5831 -0.7977
 2623TIP3    H229361   3.757   2.195  15.789 -0.6750  3.8457  3.3919
 2624TIP3   OH229362   6.377   2.670  12.513  0.4007  0.4893 -0.2077
 2624TIP3    H129363   6.425   2.718  12.445  0.0162 -0.6135 -1.2737
 2624TIP3    H229364   6.304   2.628  12.466  0.2297 -0.4151  0.8486
 2625TIP3   OH229365   6.047   0.984  16.523  0.0886  0.6475 -0.3013
 2625TIP3    H129366   6.141   0.971  16.515  0.1421  1.1728 -0.5373
 2625TIP3    H229367   6.026   0.952  16.610  0.5163  0.6981 -0.1792
 2626TIP3   OH229368   3.925   4.129   2.060 -0.1123  0.0893  0.2082
 2626TIP3    H129369   3.941   4.217   2.094 -1.4946  0.0694  0.9432
 2626TIP3    H229370   3.999   4.077   2.094 -0.0540  0.6526  0.9584
 2627TIP3   OH229371   1.060   4.221  13.911 -0.0431  0.1962  0.3230
 2627TIP3    H129372   1.067   4.156  13.841 -0.4361 -0.2754  0.7228
 2627TIP3    H229373   1.147   4.222  13.951 -0.4641 -1.2397  1.3355
 2628TIP3   OH229374   0.922   2.183  11.656  0.2445 -0.4554  0.4468
 2628TIP3    H129375   0.891   2.131  11.582 -2.0483 -1.1301  1.8401
 2628TIP3    H229376   0.902   2.273  11.631  0.0576 -0.6269 -0.0339
 2629TIP3   OH229377   6.513   4.435  16.175  0.2489  0.4564 -0.0037
 2629TIP3    H129378   6.543   4.344  16.180  2.1291  1.0018 -0.8051
 2629TIP3    H229379   6.498   4.460  16.267 -1.3111 -0.9810  0.1392
 2630TIP3   OH229380   6.568   3.304   4.911 -0.1440 -0.3539 -0.6044
 2630TIP3    H129381   6.510   3.319   4.986 -0.2479  0.3537 -0.8278
 2630TIP3    H229382   6.512   3.264   4.845 -0.3612  0.2479 -0.7875
 2631TIP3   OH229383   5.345   2.385   2.399  0.2353  0.0791 -0.4292
 2631TIP3    H129384   5.416   2.448   2.415 -0.5385  0.8678 -0.0460
 2631TIP3    H229385   5.282   2.403   2.469  0.1034 -1.2772 -0.1861
 2632TIP3   OH229386   1.886   0.820   6.158 -0.0294 -0.5553 -0.6391
 2632TIP3    H129387   1.847   0.861   6.081  2.2936 -1.2786 -2.2632
 2632TIP3    H229388   1.897   0.892   6.221 -2.0234  0.0267 -0.9235
 2633TIP3   OH229389   5.081   3.197   0.796 -0.7416 -0.0613 -0.4829
 2633TIP3    H129390   5.022   3.137   0.841  0.4719 -0.9090 -0.0060
 2633TIP3    H229391   5.051   3.197   0.705 -1.2487 -0.7691 -0.3169
 2634TIP3   OH229392   4.436   1.976  15.709  0.3251  0.7175 -0.3688
 2634TIP3    H129393   4.459   2.046  15.770  1.4393 -0.0395  0.1004
 2634TIP3    H229394   4.514   1.921  15.705 -0.5245 -0.4977 -0.7245
 2635TIP3   OH229395   4.379   5.848   0.879 -0.3933  0.0262  0.6267
 2635TIP3    H129396   4.419   5.761   0.880  0.0905  0.2591  1.6798
 2635TIP3    H229397   4.390   5.882   0.968 -0.6126  1.1526  0.2437
 2636TIP3   OH229398   1.560   3.882  15.071  0.4245  0.0020 -0.1708
 2636TIP3    H129399   1.518   3.967  15.062 -1.3902 -0.9332 -0.7642
 2636TIP3    H229400   1.598   3.864  14.985  0.3917 -0.0190 -0.1799
 2637TIP3   OH229401   5.889   1.677  15.800 -0.4971 -0.7992  0.0903
 2637TIP3    H129402   5.897   1.635  15.886 -0.5226 -1.7589 -0.3686
 2637TIP3    H229403   5.824   1.624  15.754 -0.8447  0.0094 -0.3506
 2638TIP3   OH229404   1.741   3.533  14.176  0.2151 -0.2144 -0.0471
 2638TIP3    H129405   1.742   3.499  14.265  0.0511 -1.3829 -0.4806
 2638TIP3    H229406   1.799   3.474  14.127 -0.8172 -0.4405 -1.0125
 2639TIP3   OH229407   6.354   5.527   0.389 -0.1854  0.1543  0.5094
 2639TIP3    H129408   6.326   5.564   0.305 -1.1622 -1.1064  0.2728
 2639TIP3    H229409   6.292   5.563   0.452 -2.4227 -2.6629 -0.0191
 2640TIP3   OH229410   6.362   4.975   0.508  0.0399 -0.5395 -0.2242
 2640TIP3    H129411   6.345   4.907   0.574 -0.9394  0.1083  0.2186
 2640TIP3    H229412   6.367   5.056   0.559  2.9484 -0.4856 -0.5518
 2641TIP3   OH229413   3.747   2.957  12.471  0.4705  0.5593  0.0536
 2641TIP3    H129414   3.769   2.922  12.558 -0.9765  1.1432  0.6695
 2641TIP3    H229415   3.688   2.893  12.433  1.5658  0.0155 -0.7571
 2642TIP3   OH229416   5.170   5.717  14.982  0.1906 -0.1220 -0.0116
 2642TIP3    H129417   5.166   5.658  15.057  0.3509 -0.1646 -0.0362
 2642TIP3    H229418   5.091   5.697  14.931  0.1419 -0.1750  0.0851
 2643TIP3   OH229419   6.780   0.908  12.026 -0.0722 -0.1551  0.0743
 2643TIP3    H129420   6.778   0.827  11.975  1.0755 -0.3022  0.2647
 2643TIP3    H229421   6.809   0.975  11.965  1.3710 -0.3439  0.5361
 2644TIP3   OH229422   1.264   1.822   5.408  0.0421 -0.1667  0.3516
 2644TIP3    H129423   1.230   1.890   5.466 -0.8722 -0.3414  0.0220
 2644TIP3    H229424   1.277   1.746   5.465 -0.0162 -0.0724  0.4914
 2645TIP3   OH229425   3.842   3.318  12.518  0.4107 -0.4017 -0.1942
 2645TIP3    H129426   3.928   3.354  12.497  0.0449 -0.8756 -2.6822
 2645TIP3    H229427   3.860   3.230  12.551  0.8231 -1.0861 -2.1749
 2646TIP3   OH229428   2.776   4.125  10.428  0.2916 -0.3668 -0.5595
 2646TIP3    H129429   2.755   4.187  10.498 -3.0689  0.4406 -2.1794
 2646TIP3    H229430   2.839   4.172  10.373 -0.5888  0.8224 -0.5882
 2647TIP3   OH229431   5.739   2.275  16.852  0.3534 -0.4854 -0.2062
 2647TIP3    H129432   5.764   2.242  16.938  3.2283  2.4019  0.1605
 2647TIP3    H229433   5.694   2.358  16.870 -1.6199 -1.2634 -1.3781
 2648TIP3   OH229434   1.436   4.360   1.365 -0.3321 -0.5541 -0.1123
 2648TIP3    H129435   1.416   4.329   1.277 -0.9548  0.9271 -0.5058
 2648TIP3    H229436   1.383   4.439   1.375  0.7754  0.0532  1.0841
 2649TIP3   OH229437   4.095   3.851   4.578  0.4231  0.1584 -0.2787
 2649TIP3    H129438   4.098   3.773   4.522  2.0983  0.1277 -0.1740
 2649TIP3    H229439   4.085   3.816   4.667 -1.3407  0.1731 -0.4593
 2650TIP3   OH229440   4.655   2.904  13.323  0.4604 -0.3109 -0.0631
 2650TIP3    H129441   4.588   2.836  13.325  0.4224 -0.3897 -2.5060
 2650TIP3    H229442   4.735   2.860  13.351  0.7218 -1.7427 -2.9012
 2651TIP3   OH229443   3.014   5.616   2.305  0.9429 -0.2420 -0.3278
 2651TIP3    H129444   2.940   5.556   2.294 -0.9208  1.9405 -0.0451
 2651TIP3    H229445   3.050   5.625   2.217  2.6639 -3.4645 -0.0327
 2652TIP3   OH229446   6.468   4.952  14.528 -0.2068  0.4766  0.0069
 2652TIP3    H129447   6.536   4.900  14.486  0.5713  0.8186  0.8149
 2652TIP3    H229448   6.489   5.042  14.506  0.5940  0.7057  1.6589
 2653TIP3   OH229449   0.218   3.391   1.028  0.0814 -0.1699 -0.1242
 2653TIP3    H129450   0.152   3.340   1.076  1.9139 -2.5815 -0.0536
 2653TIP3    H229451   0.176   3.413   0.945 -2.0578  1.4121  1.3438
 2654TIP3   OH229452   4.996   5.074   1.520 -0.4385 -0.1483  0.4091
 2654TIP3    H129453   4.915   5.103   1.563 -0.5892 -0.6077  0.4321
 2654TIP3    H229454   5.034   5.010   1.580 -0.4323 -0.4791  0.0483
 2655TIP3   OH229455   6.364   1.745   2.345  0.5779  0.8444 -0.2451
 2655TIP3    H129456   6.292   1.762   2.406  1.1926  2.4609  0.0700
 2655TIP3    H229457   6.358   1.817   2.282  0.2786 -0.5213 -1.7935
 2656TIP3   OH229458   4.104   3.038   0.043 -0.3291 -0.2809  0.5010
 2656TIP3    H129459   4.160   3.041  -0.034 -0.4079  0.6541  0.4780
 2656TIP3    H229460   4.105   2.946   0.070  0.4769 -0.4313 -0.0351
 2657TIP3   OH229461   5.934   0.922   5.567  0.7141 -0.0921  0.2586
 2657TIP3    H129462   5.896   0.969   5.492  1.0841 -0.7260 -0.3295
 2657TIP3    H229463   6.013   0.882   5.532  0.8414 -0.4590  0.9765
 2658TIP3   OH229464   6.160   2.925   5.159 -0.1518 -1.0028 -0.2080
 2658TIP3    H129465   6.216   2.848   5.167  0.0349 -0.7807  0.6130
 2658TIP3    H229466   6.120   2.917   5.072  0.2867 -1.7402 -0.3399
 2659TIP3   OH229467   6.173   2.563   3.620  0.0692  0.3346  0.4408
 2659TIP3    H129468   6.257   2.600   3.647 -0.4798  3.2888 -1.6364
 2659TIP3    H229469   6.195   2.509   3.544  0.1595  0.8315  0.1087
 2660TIP3   OH229470   0.827   0.601   3.830 -0.7805  0.0233 -0.1259
 2660TIP3    H129471   0.794   0.521   3.872  0.6627  0.1055  1.1916
 2660TIP3    H229472   0.902   0.572   3.778  0.0458  0.5750  0.7378
 2661TIP3   OH229473   2.641   5.105   0.766  0.5395  0.5746 -0.1969
 2661TIP3    H129474   2.646   5.113   0.862 -0.4066 -1.4854  0.0438
 2661TIP3    H229475   2.548   5.090   0.749  0.7754  0.5073 -1.4109
 2662TIP3   OH229476   0.303   3.277   3.115  0.4189 -0.1329 -0.2396
 2662TIP3    H129477   0.330   3.368   3.106  2.1805 -0.5473  0.6624
 2662TIP3    H229478   0.282   3.267   3.208  2.3686 -1.1868  0.1230
 2663TIP3   OH229479   6.043   5.026  14.342 -0.9473  0.3218 -0.3759
 2663TIP3    H129480   5.991   5.100  14.309 -1.8504 -0.4684 -0.7401
 2663TIP3    H229481   5.978   4.962  14.371 -0.1722 -0.6685 -0.8079
 2664TIP3   OH229482   1.407   0.375   5.066  0.2142  0.0545 -0.1704
 2664TIP3    H129483   1.492   0.334   5.052 -0.5300 -1.2893 -0.8310
 2664TIP3    H229484   1.371   0.330   5.142 -0.3036 -0.0405 -0.4678
 2665TIP3   OH229485   4.967   4.059   0.276  0.0071 -0.3406  0.4766
 2665TIP3    H129486   5.049   4.104   0.297  0.4223 -0.1076 -1.6061
 2665TIP3    H229487   4.968   4.049   0.181 -2.4706 -0.1698  0.3953
 2666TIP3   OH229488   1.568   5.099   2.297 -0.0744 -0.5550  0.5629
 2666TIP3    H129489   1.574   5.063   2.208  0.8174  1.5305 -0.2543
 2666TIP3    H229490   1.481   5.073   2.327 -0.4704 -1.1324 -0.9999
 2667TIP3   OH229491   2.787   6.735  17.026  0.1654 -0.0465 -0.6126
 2667TIP3    H129492   2.788   6.688  17.109  0.2702 -2.3028 -1.8286
 2667TIP3    H229493   2.879   6.749  17.004  0.1168  1.8029  0.3110
 2668TIP3   OH229494   3.689   2.120  15.502 -0.6291  0.2273 -0.0428
 2668TIP3    H129495   3.733   2.038  15.525 -0.1242  0.2458 -0.9163
 2668TIP3    H229496   3.690   2.121  15.406 -0.7517  1.1973 -0.0353
 2669TIP3   OH229497   0.789   2.560   4.935 -0.2567 -0.2017  0.0056
 2669TIP3    H129498   0.874   2.599   4.915 -0.3341 -0.1772 -0.2676
 2669TIP3    H229499   0.795   2.537   5.028  0.3692 -0.9992 -0.2247
 2670TIP3   OH229500   5.717   4.169  15.340  0.2122  0.7021 -0.3538
 2670TIP3    H129501   5.780   4.241  15.339 -0.1859  1.0538 -0.6073
 2670TIP3    H229502   5.769   4.091  15.360  0.5933  1.1078  0.2407
 2671TIP3   OH229503   5.786   0.236   2.407 -0.2089 -0.7676  0.5113
 2671TIP3    H129504   5.771   0.307   2.469  1.6183  0.0656  0.0437
 2671TIP3    H229505   5.766   0.273   2.321 -2.7378 -1.9215  0.5823
 2672TIP3   OH229506   0.957   4.003  11.451 -0.6442  0.5806  0.5472
 2672TIP3    H129507   0.872   4.002  11.495 -0.4203  1.9676  1.0448
 2672TIP3    H229508   0.959   3.922  11.400 -2.2358  0.5060  0.5795
 2673TIP3   OH229509   4.898   2.232  11.595 -0.1270 -0.1569  0.0325
 2673TIP3    H129510   4.865   2.150  11.633 -0.2310 -0.2246 -0.1983
 2673TIP3    H229511   4.985   2.242  11.632 -0.9965  0.8387  1.8642
 2674TIP3   OH229512   4.978   6.707  14.218  0.2441 -0.1793  0.1131
 2674TIP3    H129513   4.960   6.790  14.262  1.9725  0.7470 -0.9210
 2674TIP3    H229514   4.946   6.719  14.129 -1.0633 -1.2428  0.4107
 2675TIP3   OH229515   0.557   0.946  15.820  0.2331 -0.1558  0.1428
 2675TIP3    H129516   0.541   0.874  15.881  0.0186  0.4748  0.8326
 2675TIP3    H229517   0.617   1.004  15.866  0.7788 -0.1205 -0.5939
 2676TIP3   OH229518   1.033   3.943  12.624  0.6734 -0.4054  0.2295
 2676TIP3    H129519   0.965   3.963  12.688  0.1259  1.1945 -0.8471
 2676TIP3    H229520   0.985   3.919  12.545  1.3560  0.4840 -0.4569
 2677TIP3   OH229521   5.591   5.110  12.991  0.3588 -0.1478  0.2372
 2677TIP3    H129522   5.528   5.153  13.050  0.1469 -0.6806  0.3978
 2677TIP3    H229523   5.675   5.121  13.035  0.1119 -1.1256  0.9720
 2678TIP3   OH229524   5.063   0.961  15.776  0.2221  0.7952 -0.2217
 2678TIP3    H129525   5.134   0.974  15.714  0.0489  0.6791 -0.4445
 2678TIP3    H229526   5.107   0.942  15.859  0.4561  1.1740 -0.2545
 2679TIP3   OH229527   3.978   3.561  13.198  0.0590  0.3579  0.4163
 2679TIP3    H129528   3.949   3.506  13.125  0.2502 -0.6593  1.1060
 2679TIP3    H229529   3.917   3.635  13.197  0.7342  0.9292 -1.4655
 2680TIP3   OH229530   1.229   3.162   0.141  0.1887  0.2365  0.3390
 2680TIP3    H129531   1.306   3.173   0.085 -0.4662  2.1696 -0.2272
 2680TIP3    H229532   1.155   3.177   0.083 -0.5430  0.8795  1.4200
 2681TIP3   OH229533   0.033   4.375  16.101  0.3515 -0.6282 -0.3277
 2681TIP3    H129534  -0.047   4.375  16.048  0.2389 -0.0534 -0.1578
 2681TIP3    H229535   0.041   4.285  16.131 -1.8407 -0.1048  2.0614
 2682TIP3   OH229536   3.377   3.825  15.503  0.2450 -0.6514 -0.2315
 2682TIP3    H129537   3.294   3.848  15.462  1.5589  3.7020 -0.6997
 2682TIP3    H229538   3.425   3.777  15.436 -0.1866  0.6966 -1.5326
 2683TIP3   OH229539   5.837   4.592  13.062  0.0104 -0.0021  0.1160
 2683TIP3    H129540   5.882   4.547  12.990 -3.0059 -0.2455 -1.6703
 2683TIP3    H229541   5.885   4.673  13.074  0.6140 -0.0206 -2.1021
 2684TIP3   OH229542   5.661   0.827   0.781 -0.0723  0.2687 -0.2453
 2684TIP3    H129543   5.566   0.830   0.764 -0.0550  3.7797 -0.0733
 2684TIP3    H229544   5.700   0.813   0.694 -0.6838  1.2409 -0.6972
 2685TIP3   OH229545   0.258   5.142   4.188 -0.1164  0.4352 -0.1201
 2685TIP3    H129546   0.286   5.133   4.097  0.7868 -1.5578  0.3299
 2685TIP3    H229547   0.332   5.182   4.232  0.1668 -0.3451  0.1118
 2686TIP3   OH229548   5.828   6.779  10.803 -0.0564  0.0283  0.3984
 2686TIP3    H129549   5.828   6.779  10.899  0.2294 -2.5183  0.4188
 2686TIP3    H229550   5.735   6.786  10.779 -0.0831  1.3208  0.8272
 2687TIP3   OH229551   6.637   5.947  15.926 -0.4533 -0.3334  0.2442
 2687TIP3    H129552   6.657   5.925  16.016 -0.9029  1.8753  0.9289
 2687TIP3    H229553   6.718   5.930  15.878 -0.4514 -2.2630  0.9140
 2688TIP3   OH229554   5.361   2.304  14.935 -0.1378  0.5758 -0.1897
 2688TIP3    H129555   5.308   2.379  14.961  0.2079  0.2425  1.5684
 2688TIP3    H229556   5.451   2.332  14.951  0.0080 -0.1006  0.2237
 2689TIP3   OH229557   3.383   2.135  14.827 -0.7115  0.3533 -0.2000
 2689TIP3    H129558   3.400   2.181  14.745  0.5075  2.0182  0.9575
 2689TIP3    H229559   3.458   2.156  14.882 -3.0352  1.9512  2.4991
 2690TIP3   OH229560   5.897   1.912   5.003  0.2674  0.0288 -0.3364
 2690TIP3    H129561   5.833   1.956   5.059 -0.4160  1.4352 -2.2023
 2690TIP3    H229562   5.938   1.848   5.061 -1.2590  0.6290  1.4723
 2691TIP3   OH229563   3.922   6.796   1.160  0.0274 -0.1632 -0.2999
 2691TIP3    H129564   3.835   6.758   1.156 -0.6911  1.4526 -0.6916
 2691TIP3    H229565   3.938   6.810   1.254 -0.5584  0.4624 -0.2920
 2692TIP3   OH229566   2.128   5.398   3.769 -0.2126 -0.1503  0.4115
 2692TIP3    H129567   2.101   5.489   3.774 -0.6023 -0.2875  0.8599
 2692TIP3    H229568   2.193   5.387   3.839 -0.8528 -0.4469  0.9637
 2693TIP3   OH229569   3.264   1.270  13.816 -0.3828 -0.2439  0.2226
 2693TIP3    H129570   3.254   1.181  13.783 -0.1365  0.3866 -1.5940
 2693TIP3    H229571   3.341   1.305  13.770 -2.0555  1.8081 -1.1404
 2694TIP3   OH229572   3.030   3.751  15.110 -0.6196 -0.2426 -0.1285
 2694TIP3    H129573   2.982   3.694  15.169 -0.4694  0.0867  0.3191
 2694TIP3    H229574   2.969   3.770  15.039 -1.1125  0.0888  0.3814
 2695TIP3   OH229575   3.705   5.449   1.068 -0.0809 -1.0022 -0.5536
 2695TIP3    H129576   3.682   5.529   1.115 -1.0268  0.1821 -2.9678
 2695TIP3    H229577   3.654   5.381   1.112 -0.8794  0.0618  0.1992
 2696TIP3   OH229578   0.803   3.198   5.402 -0.3117  0.2938  0.3121
 2696TIP3    H129579   0.726   3.245   5.370 -2.2065 -2.0826  1.2319
 2696TIP3    H229580   0.850   3.262   5.456 -1.9387  1.6197  0.1710
 2697TIP3   OH229581   3.506   2.675  13.832 -0.6377 -0.1441 -0.3089
 2697TIP3    H129582   3.538   2.694  13.920 -0.7771  3.1503 -0.9154
 2697TIP3    H229583   3.583   2.641  13.786 -0.3776 -1.1599  0.8323
 2698TIP3   OH229584   1.231   0.806  17.189 -0.2206  0.4556 -0.1152
 2698TIP3    H129585   1.211   0.871  17.257  0.1952 -0.2791  0.7166
 2698TIP3    H229586   1.214   0.852  17.106 -0.1653  1.5449  0.4683
 2699TIP3   OH229587   2.370   1.684  13.923 -0.2528  0.1519 -0.1701
 2699TIP3    H129588   2.368   1.655  13.832 -2.7044  0.1077 -0.1382
 2699TIP3    H229589   2.462   1.676  13.949  0.5369  0.4817 -2.7279
 2700TIP3   OH229590   2.905   3.850   3.897  0.0064 -0.0816 -0.4884
 2700TIP3    H129591   2.963   3.853   3.973  1.5216 -2.0234 -1.5354
 2700TIP3    H229592   2.819   3.874   3.932  1.2925  2.3806  1.1778
 2701TIP3   OH229593   3.641   0.398  13.652  0.5521 -0.2591 -0.3049
 2701TIP3    H129594   3.647   0.329  13.586 -0.7556  0.6635 -1.4012
 2701TIP3    H229595   3.547   0.413  13.664  0.8107  2.1453 -0.9529
 2702TIP3   OH229596   2.564   5.166  10.870  0.0415 -0.1007 -0.3386
 2702TIP3    H129597   2.634   5.169  10.805  0.1530  2.8162 -0.1315
 2702TIP3    H229598   2.483   5.171  10.818 -0.0048 -1.5915 -0.4510
 2703TIP3   OH229599   6.310   6.682  13.622 -0.5517  0.1088  0.1530
 2703TIP3    H129600   6.354   6.748  13.570  0.7184  0.1522  1.2426
 2703TIP3    H229601   6.220   6.681  13.590 -1.0869  3.6746  1.3687
 2704TIP3   OH229602   1.934   5.464   6.050  0.0894 -0.3794  0.1064
 2704TIP3    H129603   1.918   5.378   6.089 -2.0850 -0.3856 -0.7223
 2704TIP3    H229604   1.852   5.485   6.005  1.4841  1.0173 -1.8223
 2705TIP3   OH229605   3.879   0.946  12.860  0.2756  0.6889 -0.4433
 2705TIP3    H129606   3.829   0.868  12.837  0.8199  0.6028 -1.3616
 2705TIP3    H229607   3.954   0.945  12.800  1.3830  0.8101  0.9181
 2706TIP3   OH229608   4.763   1.571  16.110 -0.0620 -0.3042 -0.1244
 2706TIP3    H129609   4.826   1.643  16.110 -0.3719 -0.0257  0.6992
 2706TIP3    H229610   4.684   1.607  16.071 -0.0724 -0.3261 -0.1231
 2707TIP3   OH229611   1.261   6.135  12.377  0.8941  0.4256 -0.0988
 2707TIP3    H129612   1.319   6.087  12.436 -1.1235  0.0552  1.6384
 2707TIP3    H229613   1.252   6.078  12.301  3.0004  0.6171 -0.5306
 2708TIP3   OH229614   4.273   5.234  13.747 -0.1162  0.6214 -0.0998
 2708TIP3    H129615   4.349   5.291  13.736 -0.1152  1.0819  2.0242
 2708TIP3    H229616   4.310   5.152  13.780 -0.5348  0.9086  1.1145
 2709TIP3   OH229617   0.552   4.982   3.419  0.0572  0.7135  0.7490
 2709TIP3    H129618   0.515   4.929   3.490  0.4968  1.0467  1.2243
 2709TIP3    H229619   0.553   4.923   3.343  0.5404  0.0433  1.2740
 2710TIP3   OH229620   4.220   1.126  11.731  0.0154  0.2010 -0.3136
 2710TIP3    H129621   4.282   1.079  11.676 -0.1998  1.8343 -1.9862
 2710TIP3    H229622   4.268   1.204  11.761 -0.8639  0.9227 -0.7482
 2711TIP3   OH229623   5.779   5.640  14.385 -0.0171 -0.4056  0.1485
 2711TIP3    H129624   5.709   5.658  14.448  0.3620  0.6942  0.2644
 2711TIP3    H229625   5.860   5.659  14.433  0.3118 -0.5302 -0.3557
 2712TIP3   OH229626   2.939   4.860  14.477  0.8576  0.1581 -0.5137
 2712TIP3    H129627   2.935   4.954  14.495  0.4342  0.1026 -0.3231
 2712TIP3    H229628   3.021   4.849  14.429  1.8859  0.3434  1.1455
 2713TIP3   OH229629   3.880   6.355   2.401 -0.2261  0.3329 -0.2435
 2713TIP3    H129630   3.907   6.278   2.350 -0.8430  0.0402 -0.1309
 2713TIP3    H229631   3.862   6.422   2.336  0.3031  0.3823 -0.3444
 2714TIP3   OH229632   5.087   4.432   3.289  0.2132 -0.4263  0.2523
 2714TIP3    H129633   5.179   4.432   3.314  0.5115 -3.5767 -0.5556
 2714TIP3    H229634   5.040   4.459   3.368  1.6623 -1.6864  1.5708
 2715TIP3   OH229635   2.572   6.590   6.499  0.1203  0.0533  0.5492
 2715TIP3    H129636   2.507   6.627   6.558  0.8363  1.2158  0.6299
 2715TIP3    H229637   2.522   6.543   6.433 -0.6939 -1.1406  2.0135
 2716TIP3   OH229638   2.857   1.066   0.635  0.2051 -0.7784  0.3379
 2716TIP3    H129639   2.887   1.110   0.556 -0.2243  1.4665  1.3778
 2716TIP3    H229640   2.794   1.000   0.604  0.0203  0.0944 -1.1643
 2717TIP3   OH229641   1.853   0.695  14.962  0.0612 -0.2505  0.1249
 2717TIP3    H129642   1.855   0.654  14.876  0.5060  0.1934 -0.0843
 2717TIP3    H229643   1.945   0.712  14.983  0.0639 -1.6621  1.3235
 2718TIP3   OH229644   3.097   1.262  15.606 -0.6473  0.0547 -0.3330
 2718TIP3    H129645   3.177   1.234  15.562 -0.5296 -1.0277  0.5496
 2718TIP3    H229646   3.093   1.356  15.591  1.0299  0.1859 -0.0123
 2719TIP3   OH229647   0.067   6.076   6.007  0.0907 -0.3869 -0.1166
 2719TIP3    H129648   0.014   5.997   6.021  0.2992 -0.3269  1.0644
 2719TIP3    H229649   0.156   6.043   5.996 -0.0902 -0.4456 -1.5436
 2720TIP3   OH229650   1.564   0.186  14.375 -0.1048 -0.2105 -0.1375
 2720TIP3    H129651   1.644   0.159  14.329  1.4598  1.6173  1.4177
 2720TIP3    H229652   1.589   0.184  14.467 -2.3507 -1.1213  0.4587
 2721TIP3   OH229653   6.058   2.272   3.438 -0.5098 -0.2853  0.0238
 2721TIP3    H129654   6.150   2.296   3.430 -1.2314  2.5179 -0.6779
 2721TIP3    H229655   6.046   2.199   3.378  1.2685 -0.7927  0.2619
 2722TIP3   OH229656   4.118   3.368  12.214 -0.1740 -0.2169  0.5360
 2722TIP3    H129657   4.066   3.406  12.143  0.8369 -1.4119 -0.8662
 2722TIP3    H229658   4.110   3.273  12.201  2.9293 -0.4145 -0.1319
 2723TIP3   OH229659   1.346   0.753   2.420  0.2574  0.6367  0.3129
 2723TIP3    H129660   1.404   0.679   2.403 -0.9342 -0.7988  2.3459
 2723TIP3    H229661   1.402   0.818   2.463  0.6549 -0.2184  1.0979
 2724TIP3   OH229662   4.679   1.340  12.218 -0.0092  0.0622 -0.4886
 2724TIP3    H129663   4.657   1.433  12.205 -0.8810 -0.2323 -1.2073
 2724TIP3    H229664   4.609   1.307  12.275  0.0366 -0.2615 -0.6191
 2725TIP3   OH229665   1.802   5.609  12.778 -0.5559  1.0684  0.2149
 2725TIP3    H129666   1.793   5.698  12.812  0.2129  0.1386  3.0472
 2725TIP3    H229667   1.774   5.553  12.850  2.9773 -1.0830  0.0457
 2726TIP3   OH229668   6.570   2.911  10.385  0.4185 -0.2284  0.1298
 2726TIP3    H129669   6.631   2.982  10.404  0.2289  0.0136 -0.1665
 2726TIP3    H229670   6.487   2.955  10.365  0.0081 -0.5729  1.0274
 2727TIP3   OH229671   1.408   2.183   5.406 -0.1038  0.5096  0.4783
 2727TIP3    H129672   1.434   2.254   5.465 -0.7149 -1.0077  2.6294
 2727TIP3    H229673   1.314   2.195   5.394 -0.1400  0.2893  0.5352
 2728TIP3   OH229674   5.937   5.163  17.287  0.1713 -0.2339  0.0241
 2728TIP3    H129675   5.924   5.254  17.260  0.3149 -0.0112  0.7003
 2728TIP3    H229676   5.954   5.168  17.381 -0.9141 -1.0533  0.2831
 2729TIP3   OH229677   5.888   4.131   1.492 -0.5846  0.0214  0.3467
 2729TIP3    H129678   5.868   4.075   1.567  0.7896 -0.7159  0.1851
 2729TIP3    H229679   5.832   4.099   1.422  1.0417 -1.9572 -0.0897
 2730TIP3   OH229680   5.702   2.401  10.362 -0.0945  0.1394 -0.4046
 2730TIP3    H129681   5.608   2.385  10.360  0.0273 -0.5198 -1.9111
 2730TIP3    H229682   5.738   2.328  10.413 -0.2809 -0.3428 -0.9532
 2731TIP3   OH229683   5.910   1.273   0.393 -0.4247 -0.2384 -0.1415
 2731TIP3    H129684   5.866   1.189   0.406 -0.5396 -0.3547 -1.2543
 2731TIP3    H229685   5.840   1.333   0.365 -0.0504 -0.1881 -0.9830
 2732TIP3   OH229686   2.936   5.033  10.830  0.2159  0.1579 -0.0606
 2732TIP3    H129687   3.024   5.069  10.822 -0.3902  1.6235 -0.3575
 2732TIP3    H229688   2.948   4.938  10.825  1.8202  0.3225  0.3940
 2733TIP3   OH229689   5.212   3.862   6.199  0.2941 -0.0174  0.0867
 2733TIP3    H129690   5.295   3.816   6.208  0.5450  0.2922 -0.6424
 2733TIP3    H229691   5.205   3.914   6.280  0.9906  0.2556 -0.0258
 2734TIP3   OH229692   1.443   4.083  13.675 -0.3520 -0.3178 -0.3802
 2734TIP3    H129693   1.426   4.059  13.584  1.1418  1.1500 -1.0745
 2734TIP3    H229694   1.536   4.066  13.688 -0.2366  0.8836  0.4319
 2735TIP3   OH229695   2.895   2.675   4.712 -0.1046  0.7588  0.3983
 2735TIP3    H129696   2.933   2.637   4.791  3.1077  0.5874 -1.1462
 2735TIP3    H229697   2.859   2.759   4.740 -1.5780 -0.5636  2.5877
 2736TIP3   OH229698   3.899   2.102  16.058  0.4677 -0.3571  0.7327
 2736TIP3    H129699   3.950   2.108  16.139  2.4661 -2.3739 -0.3332
 2736TIP3    H229700   3.809   2.087  16.088  0.9948  0.0915  2.5991
 2737TIP3   OH229701   6.020   4.308  12.443 -0.0672  0.2568  0.3169
 2737TIP3    H129702   6.094   4.369  12.441  0.6493 -0.4570  3.1323
 2737TIP3    H229703   5.988   4.312  12.533 -1.5159 -1.7465 -0.0738
 2738TIP3   OH229704   4.260   5.788  11.011 -0.0273  0.5633  0.1398
 2738TIP3    H129705   4.338   5.793  10.956  0.6868  0.9169  1.1507
 2738TIP3    H229706   4.194   5.747  10.957  1.3324 -1.1885 -0.2185
 2739TIP3   OH229707   1.260   2.997  14.902  0.1541 -0.0805 -0.7030
 2739TIP3    H129708   1.294   2.908  14.892 -0.2461 -0.4683  1.1619
 2739TIP3    H229709   1.171   2.993  14.867  0.2309 -0.3552 -0.8711
 2740TIP3   OH229710   6.763   5.034   5.155  0.2799 -0.9871 -0.6842
 2740TIP3    H129711   6.780   4.952   5.109 -0.3018 -1.5489  0.0973
 2740TIP3    H229712   6.752   5.008   5.247  0.2096 -0.0228 -0.4182
 2741TIP3   OH229713   3.214   0.095  12.036  0.6099  0.0291 -0.0136
 2741TIP3    H129714   3.125   0.109  12.002  0.2121 -0.0840  0.9596
 2741TIP3    H229715   3.249   0.183  12.047  0.1618  0.1120  0.7778
 2742TIP3   OH229716   0.312   5.261   0.354  0.1662 -0.0194  0.5026
 2742TIP3    H129717   0.303   5.166   0.350  1.0566 -0.0576 -1.1345
 2742TIP3    H229718   0.231   5.294   0.313  1.4271 -0.1556 -2.2028
 2743TIP3   OH229719   4.849   1.753   5.177 -0.5997 -0.9527  0.5290
 2743TIP3    H129720   4.810   1.697   5.109 -1.6641  0.1702  0.1989
 2743TIP3    H229721   4.819   1.714   5.259 -0.7344 -1.2967  0.3204
 2744TIP3   OH229722   3.894   2.885  17.242 -0.1577 -0.0524  0.4607
 2744TIP3    H129723   3.909   2.838  17.324  1.3904  0.1375  0.3051
 2744TIP3    H229724   3.923   2.975  17.261 -0.3685  0.1354 -0.1136
 2745TIP3   OH229725   0.236   5.527   2.055  0.1287 -0.2962  0.3097
 2745TIP3    H129726   0.329   5.549   2.060  0.9602 -3.2158 -1.2330
 2745TIP3    H229727   0.214   5.539   1.963 -0.5539 -1.3965  0.3263
 2746TIP3   OH229728   2.691   6.624  16.781 -0.3536  0.7446  0.5329
 2746TIP3    H129729   2.700   6.664  16.867 -1.4347  1.1949  0.4520
 2746TIP3    H229730   2.750   6.674  16.724  1.4464 -0.4689  1.2957
 2747TIP3   OH229731   1.724   0.518   5.928  0.7411 -0.3058 -0.1581
 2747TIP3    H129732   1.815   0.535   5.952  0.4796 -0.7492  1.1543
 2747TIP3    H229733   1.681   0.495   6.010 -0.4700 -0.4945 -0.8350
 2748TIP3   OH229734   0.399   1.042  11.233  0.0335  0.0120  0.0569
 2748TIP3    H129735   0.401   1.134  11.260  0.9919  0.6281 -2.0145
 2748TIP3    H229736   0.464   1.000  11.290  0.7682  0.9448 -0.0703
 2749TIP3   OH229737   1.726   1.053   5.711 -0.1161 -0.4920 -0.2344
 2749TIP3    H129738   1.664   1.019   5.775 -0.2178  1.4690  0.7705
 2749TIP3    H229739   1.673   1.108   5.653  0.4289  0.0701 -0.2110
 2750TIP3   OH229740   4.253   5.165  11.464 -0.3941 -0.2089 -0.5934
 2750TIP3    H129741   4.221   5.201  11.381 -1.6103  3.4989  1.3634
 2750TIP3    H229742   4.177   5.121  11.503  0.0253 -1.4513 -1.1453
 2751TIP3   OH229743   1.721   1.128  14.248  0.3352 -0.9925  0.0394
 2751TIP3    H129744   1.748   1.099  14.161  1.2236  2.0697 -0.7600
 2751TIP3    H229745   1.660   1.200  14.233  1.4883  0.4465  1.9201
 2752TIP3   OH229746   0.165   2.769   2.785  0.4248 -0.0305  0.5355
 2752TIP3    H129747   0.078   2.744   2.817  1.1357 -2.3222  0.7993
 2752TIP3    H229748   0.223   2.752   2.859  1.5381 -1.6983 -0.6735
 2753TIP3   OH229749   6.041   5.452  17.066  0.0018  0.1443  0.0498
 2753TIP3    H129750   6.119   5.483  17.112  0.1433 -1.5850  1.0038
 2753TIP3    H229751   5.968   5.474  17.125 -0.0175 -0.2454  0.1708
 2754TIP3   OH229752   2.323   2.937  15.842  0.3529  0.1299 -0.0156
 2754TIP3    H129753   2.332   2.966  15.751 -0.3546 -0.1932 -0.1912
 2754TIP3    H229754   2.390   2.986  15.889  1.2061 -0.2202 -0.8289
 2755TIP3   OH229755   1.802   1.474  12.203 -0.5360  0.3398  0.6309
 2755TIP3    H129756   1.849   1.393  12.223  0.9225  1.0281  0.0707
 2755TIP3    H229757   1.710   1.448  12.198 -0.1837 -1.0917  1.4463
 2756TIP3   OH229758   4.469   3.842   3.701 -0.0343  0.1078  0.1962
 2756TIP3    H129759   4.398   3.854   3.765 -0.5809  1.4503 -0.6407
 2756TIP3    H229760   4.530   3.912   3.721  0.8157 -0.7260  0.5656
 2757TIP3   OH229761   4.370   4.979   6.437  1.1268  0.0406  0.1568
 2757TIP3    H129762   4.361   4.938   6.522 -1.1768  1.2174  0.5240
 2757TIP3    H229763   4.285   4.965   6.394  1.0856  2.3564 -0.5990
 2758TIP3   OH229764   4.733   1.521  15.588  0.4540 -0.0140  0.5725
 2758TIP3    H129765   4.759   1.479  15.669 -0.0558 -2.0468 -0.2908
 2758TIP3    H229766   4.812   1.567  15.559  0.7399  0.4243  2.0083
 2759TIP3   OH229767   0.330   4.904   5.448 -0.1289 -0.2624  0.2451
 2759TIP3    H129768   0.381   4.981   5.421 -0.9185  0.1992  0.0494
 2759TIP3    H229769   0.317   4.854   5.368 -1.4606  0.5043 -0.0254
 2760TIP3   OH229770   1.562   0.155  15.262 -0.2859 -0.2316 -0.3230
 2760TIP3    H129771   1.516   0.073  15.279 -1.8044  0.5749 -0.4233
 2760TIP3    H229772   1.548   0.207  15.340  0.5769 -0.0105 -0.3077
 2761TIP3   OH229773   1.541   1.579   3.213 -0.3816 -0.3727 -0.6342
 2761TIP3    H129774   1.586   1.503   3.251 -1.0852  0.3097  1.6183
 2761TIP3    H229775   1.571   1.653   3.266 -2.9550  0.3109 -0.0685
 2762TIP3   OH229776   5.160   6.502  15.044  0.1481  0.3811  0.1301
 2762TIP3    H129777   5.125   6.589  15.063  0.1339  0.2991  0.4871
 2762TIP3    H229778   5.194   6.472  15.128  1.6515  0.7286 -0.3338
 2763TIP3   OH229779   5.959   1.047  15.605  0.1840 -0.0050 -0.0680
 2763TIP3    H129780   5.966   1.139  15.582 -0.7847  0.1020  0.0674
 2763TIP3    H229781   5.890   1.043  15.670 -1.6729 -1.1783 -2.0510
 2764TIP3   OH229782   6.289   5.781  15.444 -0.3067 -0.4014 -0.2423
 2764TIP3    H129783   6.382   5.781  15.421  0.0986  1.2464  1.2713
 2764TIP3    H229784   6.287   5.749  15.534 -1.2621 -0.9343 -0.4551
 2765TIP3   OH229785   1.861   4.645  16.094  0.0807  0.1297  0.0871
 2765TIP3    H129786   1.808   4.597  16.158  2.2784 -0.9145  1.1955
 2765TIP3    H229787   1.862   4.735  16.128 -0.3966  0.0074  0.4409
 2766TIP3   OH229788   1.232   1.805  13.158  0.0760 -0.6065  0.2320
 2766TIP3    H129789   1.305   1.855  13.123  0.8803 -1.2041  1.0474
 2766TIP3    H229790   1.154   1.847  13.119  0.8651 -0.3988 -1.1656
 2767TIP3   OH229791   4.306   4.223   4.724  0.7397 -0.2588 -0.3472
 2767TIP3    H129792   4.284   4.313   4.700 -2.3232 -1.0352 -0.6535
 2767TIP3    H229793   4.306   4.176   4.640 -1.9456 -1.3633  0.2355
 2768TIP3   OH229794   2.571   1.570  13.314 -0.7011 -0.0740  0.0734
 2768TIP3    H129795   2.585   1.636  13.245  0.2115  0.6278  0.9203
 2768TIP3    H229796   2.564   1.487  13.266 -1.0976  0.5272 -0.9440
 2769TIP3   OH229797   0.617   1.759  16.272  0.9068  0.1838  0.0765
 2769TIP3    H129798   0.651   1.841  16.307  2.3420 -1.5262  2.9370
 2769TIP3    H229799   0.682   1.693  16.297 -0.1630 -1.8303 -2.2226
 2770TIP3   OH229800   2.580   5.424   4.369  0.3073 -0.1871 -0.4036
 2770TIP3    H129801   2.550   5.334   4.382  0.7134 -0.5892 -2.0493
 2770TIP3    H229802   2.616   5.424   4.280  1.5770  1.2550  0.0921
 2771TIP3   OH229803   4.614   4.186   1.015  0.0979 -0.0521 -0.1284
 2771TIP3    H129804   4.575   4.269   0.987 -0.4401 -0.2298  0.0909
 2771TIP3    H229805   4.707   4.206   1.025 -0.1615  0.7455  0.7569
 2772TIP3   OH229806   5.293   0.027   2.945 -0.4727 -0.2402 -0.1997
 2772TIP3    H129807   5.254   0.036   3.032 -0.1128 -0.1020 -0.0535
 2772TIP3    H229808   5.239  -0.039   2.902 -0.8392 -0.0881  0.0227
 2773TIP3   OH229809   6.556   4.235   3.228  0.1591  0.3416 -0.0247
 2773TIP3    H129810   6.591   4.301   3.169 -0.1073  1.0081  0.5573
 2773TIP3    H229811   6.470   4.268   3.253  0.3289  0.1289  0.8445
 2774TIP3   OH229812   4.255   5.273   3.869 -0.0208 -0.4829 -0.0667
 2774TIP3    H129813   4.193   5.202   3.889 -0.4020 -0.5818 -1.5514
 2774TIP3    H229814   4.334   5.250   3.918 -0.1191 -1.9896 -0.5801
 2775TIP3   OH229815   2.951   3.786   4.860 -0.5141  0.0834  0.2196
 2775TIP3    H129816   2.898   3.804   4.937 -1.8886 -1.0603 -0.4525
 2775TIP3    H229817   2.984   3.873   4.833 -2.7570  0.9287  0.1217
 2776TIP3   OH229818   3.202   2.653   0.128 -0.3765  0.2014 -0.2587
 2776TIP3    H129819   3.117   2.609   0.128  0.0158 -0.5584 -0.0060
 2776TIP3    H229820   3.262   2.589   0.165  0.0725  1.2123  0.7866
 2777TIP3   OH229821   5.750   3.071  12.419 -0.1701 -0.9536 -0.5563
 2777TIP3    H129822   5.658   3.072  12.391  0.7515 -1.2937 -3.7831
 2777TIP3    H229823   5.788   3.149  12.379  0.9659 -0.8068  0.7831
 2778TIP3   OH229824   3.598   1.839   1.120 -0.3078  0.2079 -0.0053
 2778TIP3    H129825   3.595   1.854   1.214  0.0605  0.2594 -0.0015
 2778TIP3    H229826   3.527   1.777   1.103  0.7847 -1.2315  0.5694
 2779TIP3   OH229827   4.191   4.238  13.198 -0.4064  0.0010  0.6319
 2779TIP3    H129828   4.131   4.312  13.189 -0.7980 -0.2749  0.9802
 2779TIP3    H229829   4.138   4.169  13.237  0.0266 -0.3825  0.5389
 2780TIP3   OH229830   3.824   1.799   4.407  0.1926  0.3759  0.2478
 2780TIP3    H129831   3.752   1.736   4.410 -0.0556  0.5471 -1.4132
 2780TIP3    H229832   3.782   1.883   4.392  0.6893  0.5715 -0.0822
 2781TIP3   OH229833   2.281   3.829   1.328 -0.4147 -0.0746  0.0142
 2781TIP3    H129834   2.194   3.789   1.332 -1.0856  1.2565 -0.9327
 2781TIP3    H229835   2.274   3.895   1.259  1.6023 -0.5381 -0.6619
 2782TIP3   OH229836   0.390   0.743   2.961 -0.2047  0.0766 -0.2269
 2782TIP3    H129837   0.445   0.821   2.963 -0.8431  0.5235  0.0536
 2782TIP3    H229838   0.364   0.730   3.052 -2.0891  0.9684 -0.6195
 2783TIP3   OH229839   4.783   0.800   1.054 -0.0063 -0.1896 -0.2147
 2783TIP3    H129840   4.871   0.786   1.088  0.2553  1.4243 -0.1488
 2783TIP3    H229841   4.728   0.805   1.131  0.2817  1.4836 -0.0883
 2784TIP3   OH229842   2.804   6.512  15.302 -0.1226 -0.0376 -0.1402
 2784TIP3    H129843   2.820   6.423  15.272 -0.9743 -0.4133  0.5088
 2784TIP3    H229844   2.711   6.514  15.323 -0.2271  1.1722 -0.7144
 2785TIP3   OH229845   2.509   2.805   6.848  0.0303 -1.2025 -0.8709
 2785TIP3    H129846   2.523   2.887   6.801 -1.5911 -0.5094 -0.1888
 2785TIP3    H229847   2.422   2.814   6.886  0.2785 -2.8020  0.1216
 2786TIP3   OH229848   6.252   0.864  14.959  0.2588 -0.4488 -0.2883
 2786TIP3    H129849   6.238   0.789  15.017  0.3545  0.2447  0.6551
 2786TIP3    H229850   6.167   0.878  14.917 -0.5362  0.5832  1.5823
 2787TIP3   OH229851   0.408   6.371  13.853  0.4852 -0.3352  0.1464
 2787TIP3    H129852   0.441   6.453  13.817 -0.4200 -0.8871 -2.0734
 2787TIP3    H229853   0.315   6.386  13.865  0.8302 -0.0487  2.7068
 2788TIP3   OH229854   0.331   3.624   4.598 -0.1381  0.0173 -0.6790
 2788TIP3    H129855   0.345   3.533   4.573  0.4807 -0.6304  1.8100
 2788TIP3    H229856   0.405   3.672   4.560  0.1704 -0.7322 -1.0187
 2789TIP3   OH229857   3.633   1.766   4.681  0.5053  0.2113 -0.2737
 2789TIP3    H129858   3.636   1.733   4.591  2.1545  0.8517 -0.4658
 2789TIP3    H229859   3.705   1.828   4.686 -0.5265  1.3259  1.0592
 2790TIP3   OH229860   6.090   0.658  16.464  0.6593  0.5676 -0.3824
 2790TIP3    H129861   6.063   0.704  16.385  1.0625  1.8183  0.2013
 2790TIP3    H229862   6.046   0.573  16.459 -0.2250  1.0851 -1.3724
 2791TIP3   OH229863   3.764   0.075  16.861 -0.1441  0.4999 -0.5232
 2791TIP3    H129864   3.857   0.087  16.843  0.3333 -0.6260  1.0521
 2791TIP3    H229865   3.743  -0.011  16.826 -0.6372  0.8235 -1.0353
 2792TIP3   OH229866   0.050   5.619   0.525 -0.0988 -0.2738 -0.3600
 2792TIP3    H129867   0.137   5.592   0.555  0.3071  0.9857 -0.3428
 2792TIP3    H229868   0.002   5.639   0.605  0.6528  2.1029 -0.4607
 2793TIP3   OH229869   0.423   2.804  14.162  0.2769  0.1975  0.2537
 2793TIP3    H129870   0.376   2.744  14.104 -0.8669 -1.8013  3.1371
 2793TIP3    H229871   0.477   2.857  14.103 -0.7357 -1.8123 -2.5944
 2794TIP3   OH229872   4.973   6.323   1.669 -0.2866  0.4740 -0.3953
 2794TIP3    H129873   5.027   6.396   1.639 -1.3052  0.1703 -3.1285
 2794TIP3    H229874   5.036   6.252   1.686  0.3727  0.8190 -1.3575
 2795TIP3   OH229875   1.359   6.774   6.937 -0.3365  0.4244  0.8324
 2795TIP3    H129876   1.419   6.712   6.895 -0.6112  1.7188 -1.5873
 2795TIP3    H229877   1.313   6.723   7.003 -0.3183 -1.8760 -0.8855
 2796TIP3   OH229878   6.798   1.898   3.088  0.3233 -0.3963 -0.5120
 2796TIP3    H129879   6.756   1.982   3.100 -1.2007 -1.0985 -0.8406
 2796TIP3    H229880   6.890   1.919   3.069 -0.0129  1.1569 -0.4413
 2797TIP3   OH229881   6.234   1.478  14.114 -0.2899  0.2410 -0.3166
 2797TIP3    H129882   6.210   1.481  14.022  1.0672  0.0630 -0.6802
 2797TIP3    H229883   6.305   1.414  14.119 -2.3696 -2.0420  1.3304
 2798TIP3   OH229884   3.558   5.610   0.881 -0.9327  0.2762 -0.3821
 2798TIP3    H129885   3.624   5.559   0.929 -1.6049 -0.3759 -0.1401
 2798TIP3    H229886   3.603   5.691   0.858 -0.6496  0.6553  1.4649
 2799TIP3   OH229887   0.689   3.951   5.463 -0.4934  0.0792  0.1443
 2799TIP3    H129888   0.640   4.006   5.523  0.8635  1.0727  0.3776
 2799TIP3    H229889   0.774   3.938   5.505 -0.0576 -0.4642 -0.8681
 2800TIP3   OH229890   3.437   3.533   3.423 -0.3689  0.2932 -0.2876
 2800TIP3    H129891   3.426   3.591   3.499 -0.8768  0.4557 -0.4841
 2800TIP3    H229892   3.420   3.446   3.458  0.6414  0.2258  0.0649
 2801TIP3   OH229893   0.576   4.114   4.280  0.1516  0.1299  0.2946
 2801TIP3    H129894   0.546   4.050   4.345 -1.4422  0.3795 -0.1821
 2801TIP3    H229895   0.575   4.066   4.197 -0.0108  0.4637  0.1042
 2802TIP3   OH229896   4.693   2.198   2.886  0.4829  0.0474  0.8000
 2802TIP3    H129897   4.676   2.214   2.979  4.0089  1.1244  1.3387
 2802TIP3    H229898   4.757   2.265   2.861  1.0152 -1.3832 -1.9285
 2803TIP3   OH229899   2.245   2.534   4.495 -0.3886  0.0684  0.1122
 2803TIP3    H129900   2.339   2.547   4.508 -0.4731  0.8928 -0.0921
 2803TIP3    H229901   2.211   2.621   4.475 -1.1311 -0.2984 -0.2413
 2804TIP3   OH229902   0.369   4.439   0.517 -0.0627 -0.3121  0.2130
 2804TIP3    H129903   0.439   4.459   0.580  0.1562 -1.2116  0.2597
 2804TIP3    H229904   0.290   4.433   0.571 -0.4207  1.9806  0.0020
 2805TIP3   OH229905   0.634   6.086   4.596  0.4239  0.2600 -0.1304
 2805TIP3    H129906   0.595   6.041   4.670  2.7017 -1.5310  0.0431
 2805TIP3    H229907   0.559   6.115   4.543 -1.1465 -2.0900  0.7224
 2806TIP3   OH229908   6.472   4.650  15.228  0.3419 -0.2777  0.0439
 2806TIP3    H129909   6.412   4.696  15.287  0.2409  1.1416 -1.1260
 2806TIP3    H229910   6.425   4.648  15.144  0.9677 -1.2544 -0.2953
 2807TIP3   OH229911   3.646   5.451  12.238 -0.3665 -0.0513 -0.1550
 2807TIP3    H129912   3.573   5.499  12.200 -0.2289 -0.3634 -0.8251
 2807TIP3    H229913   3.666   5.383  12.173  0.2062 -0.2613  0.2404
 2808TIP3   OH229914   2.835   1.318   6.017 -0.3331 -0.0768  0.2472
 2808TIP3    H129915   2.842   1.383   6.087 -0.8407 -0.7011  0.8776
 2808TIP3    H229916   2.923   1.315   5.978 -0.0366  0.2264  0.8995
 2809TIP3   OH229917   1.348   5.946  15.282  0.2008  0.1710 -0.3557
 2809TIP3    H129918   1.373   5.883  15.215 -2.4657 -0.9063 -0.3950
 2809TIP3    H229919   1.314   6.021  15.233  0.8959  0.5615 -0.2497
 2810TIP3   OH229920   4.737   5.215  10.907 -0.1767 -0.5453  0.3823
 2810TIP3    H129921   4.766   5.288  10.852 -1.6995 -0.5218 -0.4020
 2810TIP3    H229922   4.737   5.139  10.849 -3.9735 -0.0966 -0.3061
 2811TIP3   OH229923   4.152   0.812  13.915 -0.0809 -0.6512  0.5158
 2811TIP3    H129924   4.214   0.825  13.986  2.1309 -1.2271 -1.2483
 2811TIP3    H229925   4.129   0.719  13.919  0.0844 -0.6951  0.4540
 2812TIP3   OH229926   4.734   4.579  15.911  0.6327 -0.1556 -0.0868
 2812TIP3    H129927   4.758   4.487  15.901  1.8195 -0.0570  1.6322
 2812TIP3    H229928   4.698   4.585  16.000  0.9385  1.1227 -0.0405
 2813TIP3   OH229929   4.260   3.213   3.527 -0.0225 -0.0920 -0.4415
 2813TIP3    H129930   4.308   3.237   3.607 -0.0905  0.7673 -0.6487
 2813TIP3    H229931   4.181   3.169   3.558 -0.4934  1.0418  0.0026
 2814TIP3   OH229932   6.764   1.164  16.215  0.4110  0.2767 -0.1136
 2814TIP3    H129933   6.701   1.199  16.152  1.0063  0.4354 -0.6318
 2814TIP3    H229934   6.790   1.240  16.268 -0.0950  0.1418  0.3247
 2815TIP3   OH229935   0.523   3.223  12.531 -0.1161 -0.1107  0.2209
 2815TIP3    H129936   0.491   3.312  12.516 -1.9349 -1.2588 -2.9790
 2815TIP3    H229937   0.484   3.171  12.461  5.1020 -2.4688 -1.1717
 2816TIP3   OH229938   5.279   6.656   0.739 -0.0815  0.0143 -0.1891
 2816TIP3    H129939   5.292   6.721   0.808 -2.0088 -0.7701  0.9398
 2816TIP3    H229940   5.188   6.627   0.749  0.5031 -2.3087 -1.1456
 2817TIP3   OH229941   1.299   4.095   5.033  0.9603 -0.3209 -0.0387
 2817TIP3    H129942   1.316   4.103   4.939  0.7885  1.3214  0.0669
 2817TIP3    H229943   1.205   4.082   5.039  0.6899  1.5770  0.0117
 2818TIP3   OH229944   6.475   4.831  14.767 -0.2492  0.4248 -0.0546
 2818TIP3    H129945   6.464   4.852  14.674  0.2112 -4.2394 -1.3132
 2818TIP3    H229946   6.569   4.812  14.776 -0.6954 -1.6124  0.7089
 2819TIP3   OH229947   1.886   1.377   0.406  0.3393  0.4316  0.1898
 2819TIP3    H129948   1.916   1.339   0.488  0.2043  0.6914  0.3610
 2819TIP3    H229949   1.841   1.457   0.432  0.4268  0.5916 -0.1486
 2820TIP3   OH229950   5.858   5.892  14.911  0.3243 -0.5723  0.0046
 2820TIP3    H129951   5.817   5.905  14.997  1.2122 -0.0144  0.3459
 2820TIP3    H229952   5.816   5.956  14.854  1.1883  0.4572  0.5124
 2821TIP3   OH229953   1.236   4.308  13.519 -0.2781 -0.1817  0.0275
 2821TIP3    H129954   1.184   4.229  13.505  0.4686 -1.2247  2.8283
 2821TIP3    H229955   1.327   4.278  13.512  0.0087  1.0775 -2.0290
 2822TIP3   OH229956   1.905   0.424  14.142  0.1525 -0.2693  0.0215
 2822TIP3    H129957   1.922   0.400  14.233 -0.0826  2.1703  0.7400
 2822TIP3    H229958   1.951   0.507  14.131  2.9630 -2.0893 -3.0671
 2823TIP3   OH229959   6.116   0.931  12.849  0.3359  0.6599  0.4575
 2823TIP3    H129960   6.096   0.996  12.783 -0.1449 -0.9487 -1.0143
 2823TIP3    H229961   6.200   0.894  12.822 -0.0271 -0.2447  0.5333
 2824TIP3   OH229962   0.458   3.122  14.080  0.5513 -0.1740 -0.1241
 2824TIP3    H129963   0.506   3.090  14.004 -1.6208 -1.1109 -1.1301
 2824TIP3    H229964   0.458   3.217  14.071  0.0675 -0.2930 -1.4352
 2825TIP3   OH229965   3.038   1.213  16.394 -0.1363  0.0065  0.1505
 2825TIP3    H129966   2.967   1.215  16.330 -0.0125 -1.0012 -0.0353
 2825TIP3    H229967   3.046   1.303  16.425 -0.7217  0.3481 -0.6737
 2826TIP3   OH229968   2.311   4.832   1.817 -0.8341 -0.3556 -0.4479
 2826TIP3    H129969   2.278   4.882   1.743 -1.0158  0.2407  0.0323
 2826TIP3    H229970   2.235   4.783   1.848 -1.1222  0.5367  0.2672
 2827TIP3   OH229971   3.677   2.380   2.843 -1.1723  0.5896  0.4159
 2827TIP3    H129972   3.636   2.413   2.923 -1.4880  1.1750  0.0155
 2827TIP3    H229973   3.690   2.457   2.789  2.0503  0.6794  1.2080
 2828TIP3   OH229974   2.352   0.832  14.820  0.4519 -0.1542 -0.3916
 2828TIP3    H129975   2.315   0.915  14.792  0.8063  0.0745 -0.1809
 2828TIP3    H229976   2.396   0.851  14.903 -0.3185 -0.7582  0.1714
 2829TIP3   OH229977   2.348   6.223   2.176 -0.7006 -0.0880 -0.6579
 2829TIP3    H129978   2.379   6.295   2.231 -0.0293 -2.0161  1.5365
 2829TIP3    H229979   2.381   6.245   2.088  2.1122  0.7394  0.5385
 2830TIP3   OH229980   6.579   0.319  14.200  0.7452 -0.2398  0.1215
 2830TIP3    H129981   6.618   0.264  14.132  1.7989  0.9550 -0.2606
 2830TIP3    H229982   6.509   0.367  14.155  1.0406  0.0939  0.0115
 2831TIP3   OH229983   6.590   3.476  14.767  0.2397  0.2560 -0.4554
 2831TIP3    H129984   6.577   3.525  14.848  0.1058  0.2964 -0.5013
 2831TIP3    H229985   6.656   3.410  14.790 -1.2197 -1.0189  0.2462
 2832TIP3   OH229986   1.540   4.191   0.666 -0.3149  0.4243  0.1063
 2832TIP3    H129987   1.565   4.223   0.580 -0.5807  0.8522  0.1864
 2832TIP3    H229988   1.444   4.195   0.666 -0.4252 -1.5112 -0.3219
 2833TIP3   OH229989   6.058   6.734   3.534  0.5835  0.3617 -0.1066
 2833TIP3    H129990   6.033   6.774   3.451 -0.8887  0.3578  0.3228
 2833TIP3    H229991   6.044   6.803   3.599  0.1299 -0.1510  0.3490
 2834TIP3   OH229992   6.181   0.268  13.668 -0.1699 -0.6249  0.1786
 2834TIP3    H129993   6.256   0.218  13.636 -0.5251 -2.0261  1.4228
 2834TIP3    H229994   6.215   0.316  13.744 -0.2925 -0.4875  0.1471
 2835TIP3   OH229995   3.281   4.760   4.270  0.4345  0.1721  0.0075
 2835TIP3    H129996   3.308   4.821   4.339 -2.2793  0.8300  0.5307
 2835TIP3    H229997   3.217   4.809   4.218 -0.4419 -1.6245 -0.6534
 2836TIP3   OH229998   5.508   1.872  16.533  0.0349 -0.1492  0.3153
 2836TIP3    H129999   5.525   1.804  16.468  2.4946  0.3056  0.4240
 2836TIP3    H230000   5.594   1.890  16.572 -0.3330  3.8701 -0.5465
 2837TIP3   OH230001   1.323   5.070   4.505 -0.1910  0.0129  0.1768
 2837TIP3    H130002   1.367   5.049   4.422  0.4123 -1.1268  0.7603
 2837TIP3    H230003   1.365   5.012   4.569 -1.5005 -0.0144  1.0400
 2838TIP3   OH230004   5.543   6.114   2.356  0.1448  0.5516 -0.0939
 2838TIP3    H130005   5.558   6.083   2.445  0.4864  2.2223  0.4457
 2838TIP3    H230006   5.506   6.201   2.366 -2.6213 -0.3950 -1.5644
 2839TIP3   OH230007   3.285   6.214   0.565  0.4786  0.1687  0.0371
 2839TIP3    H130008   3.248   6.147   0.506 -0.7919  0.4618  0.4845
 2839TIP3    H230009   3.246   6.195   0.650  1.2150  0.6220  0.4799
 2840TIP3   OH230010   6.340   4.890  15.322  0.4020 -0.1732 -0.2910
 2840TIP3    H130011   6.259   4.929  15.289  0.8084  0.0797 -0.9869
 2840TIP3    H230012   6.400   4.964  15.332  0.5128 -0.3440  0.3480
 2841TIP3   OH230013   4.938   1.379  11.528 -0.3397 -0.0889  0.1595
 2841TIP3    H130014   4.999   1.325  11.579  0.2502 -0.0025 -0.4428
 2841TIP3    H230015   4.854   1.335  11.537  0.3702 -1.8570 -1.3522
 2842TIP3   OH230016   0.716   0.215   6.528  0.8134 -0.0316  0.3782
 2842TIP3    H130017   0.789   0.251   6.578  0.1819 -0.7033  1.7982
 2842TIP3    H230018   0.642   0.273   6.548  0.3401 -0.8218  0.9457
 2843TIP3   OH230019   2.048   6.537  13.615  0.3858 -0.0876 -0.1847
 2843TIP3    H130020   2.057   6.614  13.558 -0.9452  0.4214  0.2715
 2843TIP3    H230021   1.992   6.477  13.566 -0.5455  0.2418  0.4509
 2844TIP3   OH230022   1.396   5.613   4.694 -0.0246  0.5364  0.5891
 2844TIP3    H130023   1.444   5.533   4.675  1.3972  1.5684 -0.2585
 2844TIP3    H230024   1.351   5.634   4.612 -1.2348  0.0505  1.1192
 2845TIP3   OH230025   6.108   4.019   4.506 -0.0875  0.1518 -0.9504
 2845TIP3    H130026   6.152   4.085   4.453  0.7828  0.0409 -0.3852
 2845TIP3    H230027   6.129   3.935   4.464  3.3606 -0.2559  1.3593
 2846TIP3   OH230028   5.341   2.723   2.497  0.2756  0.2950 -0.0406
 2846TIP3    H130029   5.407   2.717   2.566 -0.2185  0.1436  0.4285
 2846TIP3    H230030   5.267   2.767   2.539 -0.4024 -0.6926 -0.1694
 2847TIP3   OH230031   3.050   5.009   1.493 -0.1951 -0.2983  0.2093
 2847TIP3    H130032   3.059   4.956   1.573  0.9973 -1.4983 -0.7029
 2847TIP3    H230033   3.112   5.080   1.503 -0.3773 -0.1869  0.5542
 2848TIP3   OH230034   1.782   2.013   4.856 -0.0596  0.3833 -0.4080
 2848TIP3    H130035   1.714   1.956   4.821  1.1394 -1.9524  0.9641
 2848TIP3    H230036   1.739   2.098   4.866 -2.8753 -1.1039  0.6743
 2849TIP3   OH230037   0.997   0.874   2.288 -0.2534  0.3635  0.1090
 2849TIP3    H130038   1.078   0.849   2.333 -0.5412 -0.3282  0.2496
 2849TIP3    H230039   1.018   0.866   2.195 -0.5062 -0.9655  0.1550
 2850TIP3   OH230040   6.463   5.300   4.829  0.3159 -0.4440 -0.0016
 2850TIP3    H130041   6.411   5.282   4.907  0.8165  0.1051  0.4535
 2850TIP3    H230042   6.409   5.265   4.757 -0.4770 -0.2966  0.5095
 2851TIP3   OH230043   5.589   1.534  16.508  0.2670 -0.2029 -0.1935
 2851TIP3    H130044   5.495   1.546  16.523  0.3514  1.9947 -1.1240
 2851TIP3    H230045   5.604   1.573  16.421  1.9073 -1.2408 -0.3967
 2852TIP3   OH230046   1.000   5.634   3.226 -0.3403  0.3751 -0.0691
 2852TIP3    H130047   1.013   5.600   3.138 -0.1140 -3.0395  1.2061
 2852TIP3    H230048   1.089   5.641   3.262 -0.4862  1.0384  0.1761
 2853TIP3   OH230049   3.273   2.861  13.844  0.0254 -0.3967 -0.0036
 2853TIP3    H130050   3.251   2.865  13.750 -2.0082  1.0455  0.4926
 2853TIP3    H230051   3.365   2.837  13.846  0.4410  0.8413 -2.4179
 2854TIP3   OH230052   5.865   2.625  16.988 -0.4819  0.5079  0.0997
 2854TIP3    H130053   5.848   2.599  17.078  1.5309 -0.0134  0.3611
 2854TIP3    H230054   5.957   2.652  16.988  0.0857 -1.2812 -2.1763
 2855TIP3   OH230055   0.844   0.491  14.178  0.2758  0.1074 -0.5033
 2855TIP3    H130056   0.867   0.406  14.215 -0.3867  0.1051 -0.0887
 2855TIP3    H230057   0.752   0.483  14.152  0.5437  0.3169 -1.5691
 2856TIP3   OH230058   3.235   6.784  13.895 -0.2720 -0.4770 -0.4874
 2856TIP3    H130059   3.256   6.746  13.810 -0.6691 -2.0835  0.1237
 2856TIP3    H230060   3.306   6.846  13.912 -0.0824 -0.3154 -1.8850
 2857TIP3   OH230061   0.598   0.442   2.338 -0.4621 -0.2206  0.1793
 2857TIP3    H130062   0.626   0.378   2.403  0.8055  0.2672  0.1263
 2857TIP3    H230063   0.620   0.527   2.377  1.0510  0.0508 -1.2225
 2858TIP3   OH230064   3.014   2.192  16.871  0.4944 -0.2253 -0.1735
 2858TIP3    H130065   2.984   2.101  16.868  1.0400 -0.4541  1.0074
 2858TIP3    H230066   2.934   2.243  16.874  0.1299 -0.5477 -2.9933
 2859TIP3   OH230067   2.601   3.477   2.556  0.1851  0.1716 -0.0811
 2859TIP3    H130068   2.581   3.385   2.540  0.6475 -0.3330  2.0305
 2859TIP3    H230069   2.684   3.492   2.511  2.1754 -1.5716  2.8147
 2860TIP3   OH230070   3.268   6.348  16.403 -0.2202  0.2314  0.0165
 2860TIP3    H130071   3.294   6.357  16.311 -2.9284 -0.6772 -0.8742
 2860TIP3    H230072   3.343   6.307  16.445  0.7892  0.0398 -1.9261
 2861TIP3   OH230073   4.065   6.063  11.418 -0.3395 -0.1386 -0.0889
 2861TIP3    H130074   4.064   6.035  11.327  0.7699 -1.8979  0.4201
 2861TIP3    H230075   4.111   6.147  11.417 -0.7283  0.0629 -1.1998
 2862TIP3   OH230076   2.637   6.544  15.758 -0.8956  0.0842  0.4036
 2862TIP3    H130077   2.676   6.504  15.836  0.8689 -1.4111 -1.1885
 2862TIP3    H230078   2.571   6.480  15.729 -0.9625  0.2408  0.2097
 2863TIP3   OH230079   1.363   5.667  14.263 -0.3994 -0.3354 -0.0187
 2863TIP3    H130080   1.359   5.705  14.350  1.2225 -0.9072  0.3154
 2863TIP3    H230081   1.299   5.717  14.212  1.0410  2.2408  0.6425
 2864TIP3   OH230082   0.840   4.648   2.443  0.2229 -0.2918  0.4696
 2864TIP3    H130083   0.832   4.558   2.412  1.0195  0.3061 -1.6045
 2864TIP3    H230084   0.804   4.647   2.531 -0.9439 -2.3766 -0.0024
 2865TIP3   OH230085   2.073   4.588   5.771  0.2631  0.2575  0.6211
 2865TIP3    H130086   2.121   4.564   5.850 -1.0679  1.8681  1.9516
 2865TIP3    H230087   2.019   4.663   5.797  0.2825  1.2194 -1.9869
 2866TIP3   OH230088   6.114   2.960   1.231 -0.0279 -0.3466 -0.4565
 2866TIP3    H130089   6.036   2.988   1.277 -0.0752 -1.2219  0.0177
 2866TIP3    H230090   6.185   3.013   1.267 -0.0327 -1.1688  0.7651
 2867TIP3   OH230091   3.473   2.471   5.101 -0.3995  0.1157 -0.0568
 2867TIP3    H130092   3.411   2.436   5.165  0.7420 -1.5225  0.1837
 2867TIP3    H230093   3.445   2.561   5.087 -0.3891  0.6357  3.0777
 2868TIP3   OH230094   2.821   0.820  11.432  0.1973 -0.1119  1.2141
 2868TIP3    H130095   2.861   0.744  11.390  2.2660  1.2061  0.7128
 2868TIP3    H230096   2.753   0.848  11.371  0.7279 -0.4263  0.4671
 2869TIP3   OH230097   5.862   2.323  15.399  0.2607  0.2284 -0.1168
 2869TIP3    H130098   5.889   2.245  15.448  0.6269  0.1096 -0.5091
 2869TIP3    H230099   5.786   2.295  15.348  0.7891 -0.0481 -0.7569
 2870TIP3   OH230100   6.742   2.370  15.732 -0.0789 -0.2130  0.1230
 2870TIP3    H130101   6.709   2.321  15.657  0.1645 -1.2952  0.7168
 2870TIP3    H230102   6.830   2.396  15.706  0.0345 -0.6523  0.0683
 2871TIP3   OH230103   5.484   1.054  16.408 -0.3095 -0.3059  0.4564
 2871TIP3    H130104   5.472   1.133  16.354  0.6386 -0.9347 -0.7020
 2871TIP3    H230105   5.564   1.070  16.457 -0.4031 -0.3252  0.6126
 2872TIP3   OH230106   0.734   1.511  11.215  0.2864 -0.2152  0.2440
 2872TIP3    H130107   0.784   1.565  11.277  0.3972 -1.2954  1.1202
 2872TIP3    H230108   0.751   1.421  11.243  0.0616 -0.6997 -1.1668
 2873TIP3   OH230109   1.521   4.939   3.645 -0.2013 -0.4986 -0.0551
 2873TIP3    H130110   1.467   4.879   3.593 -1.1213  0.1882  0.1000
 2873TIP3    H230111   1.515   4.906   3.734 -2.1050  0.7775  0.3333
 2874TIP3   OH230112   6.722   1.133   2.777 -0.4593 -0.6204 -0.4925
 2874TIP3    H130113   6.802   1.124   2.725  0.6967 -1.7304  1.4127
 2874TIP3    H230114   6.703   1.044   2.807 -0.1478  0.1991  2.3099
 2875TIP3   OH230115   2.422   2.410  14.233  0.5645  0.3896 -0.0743
 2875TIP3    H130116   2.452   2.386  14.321 -0.1577 -0.1052  0.0442
 2875TIP3    H230117   2.360   2.482  14.248  0.5037  0.3600 -0.1866
 2876TIP3   OH230118   3.041   0.063  14.871 -0.5895  0.1474  0.4929
 2876TIP3    H130119   2.952   0.050  14.839 -0.2781  1.8404 -1.1701
 2876TIP3    H230120   3.032   0.123  14.944 -0.8461  0.0303  0.5574
 2877TIP3   OH230121   0.079   5.364   5.896 -0.1754 -0.1911  0.0898
 2877TIP3    H130122   0.101   5.357   5.989  0.4921 -0.9296 -0.1153
 2877TIP3    H230123   0.017   5.436   5.892  0.7679  0.6964  0.9500
 2878TIP3   OH230124   2.685   1.498  16.982  0.1356  0.2570  0.3807
 2878TIP3    H130125   2.739   1.559  17.033  1.3666 -0.4996  0.0193
 2878TIP3    H230126   2.631   1.554  16.926  0.9741  1.0309  0.3318
 2879TIP3   OH230127   3.728   2.596  10.812 -0.1236  0.0028  0.1971
 2879TIP3    H130128   3.799   2.543  10.776 -0.6319  0.3757 -1.3779
 2879TIP3    H230129   3.657   2.588  10.749 -1.0567  0.6351  1.1395
 2880TIP3   OH230130   4.618   0.901  17.005  0.7079 -0.5278  0.6955
 2880TIP3    H130131   4.653   0.896  16.915 -0.8829 -0.7224  0.0771
 2880TIP3    H230132   4.636   0.991  17.032 -0.2122  0.0004 -0.4121
 2881TIP3   OH230133   2.684   2.392  11.766 -0.0861 -0.0164  0.2890
 2881TIP3    H130134   2.596   2.363  11.742  0.0576  1.2151 -1.8577
 2881TIP3    H230135   2.736   2.312  11.765 -0.8398 -0.5098 -0.0593
 2882TIP3   OH230136   1.533   2.478  11.262 -0.2823  0.0947  0.1030
 2882TIP3    H130137   1.511   2.553  11.318 -2.4599 -0.3389 -0.1097
 2882TIP3    H230138   1.483   2.494  11.182  2.1616  0.2815 -1.4188
 2883TIP3   OH230139   1.537   0.374   4.807 -0.5720 -0.5808 -0.2747
 2883TIP3    H130140   1.520   0.282   4.784  0.8708 -1.0032  0.2637
 2883TIP3    H230141   1.492   0.387   4.890 -1.3026 -0.6222 -0.6630
 2884TIP3   OH230142   4.775   2.875  15.104 -0.1588 -0.3199  0.3733
 2884TIP3    H130143   4.812   2.898  15.189  1.1409 -2.5464  0.4384
 2884TIP3    H230144   4.693   2.831  15.125  0.4710 -1.4417  0.5203
 2885TIP3   OH230145   1.487   2.210  16.536  0.0455  0.0300 -0.4000
 2885TIP3    H130146   1.464   2.127  16.578 -0.5000  0.3036 -0.1571
 2885TIP3    H230147   1.576   2.227  16.567 -0.3745  0.2642  0.7239
 2886TIP3   OH230148   0.774   3.639   3.075 -0.3386 -0.1236  0.0061
 2886TIP3    H130149   0.821   3.648   3.158  2.2148 -0.7490 -1.3155
 2886TIP3    H230150   0.790   3.722   3.029  1.8604 -1.3854 -1.5943
 2887TIP3   OH230151   4.510   6.086   2.837 -0.0998 -0.3416 -0.1269
 2887TIP3    H130152   4.445   6.040   2.785 -0.3777  0.6523 -0.6638
 2887TIP3    H230153   4.475   6.085   2.926  0.0086 -1.3661 -0.0934
 2888TIP3   OH230154   6.083   6.224   3.904  0.5666 -0.1552  0.1077
 2888TIP3    H130155   6.002   6.236   3.855  0.5148  1.8914  0.6449
 2888TIP3    H230156   6.126   6.148   3.863 -0.8427 -0.2501 -1.2048
 2889TIP3   OH230157   2.324   0.199   4.035  0.0479  0.6261  0.6437
 2889TIP3    H130158   2.349   0.117   3.991 -1.7047 -0.6144  1.8585
 2889TIP3    H230159   2.317   0.175   4.128 -0.3966  2.1931  1.0264
 2890TIP3   OH230160   0.253   3.753  14.247 -0.0577  0.2228  0.0588
 2890TIP3    H130161   0.182   3.710  14.295 -0.4787  0.5900 -0.2392
 2890TIP3    H230162   0.320   3.685  14.238 -0.5631 -0.2624 -0.0666
 2891TIP3   OH230163   5.309   0.698   6.234 -0.1616  0.4903  0.0071
 2891TIP3    H130164   5.374   0.667   6.298  1.1473  0.3520 -1.3549
 2891TIP3    H230165   5.305   0.792   6.248  1.1030  0.6438 -0.5664
 2892TIP3   OH230166   0.987   4.542   2.147  0.6578  0.0805 -0.8610
 2892TIP3    H130167   1.046   4.613   2.171 -0.0216  0.0935  0.8433
 2892TIP3    H230168   0.951   4.511   2.230 -1.3660 -0.2297 -1.8144
 2893TIP3   OH230169   4.210   6.222   6.382  0.1020  0.7032  0.1726
 2893TIP3    H130170   4.233   6.307   6.418 -0.5362  1.6401 -1.5900
 2893TIP3    H230171   4.170   6.175   6.455 -0.2866  2.2157  0.9522
 2894TIP3   OH230172   1.095   2.554  14.962  0.0948 -0.6175  0.2823
 2894TIP3    H130173   1.089   2.471  14.915 -0.6145 -0.3230 -0.1611
 2894TIP3    H230174   1.015   2.557  15.015  0.1883 -0.2876  0.4049
 2895TIP3   OH230175   2.723   3.075   2.820  0.1212 -0.3976  0.4311
 2895TIP3    H130176   2.753   3.104   2.734  1.1259  0.8268  1.1786
 2895TIP3    H230177   2.630   3.055   2.807 -0.3925  2.2499 -0.3691
 2896TIP3   OH230178   0.050   0.247  12.015 -0.4380 -0.1348 -0.0040
 2896TIP3    H130179   0.013   0.310  12.078 -1.1158  0.7306 -1.2416
 2896TIP3    H230180   0.123   0.294  11.975 -0.6447 -0.3181 -0.5935
 2897TIP3   OH230181   4.049   5.983  11.779 -0.1019 -0.4938 -0.0789
 2897TIP3    H130182   3.968   5.935  11.796 -0.9719  0.1536 -2.2202
 2897TIP3    H230183   4.119   5.924  11.809 -1.2887 -1.7765  0.2009
 2898TIP3   OH230184   6.303   6.194   4.909 -0.4451 -0.1979  0.5326
 2898TIP3    H130185   6.268   6.280   4.886  0.7401 -0.3021 -1.8184
 2898TIP3    H230186   6.345   6.207   4.994  1.1237  1.9614 -0.5180
 2899TIP3   OH230187   1.250   5.812  12.900 -0.4210  0.1667  0.2226
 2899TIP3    H130188   1.246   5.721  12.929 -1.3096  0.1532  0.0726
 2899TIP3    H230189   1.339   5.840  12.921 -0.2412 -0.6393  0.5571
 2900TIP3   OH230190   2.905   1.399   2.737  0.4473  0.0051  0.0588
 2900TIP3    H130191   2.853   1.335   2.786  0.8057  0.3932  0.9734
 2900TIP3    H230192   2.980   1.350   2.705  0.4303 -0.1660  0.2794
 2901TIP3   OH230193   6.081   4.745  16.953 -0.4404  0.1551 -0.0497
 2901TIP3    H130194   6.081   4.802  17.029 -1.8835  2.1467 -1.4995
 2901TIP3    H230195   5.989   4.723  16.938 -0.1871 -0.1810 -1.2427
 2902TIP3   OH230196   5.455   5.809   2.275  0.4527 -0.0115 -0.1925
 2902TIP3    H130197   5.550   5.802   2.287  0.1431  2.0308  4.4084
 2902TIP3    H230198   5.439   5.902   2.260 -1.0622  0.2197  2.5280
 2903TIP3   OH230199   0.841   4.947  13.109 -0.4303 -0.1725 -0.3073
 2903TIP3    H130200   0.863   5.032  13.148 -1.0392  0.1592 -0.6839
 2903TIP3    H230201   0.751   4.957  13.079 -0.4167 -0.8723 -0.5854
 2904TIP3   OH230202   0.618   1.780  13.265 -0.6504  0.2543  0.0987
 2904TIP3    H130203   0.612   1.685  13.261 -2.1255  0.3856 -1.6311
 2904TIP3    H230204   0.712   1.799  13.255 -0.1632 -1.0538  2.1251
 2905TIP3   OH230205   6.036   2.345  16.092  0.4407 -0.5782  0.0847
 2905TIP3    H130206   6.008   2.281  16.158  0.1760 -1.4796 -0.8704
 2905TIP3    H230207   6.110   2.302  16.048  0.7071  0.0725 -0.0999
 2906TIP3   OH230208   5.522   3.864  13.786 -0.5237 -0.3810 -0.4848
 2906TIP3    H130209   5.553   3.791  13.733  1.9076  0.4430 -0.2802
 2906TIP3    H230210   5.602   3.907  13.817 -1.8697  2.4884 -0.7541
 2907TIP3   OH230211   1.092   0.148   4.425 -0.3865  0.1753 -0.2598
 2907TIP3    H130212   1.070   0.203   4.501 -1.6675 -0.2841 -0.2760
 2907TIP3    H230213   1.165   0.192   4.383  0.3041  0.4673  1.2229
 2908TIP3   OH230214   5.933   0.157  15.862 -0.0146 -0.3670 -0.1666
 2908TIP3    H130215   5.910   0.240  15.904  0.4268 -0.9893  1.3234
 2908TIP3    H230216   5.899   0.089  15.921 -2.0272 -1.2794 -2.2841
 2909TIP3   OH230217   0.363   3.090  11.353  0.1273 -0.3013  0.1913
 2909TIP3    H130218   0.338   3.178  11.384  0.3357  0.3951 -1.5305
 2909TIP3    H230219   0.322   3.084  11.267  1.7203 -1.1502 -0.5149
 2910TIP3   OH230220   2.353   3.454   0.403  0.9577 -0.3423 -0.5406
 2910TIP3    H130221   2.264   3.435   0.373  0.6347 -2.3281  1.5034
 2910TIP3    H230222   2.409   3.394   0.353  0.8704 -0.7732 -0.1267
 2911TIP3   OH230223   1.187   1.377  13.750 -0.2037  0.0941  0.4725
 2911TIP3    H130224   1.178   1.386  13.845  0.5684 -0.0282  0.5561
 2911TIP3    H230225   1.194   1.283  13.735  3.3986  0.2525  0.6439
 2912TIP3   OH230226   1.985   1.292   2.666 -0.2495 -0.1104 -0.0985
 2912TIP3    H130227   2.050   1.282   2.735  0.8242 -1.6126 -1.2786
 2912TIP3    H230228   2.004   1.378   2.628  0.0368  0.1328  0.5847
 2913TIP3   OH230229   3.074   6.224   2.505  0.3982 -0.0827 -0.2539
 2913TIP3    H130230   3.068   6.266   2.419  0.1044  1.7502  0.6436
 2913TIP3    H230231   2.983   6.210   2.532  0.4588  1.1261  0.6049
 2914TIP3   OH230232   4.846   6.243   0.736  0.0526  0.0077  0.3703
 2914TIP3    H130233   4.845   6.288   0.820 -1.4954  1.0662 -0.1901
 2914TIP3    H230234   4.790   6.166   0.750  2.4562 -1.6453  1.2402
 2915TIP3   OH230235   2.436   0.173   0.199  0.4304 -0.6157  0.3641
 2915TIP3    H130236   2.376   0.215   0.136  0.3379  0.7599  1.3441
 2915TIP3    H230237   2.520   0.215   0.183  0.9229 -1.8192 -0.3046
 2916TIP3   OH230238   6.188   2.422  13.957  0.1722  0.0927  0.3177
 2916TIP3    H130239   6.158   2.332  13.969 -0.6452  0.4285  0.8615
 2916TIP3    H230240   6.191   2.434  13.862  0.6840 -0.6395  0.2419
 2917TIP3   OH230241   3.815   1.464   5.628  0.6934  0.0143 -0.1314
 2917TIP3    H130242   3.753   1.464   5.555  0.0670  1.2990  0.3886
 2917TIP3    H230243   3.896   1.427   5.591 -0.4875 -2.0645 -0.7037
 2918TIP3   OH230244   2.422   3.378   6.329 -0.2087  0.3490  0.0787
 2918TIP3    H130245   2.501   3.430   6.322  0.3937 -0.6433 -0.7265
 2918TIP3    H230246   2.357   3.424   6.276  0.0112  0.8217  0.2241
 2919TIP3   OH230247   6.456   1.789   1.876 -0.3205 -0.0923  0.1366
 2919TIP3    H130248   6.518   1.746   1.816 -1.0897  1.6977 -2.0533
 2919TIP3    H230249   6.387   1.724   1.891 -0.9108 -0.0635 -2.2310
 2920TIP3   OH230250   0.812   3.977  16.215 -0.3186  0.6895 -0.0287
 2920TIP3    H130251   0.887   3.999  16.159 -0.1674  2.9274  1.0097
 2920TIP3    H230252   0.851   3.944  16.296 -0.4831  0.1651 -0.1635
 2921TIP3   OH230253   3.440   1.829  15.540 -0.8366 -0.3716  0.3031
 2921TIP3    H130254   3.456   1.806  15.631 -0.3980  0.7214  0.5211
 2921TIP3    H230255   3.484   1.761  15.489 -0.2988 -0.4817  0.9089
 2922TIP3   OH230256   3.973   1.272  13.064  0.1082 -0.3032 -0.5058
 2922TIP3    H130257   3.949   1.329  13.137 -1.3516 -1.0428 -0.3721
 2922TIP3    H230258   3.900   1.281  13.002 -0.0936 -1.9026 -0.5268
 2923TIP3   OH230259   1.059   0.236  12.046 -0.0080 -0.7217  0.5685
 2923TIP3    H130260   1.078   0.235  11.953  0.2751  2.6830  0.5422
 2923TIP3    H230261   1.143   0.256  12.088 -0.6989  0.5860  1.3535
 2924TIP3   OH230262   5.470   5.509  14.421 -0.4087 -1.0964  0.0268
 2924TIP3    H130263   5.438   5.579  14.365 -2.5304 -1.6952  0.4334
 2924TIP3    H230264   5.510   5.553  14.495  4.0156 -0.2475 -2.6778
 2925TIP3   OH230265   5.463   4.406   3.999  0.4280  0.6498 -0.3208
 2925TIP3    H130266   5.530   4.465   4.033  0.3107  0.1489  0.8300
 2925TIP3    H230267   5.506   4.358   3.928  0.5835  1.9603 -1.1225
 2926TIP3   OH230268   4.420   3.684   2.785  0.4550  0.2562  0.0219
 2926TIP3    H130269   4.423   3.589   2.774  0.4631  0.2852 -0.2418
 2926TIP3    H230270   4.327   3.706   2.778  0.1921  0.0197  2.3050
 2927TIP3   OH230271   4.073   1.859   4.227  0.3832 -0.4380  0.0499
 2927TIP3    H130272   4.153   1.893   4.188  0.9636 -0.9075  0.8174
 2927TIP3    H230273   4.059   1.775   4.185  0.3824 -0.4305  0.0349
 2928TIP3   OH230274   3.221   4.505   5.063  0.5638 -0.2136  0.0521
 2928TIP3    H130275   3.191   4.562   5.133  0.9755  0.9516 -0.7141
 2928TIP3    H230276   3.177   4.538   4.984 -0.9058 -2.2996 -0.0594
 2929TIP3   OH230277   5.113   0.105   5.329  0.4806 -0.0273  0.4641
 2929TIP3    H130278   5.057   0.062   5.264  0.4095  1.0376 -0.1913
 2929TIP3    H230279   5.178   0.038   5.352 -0.0021 -0.6938 -0.0771
 2930TIP3   OH230280   2.212   0.557   3.850  0.5224 -1.1111  0.0879
 2930TIP3    H130281   2.142   0.529   3.791  0.2652 -1.2812  0.4684
 2930TIP3    H230282   2.166   0.587   3.928  0.9380 -2.7744  0.9949
 2931TIP3   OH230283   0.503   5.660  11.419  0.1865 -0.4587  0.0619
 2931TIP3    H130284   0.580   5.714  11.435  0.9101 -1.4187 -0.1553
 2931TIP3    H230285   0.453   5.666  11.500 -0.6925  2.0503 -0.6118
 2932TIP3   OH230286   4.762   4.603   5.791 -0.1121  0.0425 -0.4680
 2932TIP3    H130287   4.752   4.545   5.867 -1.7656  2.1811  0.9826
 2932TIP3    H230288   4.833   4.662   5.816 -0.8655  0.9456 -0.4511
 2933TIP3   OH230289   1.802   0.357  16.708 -0.1512  0.3829  0.4003
 2933TIP3    H130290   1.822   0.440  16.752  0.3624 -0.0060  0.9052
 2933TIP3    H230291   1.794   0.294  16.779  0.6955 -0.2525 -0.0638
 2934TIP3   OH230292   3.915   4.846   3.044 -0.1572  0.4234 -0.1299
 2934TIP3    H130293   3.982   4.896   3.090 -0.1811  1.1814 -0.9137
 2934TIP3    H230294   3.858   4.813   3.113 -0.4551  1.9331  0.3706
 2935TIP3   OH230295   5.918   6.250   1.017  0.3996  0.0883 -0.5574
 2935TIP3    H130296   5.896   6.158   1.002  1.5845 -0.3899  0.5561
 2935TIP3    H230297   5.911   6.291   0.931 -1.8005 -0.6734 -0.7785
 2936TIP3   OH230298   4.788   2.301   1.302 -0.0958  0.4087  0.7515
 2936TIP3    H130299   4.713   2.342   1.345  0.2927 -0.7393  2.5850
 2936TIP3    H230300   4.859   2.309   1.365  0.9184  0.1353 -0.3448
 2937TIP3   OH230301   2.393   0.775   0.760  0.8949  0.3542 -1.0433
 2937TIP3    H130302   2.417   0.813   0.844  2.1969  1.2460 -1.7985
 2937TIP3    H230303   2.369   0.685   0.780  2.0011  0.3192  0.1749
 2938TIP3   OH230304   5.801   4.206  17.285  0.0003 -0.4515  0.3390
 2938TIP3    H130305   5.889   4.243  17.287 -0.7990  1.5779 -1.1577
 2938TIP3    H230306   5.794   4.164  17.199 -1.9911  3.2885 -1.4482
 2939TIP3   OH230307   5.299   4.421  15.879 -0.0820  0.4247  0.4907
 2939TIP3    H130308   5.212   4.389  15.857 -0.3211 -0.5312  2.7426
 2939TIP3    H230309   5.359   4.360  15.837 -0.4949  0.2632  0.1318
 2940TIP3   OH230310   3.591   0.894  15.084  0.4364  0.1631 -0.2874
 2940TIP3    H130311   3.584   0.889  15.179  0.1054  2.9983 -0.1200
 2940TIP3    H230312   3.662   0.835  15.061 -0.1927 -1.3717  1.6001
 2941TIP3   OH230313   0.312   0.041  13.715 -0.3362  0.1837 -0.1533
 2941TIP3    H130314   0.318   0.080  13.802 -1.4809  1.0785 -0.4770
 2941TIP3    H230315   0.234  -0.014  13.718  0.7185 -1.3560 -0.0065
 2942TIP3   OH230316   2.489   2.119   6.318  0.3763 -0.9820  0.3290
 2942TIP3    H130317   2.578   2.130   6.284 -0.0561 -1.7995 -1.0938
 2942TIP3    H230318   2.499   2.061   6.393  0.5146 -4.9761 -2.6366
 2943TIP3   OH230319   2.540   0.941   2.192  0.2437  0.0077 -0.0537
 2943TIP3    H130320   2.504   0.926   2.104 -0.2735  1.1650 -0.0421
 2943TIP3    H230321   2.463   0.960   2.246  0.7301  1.0423  0.2787
 2944TIP3   OH230322   2.599   5.029  14.470  0.4930 -0.4972 -0.1516
 2944TIP3    H130323   2.522   5.021  14.526 -0.9218 -1.4573 -2.1641
 2944TIP3    H230324   2.666   4.975  14.512 -0.2099 -0.4096  1.1077
 2945TIP3   OH230325   0.326   0.905  11.983  0.5214 -0.4298 -0.6906
 2945TIP3    H130326   0.306   0.841  12.051  0.4735 -0.2061 -0.4951
 2945TIP3    H230327   0.421   0.915  11.987  0.2627  1.5800  1.1470
 2946TIP3   OH230328   6.314   4.705   1.010  0.3687  0.1587 -0.1098
 2946TIP3    H130329   6.282   4.794   0.996  0.2642  0.0297 -0.7165
 2946TIP3    H230330   6.238   4.650   0.993  0.6855 -0.1002 -0.6900
 2947TIP3   OH230331   6.574   1.612   3.465  0.3653 -0.0617  0.4761
 2947TIP3    H130332   6.621   1.649   3.391 -0.0839  0.0060  0.2285
 2947TIP3    H230333   6.483   1.606   3.437  0.1092  0.3975  1.1838
 2948TIP3   OH230334   1.154   5.514  14.962  0.4442 -0.0285 -0.3627
 2948TIP3    H130335   1.239   5.532  15.001  0.9704 -1.0670 -0.9822
 2948TIP3    H230336   1.137   5.422  14.984  0.0059 -0.1511 -1.1749
 2949TIP3   OH230337   2.475   3.684  14.048  0.2798  0.0540 -1.5119
 2949TIP3    H130338   2.564   3.689  14.013  0.9043  0.8385  0.1368
 2949TIP3    H230339   2.472   3.599  14.092  0.7665  0.7233 -0.1548
 2950TIP3   OH230340   2.670   1.072   2.483 -0.2343  0.0569  0.2937
 2950TIP3    H130341   2.690   1.121   2.404  0.8162 -0.2187  0.3783
 2950TIP3    H230342   2.721   0.991   2.475  1.7294  1.0318  2.3221
 2951TIP3   OH230343   4.353   1.410   5.878  0.1778 -0.5856 -0.1962
 2951TIP3    H130344   4.310   1.431   5.795  1.7631  0.9678 -0.6653
 2951TIP3    H230345   4.297   1.451   5.945  0.5836  0.8735 -0.7461
 2952TIP3   OH230346   3.057   0.842  15.290 -0.5573 -0.1196 -0.1090
 2952TIP3    H130347   3.104   0.808  15.366 -1.5639 -0.3893  0.4164
 2952TIP3    H230348   3.034   0.764  15.239  0.2197  0.0710 -0.7593
 2953TIP3   OH230349   6.202   5.010   2.587  0.2316  0.0058 -0.2072
 2953TIP3    H130350   6.229   4.920   2.571  0.9491  0.1342  0.2661
 2953TIP3    H230351   6.153   5.006   2.670  0.6897  0.1283  0.0713
 2954TIP3   OH230352   3.955   0.704  13.640 -0.4144  0.3813  0.7280
 2954TIP3    H130353   3.875   0.677  13.595 -1.3711  2.8876  0.8901
 2954TIP3    H230354   3.985   0.625  13.685 -1.2175 -1.3359 -1.6493
 2955TIP3   OH230355   6.719   2.593  14.172  0.2456  0.0532  0.3400
 2955TIP3    H130356   6.713   2.651  14.247  1.4805 -0.9151  1.2276
 2955TIP3    H230357   6.690   2.508  14.205  0.1439 -0.2231 -0.4540
 2956TIP3   OH230358   4.733   3.769   4.106  0.0170  0.1853 -0.3642
 2956TIP3    H130359   4.676   3.830   4.152  0.1577  0.6774 -0.8365
 2956TIP3    H230360   4.683   3.688   4.101  0.0856  0.0617  0.8440
 2957TIP3   OH230361   5.387   3.756  16.876  0.2281  0.2245 -0.0326
 2957TIP3    H130362   5.395   3.672  16.831 -0.5563  0.5829 -0.8748
 2957TIP3    H230363   5.471   3.769  16.919 -0.1387 -1.6591  1.2925
 2958TIP3   OH230364   5.931   0.253  14.170  0.3104 -0.0294 -0.2376
 2958TIP3    H130365   6.003   0.211  14.123  1.1219 -0.1848  1.0864
 2958TIP3    H230366   5.904   0.187  14.235  0.5490  0.8954  0.8164
 2959TIP3   OH230367   2.529   5.982   0.761 -0.0620  0.0252 -0.2123
 2959TIP3    H130368   2.436   5.987   0.738 -0.2946 -1.5916  0.2891
 2959TIP3    H230369   2.572   5.948   0.683 -0.5313 -3.3085  0.9005
 2960TIP3   OH230370   1.409   2.369  16.082 -0.4490  0.7166 -0.3022
 2960TIP3    H130371   1.489   2.328  16.049 -1.6102 -0.0530 -2.2328
 2960TIP3    H230372   1.433   2.402  16.169  1.4577 -1.1232 -0.0895
 2961TIP3   OH230373   4.755   6.201   5.129  0.0983  0.3252 -0.4247
 2961TIP3    H130374   4.724   6.114   5.154  0.3112  0.0836 -0.9847
 2961TIP3    H230375   4.704   6.223   5.052 -0.5849  1.0828  0.2378
 2962TIP3   OH230376   3.260   3.048  11.727 -0.1140  0.2215 -0.1229
 2962TIP3    H130377   3.176   3.011  11.701  0.5933  0.0725 -2.2901
 2962TIP3    H230378   3.237   3.126  11.778 -1.5749 -1.5868  2.0757
 2963TIP3   OH230379   3.472   5.764   4.758  0.2662  0.1552  0.5492
 2963TIP3    H130380   3.430   5.739   4.675  0.9693  0.2604  0.1607
 2963TIP3    H230381   3.471   5.684   4.810 -0.8153  0.2666  0.7098
 2964TIP3   OH230382   0.813   6.551  15.036 -0.5914  0.5171 -0.8368
 2964TIP3    H130383   0.822   6.599  14.953  2.3942 -0.8554 -1.3725
 2964TIP3    H230384   0.847   6.610  15.102 -0.1232  0.4403 -1.0113
 2965TIP3   OH230385   5.293   1.057   5.240 -0.5445  0.4560  0.4013
 2965TIP3    H130386   5.324   0.974   5.204  1.0648  0.9607  0.5911
 2965TIP3    H230387   5.284   1.114   5.163  0.3860  0.7495  0.5146
 2966TIP3   OH230388   1.196   1.811  15.598  0.3853 -0.5767 -0.2900
 2966TIP3    H130389   1.285   1.834  15.625  0.7917 -0.9166 -1.3360
 2966TIP3    H230390   1.142   1.833  15.674  1.3931 -0.6099  0.4512
 2967TIP3   OH230391   4.781   0.577  13.888 -0.1268 -0.2901  0.1290
 2967TIP3    H130392   4.694   0.605  13.914 -0.5860 -1.8645  0.3791
 2967TIP3    H230393   4.807   0.637  13.818 -1.4305  0.1556  0.0299
 2968TIP3   OH230394   3.579   3.987  11.210  0.0490 -0.2524  0.5478
 2968TIP3    H130395   3.555   3.991  11.117  1.0342  0.9784  0.3362
 2968TIP3    H230396   3.628   3.905  11.218 -0.7755 -0.7959  0.1701
 2969TIP3   OH230397   4.868   5.437   4.986 -0.3257  0.4841 -0.1789
 2969TIP3    H130398   4.840   5.376   4.918 -0.6098  0.5455 -0.1161
 2969TIP3    H230399   4.910   5.382   5.052  0.2484  0.4625 -0.5595
 2970TIP3   OH230400   1.330   0.732   4.350  0.1267 -0.0217  0.2147
 2970TIP3    H130401   1.307   0.772   4.265  0.9484  0.0720  0.0357
 2970TIP3    H230402   1.371   0.803   4.399  0.3462 -0.2862  0.4106
 2971TIP3   OH230403   0.928   5.637  14.094  0.0137 -0.6871 -0.2777
 2971TIP3    H130404   0.995   5.679  14.148 -0.6993 -0.3363  0.3376
 2971TIP3    H230405   0.915   5.551  14.134 -0.9024 -0.2189  0.4306
 2972TIP3   OH230406   5.495   5.823   4.177 -0.1641 -0.0277 -1.3605
 2972TIP3    H130407   5.559   5.843   4.245 -2.1592 -0.1926  0.6309
 2972TIP3    H230408   5.483   5.905   4.130 -0.7457  0.8393  0.2441
 2973TIP3   OH230409   4.359   0.847   5.454 -0.3473 -0.0671 -0.1552
 2973TIP3    H130410   4.393   0.913   5.514 -1.1278  0.4647 -0.2847
 2973TIP3    H230411   4.355   0.891   5.369 -0.4749 -0.4079 -0.3291
 2974TIP3   OH230412   4.839   3.131   3.895 -0.0936 -0.2311  0.2621
 2974TIP3    H130413   4.863   3.138   3.987 -0.7988 -0.2129  0.4480
 2974TIP3    H230414   4.782   3.207   3.879 -2.8543 -2.1402  0.7290
 2975TIP3   OH230415   4.053   5.294   0.177  0.1341 -0.5070  0.1729
 2975TIP3    H130416   4.121   5.260   0.118  0.9715 -1.3544  1.6090
 2975TIP3    H230417   4.101   5.340   0.245 -0.8926  1.3816 -0.3502
 2976TIP3   OH230418   1.619   4.550  14.910  0.6696  0.1167  0.3460
 2976TIP3    H130419   1.641   4.518  14.998  0.4014 -0.1905  0.3011
 2976TIP3    H230420   1.594   4.641  14.923 -0.6669 -0.2997  0.7860
 2977TIP3   OH230421   3.952   1.943   2.739  0.4763  0.4721  0.1628
 2977TIP3    H130422   3.891   2.014   2.757  0.3151  0.2577  0.4906
 2977TIP3    H230423   3.953   1.935   2.644  0.2990  0.7410  0.1382
 2978TIP3   OH230424   4.123   5.517  15.007  0.4189 -0.4929 -0.2450
 2978TIP3    H130425   4.027   5.521  15.008  0.3866 -0.9263  3.4249
 2978TIP3    H230426   4.144   5.445  14.948 -1.5042 -0.7159 -0.6828
 2979TIP3   OH230427   1.291   0.709  15.901 -0.0936 -0.3554  0.6352
 2979TIP3    H130428   1.305   0.796  15.866  1.8822 -0.6425  0.6160
 2979TIP3    H230429   1.275   0.723  15.995  0.8278 -0.0035  0.7456
 2980TIP3   OH230430   3.607   1.826  16.919  0.3101  0.1976  0.9377
 2980TIP3    H130431   3.534   1.876  16.881 -0.8674 -0.9590  1.6484
 2980TIP3    H230432   3.664   1.807  16.844 -1.0302 -0.4281  0.0444
 2981TIP3   OH230433   3.688   3.224   5.079 -0.6503 -0.3392 -0.0172
 2981TIP3    H130434   3.594   3.214   5.097 -0.5587 -0.2705  0.5093
 2981TIP3    H230435   3.712   3.306   5.123 -0.3167 -0.4212 -0.0499
 2982TIP3   OH230436   1.752   1.671  11.876  0.6701 -0.5151  0.3479
 2982TIP3    H130437   1.829   1.685  11.930  1.1698  2.6217 -1.0833
 2982TIP3    H230438   1.779   1.608  11.810  1.3244 -1.0698  1.1353
 2983TIP3   OH230439   0.133   5.402  12.324  0.1843  0.2746  0.0753
 2983TIP3    H130440   0.196   5.444  12.266  0.2021  0.3800  0.1717
 2983TIP3    H230441   0.175   5.401  12.410  0.5472 -0.7211 -0.1033
 2984TIP3   OH230442   0.945   3.878   5.570  0.0047 -0.1678  0.3696
 2984TIP3    H130443   0.947   3.793   5.526 -0.3979  0.8422 -1.6110
 2984TIP3    H230444   1.037   3.895   5.593  0.4490  0.0828 -1.5742
 2985TIP3   OH230445   6.046   0.805   4.520  0.1595 -0.3671 -0.4955
 2985TIP3    H130446   5.967   0.853   4.496 -0.4971 -1.3500 -0.3424
 2985TIP3    H230447   6.106   0.817   4.447 -0.3842 -0.1600 -0.9040
 2986TIP3   OH230448   6.673   0.604   4.406  0.1024  0.7933 -0.3199
 2986TIP3    H130449   6.703   0.645   4.325  1.1273  0.2917 -0.2088
 2986TIP3    H230450   6.752   0.597   4.460 -0.2038 -0.6202 -0.0360
 2987TIP3   OH230451   5.625   3.287  11.908  0.0130 -0.1006 -0.0628
 2987TIP3    H130452   5.554   3.337  11.950 -1.3205  0.0404 -2.4039
 2987TIP3    H230453   5.689   3.354  11.882 -0.5486  0.1255 -0.8746
 2988TIP3   OH230454   0.793   3.325  13.127 -0.2767 -0.7084  0.1036
 2988TIP3    H130455   0.881   3.331  13.088  0.9631  0.9825  3.0417
 2988TIP3    H230456   0.734   3.343  13.054  1.8200 -1.1686 -1.7835
 2989TIP3   OH230457   1.525   0.026   3.155  0.7659 -0.4241  0.6947
 2989TIP3    H130458   1.460  -0.043   3.142  1.4068 -0.6693 -1.3991
 2989TIP3    H230459   1.553   0.016   3.245  2.2310 -4.1473 -0.1004
 2990TIP3   OH230460   1.859   2.379   1.126  0.3874 -0.1746  0.2022
 2990TIP3    H130461   1.816   2.455   1.088  1.0449  0.6463  1.0659
 2990TIP3    H230462   1.828   2.376   1.216  2.0887  0.4107  0.8298
 2991TIP3   OH230463   5.812   6.287  16.945 -0.2915 -0.2909  0.7327
 2991TIP3    H130464   5.742   6.321  16.889  0.6517  0.0189 -0.2860
 2991TIP3    H230465   5.794   6.194  16.953 -0.8679 -0.1962  0.5584
 2992TIP3   OH230466   3.031   6.180   1.102  0.4446  0.4802  0.6850
 2992TIP3    H130467   3.054   6.267   1.135  0.7466  0.1880  1.2624
 2992TIP3    H230468   2.981   6.196   1.023  1.8058  1.1630 -0.0571
 2993TIP3   OH230469   1.779   4.799   0.606 -0.1454  0.3753  0.8858
 2993TIP3    H130470   1.765   4.707   0.628 -0.3640  0.3064  0.4465
 2993TIP3    H230471   1.737   4.847   0.677 -0.2167  0.1401  1.0030
 2994TIP3   OH230472   1.293   1.358   2.330  0.0651  0.7949  0.4929
 2994TIP3    H130473   1.204   1.357   2.294 -0.4016 -0.0897  1.6238
 2994TIP3    H230474   1.297   1.438   2.382 -0.9402 -0.4217  2.4994
 2995TIP3   OH230475   0.326   6.144   0.675  0.0817  0.3481 -0.0237
 2995TIP3    H130476   0.236   6.122   0.700  0.5039 -0.9269  0.3993
 2995TIP3    H230477   0.326   6.240   0.668 -1.3802  0.3386 -0.3193
 2996TIP3   OH230478   3.593   0.261  16.675 -0.3618 -0.3030 -0.0665
 2996TIP3    H130479   3.561   0.221  16.755 -0.5269 -2.2879 -1.0909
 2996TIP3    H230480   3.517   0.303  16.636 -1.1006 -2.4157 -0.9678
 2997TIP3   OH230481   3.749   5.402   4.003  0.1842  0.1626 -0.0311
 2997TIP3    H130482   3.795   5.331   4.048 -0.0499  1.1020  1.7163
 2997TIP3    H230483   3.811   5.475   4.005  0.1812  0.2049 -1.2759
 2998TIP3   OH230484   2.194   4.033  11.179  0.0175 -0.5316 -0.2082
 2998TIP3    H130485   2.156   3.957  11.223  0.5368 -0.3248  0.6056
 2998TIP3    H230486   2.130   4.055  11.110 -1.6768  0.1985  1.5305
 2999TIP3   OH230487   4.151   0.211   2.381  0.6722  0.0840  0.6400
 2999TIP3    H130488   4.094   0.135   2.368 -2.2252  2.4893 -1.3483
 2999TIP3    H230489   4.137   0.236   2.473  0.5982 -0.9323  0.9117
 3000TIP3   OH230490   6.186   2.846   5.681  0.2029  0.0180  0.1759
 3000TIP3    H130491   6.134   2.883   5.610 -1.5657 -2.4682  0.1260
 3000TIP3    H230492   6.167   2.752   5.679  2.4429 -0.5210  2.0316
 3001TIP3   OH230493   4.905   4.617  14.280 -0.3852  0.1336 -0.7983
 3001TIP3    H130494   4.879   4.606  14.371  1.3889  1.1948 -0.1342
 3001TIP3    H230495   4.966   4.545  14.263  1.0045  1.1982 -0.4465
 3002TIP3   OH230496   4.689   2.674   3.474  0.3493  0.4097  0.4730
 3002TIP3    H130497   4.757   2.736   3.447  1.0247 -0.1106  0.9409
 3002TIP3    H230498   4.629   2.726   3.528  1.5483  0.4298  1.8425
 3003TIP3   OH230499   0.074   0.481  16.778  0.1795  0.1238  0.0589
 3003TIP3    H130500   0.049   0.455  16.689  0.5838 -1.2371  0.3224
 3003TIP3    H230501   0.166   0.505  16.772  0.2136  0.0080  0.1020
 3004TIP3   OH230502   2.343   5.521  15.093 -0.1770  0.5176  0.8070
 3004TIP3    H130503   2.356   5.589  15.027 -0.1616 -0.5058 -0.2630
 3004TIP3    H230504   2.423   5.521  15.144  0.8647 -0.3577 -0.7611
 3005TIP3   OH230505   5.003   3.540  13.519 -0.0079 -0.6496  0.9082
 3005TIP3    H130506   4.908   3.533  13.527 -0.0118 -1.0130  0.5631
 3005TIP3    H230507   5.030   3.457  13.478  0.4223 -0.4287  0.7417
 3006TIP3   OH230508   1.676   2.424   0.411 -0.6883 -0.0472  0.1116
 3006TIP3    H130509   1.613   2.474   0.360 -0.6893 -0.5860 -0.4097
 3006TIP3    H230510   1.756   2.424   0.358 -0.3991  0.2007  0.5383
 3007TIP3   OH230511   4.296   4.590  13.019 -0.4007  0.3086 -0.4653
 3007TIP3    H130512   4.290   4.633  13.105 -0.8834  0.6408 -0.6559
 3007TIP3    H230513   4.364   4.524  13.029 -0.6396  0.1661  0.2541
 3008TIP3   OH230514   0.349   0.254   3.495  0.2847 -0.2590  0.1074
 3008TIP3    H130515   0.338   0.333   3.442 -1.3269  0.3990  1.3937
 3008TIP3    H230516   0.397   0.194   3.438  2.3646  1.9515 -0.5891
 3009TIP3   OH230517   0.249   4.057   3.824 -0.0570  0.4211 -0.2905
 3009TIP3    H130518   0.288   4.124   3.767  0.0567  0.7398  0.1609
 3009TIP3    H230519   0.307   4.055   3.901  0.2524 -0.5814 -0.5456
 3010TIP3   OH230520   0.408   0.825   4.966  0.2462  0.1318 -0.5676
 3010TIP3    H130521   0.341   0.850   4.902  0.9980 -1.8684 -2.2013
 3010TIP3    H230522   0.487   0.872   4.938 -0.2486  1.8737  0.8938
 3011TIP3   OH230523   3.921   0.409  13.054 -0.7495  0.0937 -0.0480
 3011TIP3    H130524   3.962   0.322  13.054  0.6093  0.6983 -1.8318
 3011TIP3    H230525   3.852   0.402  12.988  0.8192  0.9610 -1.8690
 3012TIP3   OH230526   1.230   1.611  15.071  0.1134 -0.0532  0.7563
 3012TIP3    H130527   1.196   1.701  15.065  1.8834  0.5769 -0.3551
 3012TIP3    H230528   1.155   1.556  15.050  0.0024  1.3538 -3.0050
 3013TIP3   OH230529   5.386   4.996  15.638  0.1764  0.0830 -0.2043
 3013TIP3    H130530   5.325   4.967  15.706  0.6455  0.4824  0.3888
 3013TIP3    H230531   5.333   5.052  15.581 -0.8111 -2.0831 -1.5080
 3014TIP3   OH230532   4.032   5.562   1.464  0.3591  0.3319  0.6549
 3014TIP3    H130533   3.991   5.635   1.419 -0.7928  1.0880  2.8682
 3014TIP3    H230534   3.962   5.498   1.476  1.4093 -1.3229 -1.5070
 3015TIP3   OH230535   4.740   0.115  11.459 -0.0317  0.2138 -0.1796
 3015TIP3    H130536   4.769   0.024  11.458  0.5470  0.3812  0.8074
 3015TIP3    H230537   4.677   0.119  11.531 -1.2521  0.2474 -1.2203
 3016TIP3   OH230538   3.201   1.122  11.962 -0.6250 -0.0870  0.6216
 3016TIP3    H130539   3.199   1.213  11.932 -0.3961  0.1694  1.3654
 3016TIP3    H230540   3.178   1.128  12.055 -0.6045 -0.7921  0.6679
 3017TIP3   OH230541   5.524   0.240   4.778 -0.2641  0.1050 -0.0239
 3017TIP3    H130542   5.565   0.159   4.806  0.3563 -0.1334 -1.5363
 3017TIP3    H230543   5.502   0.285   4.859 -0.9499 -1.7318  0.8377
 3018TIP3   OH230544   4.984   3.225  15.322  0.3781 -0.6317  0.2950
 3018TIP3    H130545   5.075   3.204  15.298  0.1417 -0.2431 -0.9797
 3018TIP3    H230546   4.985   3.320  15.336  0.6644 -0.9440  2.5601
 3019TIP3   OH230547   4.270   0.712   3.833  0.5349 -1.1304 -0.2944
 3019TIP3    H130548   4.361   0.726   3.806  0.3492 -1.6859 -1.2149
 3019TIP3    H230549   4.227   0.796   3.818  0.7793 -1.0115 -0.3276
 3020TIP3   OH230550   0.368   6.539  17.242 -0.6163 -0.3603  0.3829
 3020TIP3    H130551   0.423   6.544  17.164  0.7606  0.0251  1.3477
 3020TIP3    H230552   0.354   6.630  17.267 -0.3224 -0.4936  1.0618
 3021TIP3   OH230553   3.889   6.002   1.227  0.1427  0.3312  0.1324
 3021TIP3    H130554   3.796   5.996   1.206  0.1959  1.6986 -0.5529
 3021TIP3    H230555   3.898   6.084   1.275  1.4315  1.6524 -2.2700
 3022TIP3   OH230556   0.966   6.804   0.444 -0.6164  0.2592  0.1291
 3022TIP3    H130557   1.008   6.841   0.366  1.0548 -0.3132  0.7377
 3022TIP3    H230558   0.933   6.719   0.415  1.4373 -0.6710  0.4312
 3023TIP3   OH230559   1.662   3.648   0.738  0.1499 -1.5109  0.5009
 3023TIP3    H130560   1.599   3.703   0.693 -0.6299 -2.2414  0.6832
 3023TIP3    H230561   1.747   3.688   0.719 -0.2933 -0.9821 -0.4032
 3024TIP3   OH230562   0.690   3.797   3.788 -0.7239  0.3552  0.1849
 3024TIP3    H130563   0.760   3.853   3.821 -0.9350  0.4037  0.5542
 3024TIP3    H230564   0.713   3.781   3.696  0.2124 -0.3327  0.5320
 3025TIP3   OH230565   0.009   1.433  11.437  0.1178  0.6399 -0.6507
 3025TIP3    H130566  -0.066   1.380  11.463  0.2202  0.6883 -0.2420
 3025TIP3    H230567  -0.013   1.522  11.467 -0.6557  1.1057 -2.5529
 3026TIP3   OH230568   6.617   5.276  13.027  0.0376 -0.0232 -0.5442
 3026TIP3    H130569   6.677   5.302  12.957 -0.0203 -0.9253 -0.9333
 3026TIP3    H230570   6.538   5.329  13.011  1.2966  2.3994  0.9473
 3027TIP3   OH230571   2.068   2.068  14.091 -0.3167  0.4767 -0.0183
 3027TIP3    H130572   2.104   1.989  14.052 -2.3674  0.1085 -1.2458
 3027TIP3    H230573   2.121   2.139  14.056 -0.4488 -0.0932 -1.3902
 3028TIP3   OH230574   1.402   4.772   5.067  0.1286 -0.2397 -0.3762
 3028TIP3    H130575   1.489   4.774   5.107 -0.1293 -2.6823  0.3810
 3028TIP3    H230576   1.406   4.839   4.999  2.2858  0.3512  0.2711
 3029TIP3   OH230577   6.480   3.466   6.026  0.9491 -0.6696 -0.3213
 3029TIP3    H130578   6.436   3.518   5.959 -0.0088 -1.5333 -0.3841
 3029TIP3    H230579   6.452   3.505   6.109  3.2018  1.2575 -0.3979
 3030TIP3   OH230580   0.541   5.991   6.152  0.0908 -0.0469 -0.3892
 3030TIP3    H130581   0.596   5.922   6.188  0.1714 -0.1721 -0.7493
 3030TIP3    H230582   0.597   6.069   6.151 -0.4066  0.3528  1.2510
 3031TIP3   OH230583   2.069   5.328  12.385 -0.3849 -0.1061  0.3233
 3031TIP3    H130584   2.042   5.409  12.428 -0.1554 -0.6564  1.5206
 3031TIP3    H230585   1.988   5.287  12.356 -0.4155  1.2178 -1.5166
 3032TIP3   OH230586   4.317   2.470  11.381  0.0679 -0.1938 -0.0207
 3032TIP3    H130587   4.323   2.566  11.383 -0.7652 -0.1690  2.2401
 3032TIP3    H230588   4.227   2.451  11.410  0.7093 -1.7077  1.0033
 3033TIP3   OH230589   6.289   1.297  13.318 -0.1194  0.1795 -0.1265
 3033TIP3    H130590   6.233   1.293  13.240  1.2428 -0.1650 -1.1076
 3033TIP3    H230591   6.329   1.384  13.314  0.1804  0.0476  0.0226
 3034TIP3   OH230592   0.081   5.826  14.581  0.1456 -0.3926 -0.3567
 3034TIP3    H130593   0.111   5.799  14.668  1.8260 -2.3960 -1.5280
 3034TIP3    H230594   0.134   5.903  14.560  0.8058 -0.8207 -0.2560
 3035TIP3   OH230595   1.690   1.526  13.622  0.1065  0.1310  0.0830
 3035TIP3    H130596   1.684   1.499  13.530 -3.2936  1.6156 -0.1866
 3035TIP3    H230597   1.772   1.574  13.627 -0.4058  1.3576 -2.5562
 3036TIP3   OH230598   0.827   2.910  13.435  0.1344 -0.2053 -0.1046
 3036TIP3    H130599   0.878   2.987  13.412  0.1139 -0.2356 -0.2533
 3036TIP3    H230600   0.790   2.880  13.352 -0.2247 -0.1121  0.0180
 3037TIP3   OH230601   2.658   3.296  16.757 -0.1378 -0.6372 -0.0306
 3037TIP3    H130602   2.744   3.308  16.717 -0.0857 -0.3016  0.1749
 3037TIP3    H230603   2.598   3.289  16.683 -0.2816  1.7502 -0.1743
 3038TIP3   OH230604   3.836   4.096  13.347 -0.0210 -0.8553  0.0429
 3038TIP3    H130605   3.835   4.168  13.283  0.3075 -0.9814 -0.1038
 3038TIP3    H230606   3.743   4.074  13.359 -0.0382 -1.3739 -0.9980
 3039TIP3   OH230607   5.472   2.962   1.908  0.5283 -0.0889 -0.1056
 3039TIP3    H130608   5.433   3.047   1.888  0.3566 -0.4137 -1.2298
 3039TIP3    H230609   5.482   2.920   1.822 -0.0394 -1.4882  0.4916
 3040TIP3   OH230610   0.585   4.456  12.924 -0.4172  0.0100 -0.5094
 3040TIP3    H130611   0.554   4.439  13.013 -1.0103  1.8098 -0.3659
 3040TIP3    H230612   0.603   4.368  12.889 -5.6430 -1.1841 -0.6082
 3041TIP3   OH230613   3.633   0.411   5.908 -0.0216  0.1487  0.4130
 3041TIP3    H130614   3.717   0.452   5.927  0.1095 -0.1100  0.4015
 3041TIP3    H230615   3.626   0.341   5.974  0.3672 -0.6638 -0.4054
 3042TIP3   OH230616   1.366   2.019  12.036  0.4313  0.0588  0.0651
 3042TIP3    H130617   1.431   2.015  11.966  1.2206 -0.4537  0.8289
 3042TIP3    H230618   1.314   1.939  12.025 -0.6339  0.8984 -1.0856
 3043TIP3   OH230619   0.890   5.776   2.854  0.2325 -0.3214  0.1422
 3043TIP3    H130620   0.851   5.823   2.781 -1.6837 -0.6845  0.9114
 3043TIP3    H230621   0.960   5.725   2.814 -0.8174 -0.5603 -1.4538
 3044TIP3   OH230622   6.706   4.414   3.030  0.2012 -0.0668  0.3135
 3044TIP3    H130623   6.667   4.435   2.945 -1.5875 -1.1090  0.8449
 3044TIP3    H230624   6.750   4.495   3.057 -0.1730  0.6202 -1.0821
 3045TIP3   OH230625   0.960   5.819  17.198  0.2016 -0.0958  0.4347
 3045TIP3    H130626   0.909   5.755  17.247  0.3013 -1.4049 -1.1300
 3045TIP3    H230627   0.969   5.781  17.110  3.0151  0.5476  0.3921
 3046TIP3   OH230628   2.035   1.938  16.649 -0.0177 -0.3614  0.0706
 3046TIP3    H130629   2.125   1.905  16.645  0.6828  1.6236 -1.5744
 3046TIP3    H230630   2.045   2.033  16.654 -2.0333 -0.1568  0.4880
 3047TIP3   OH230631   5.984   4.294  15.282  0.3386 -0.2061 -0.3951
 3047TIP3    H130632   6.058   4.236  15.262  1.5525  0.9393  0.7304
 3047TIP3    H230633   6.019   4.382  15.270 -1.7094  0.3518 -2.8415
 3048TIP3   OH230634   4.981   1.942  15.054  0.0820  0.7066  0.1383
 3048TIP3    H130635   4.995   2.036  15.043  2.0984  0.3517 -0.4999
 3048TIP3    H230636   5.032   1.901  14.983 -2.1305 -0.8011 -0.6465
 3049TIP3   OH230637   0.797   6.740  15.818 -0.5167  0.1188  0.3125
 3049TIP3    H130638   0.778   6.828  15.785  3.1038  0.6096 -0.6042
 3049TIP3    H230639   0.890   6.742  15.839 -0.6747 -3.1306  1.5294
 3050TIP3   OH230640   5.896   0.385  11.019 -0.0611  0.0238  0.1212
 3050TIP3    H130641   5.899   0.364  10.925 -0.7965  1.3739 -0.2228
 3050TIP3    H230642   5.807   0.417  11.033  0.1192  0.0348  1.2383
 3051TIP3   OH230643   6.403   2.246  12.486 -0.3350  0.0683 -0.2126
 3051TIP3    H130644   6.463   2.199  12.544  0.4068  0.4652 -0.6441
 3051TIP3    H230645   6.357   2.178  12.437 -0.6729 -0.2552  0.5551
 3052TIP3   OH230646   1.725   3.972   1.302  0.0260 -0.1775  0.1024
 3052TIP3    H130647   1.760   4.021   1.377  1.0153 -0.1935 -0.3492
 3052TIP3    H230648   1.630   3.988   1.306  0.3222  1.6860  0.0172
 3053TIP3   OH230649   5.349   2.862  13.783 -0.2734 -0.0139 -0.3150
 3053TIP3    H130650   5.289   2.899  13.848  0.4344 -1.2615  1.0936
 3053TIP3    H230651   5.302   2.786  13.748  0.1628 -0.5748  0.2812
 3054TIP3   OH230652   3.210   4.579   0.871  0.2980 -0.2126 -0.0910
 3054TIP3    H130653   3.121   4.608   0.854  0.8650  0.9900 -1.1633
 3054TIP3    H230654   3.222   4.504   0.812  0.1134 -0.1506 -0.2086
 3055TIP3   OH230655   3.641   5.679   0.530  0.1271 -0.3007 -0.1930
 3055TIP3    H130656   3.569   5.720   0.482 -2.7997 -3.2842  1.4300
 3055TIP3    H230657   3.683   5.622   0.465  0.4724  0.7642 -0.9141
 3056TIP3   OH230658   1.850   0.893   2.071 -0.4125  0.2508  0.1020
 3056TIP3    H130659   1.833   0.903   2.165 -1.0476 -1.4407  0.1834
 3056TIP3    H230660   1.791   0.823   2.043  0.1024  0.4267 -1.4745
 3057TIP3   OH230661   5.486   0.356  15.375 -1.1196 -0.1389  0.6938
 3057TIP3    H130662   5.522   0.400  15.298  1.1419 -0.8142  1.3156
 3057TIP3    H230663   5.558   0.301  15.407 -1.2636  1.6494  4.4665
 3058TIP3   OH230664   6.406   0.152  12.494 -0.0719  0.2460 -0.4590
 3058TIP3    H130665   6.413   0.105  12.412 -0.6446  0.7456 -0.7993
 3058TIP3    H230666   6.451   0.235  12.479  0.8324 -0.1340  0.1011
 3059TIP3   OH230667   3.375   0.131   4.804  0.3021  0.5601  0.4023
 3059TIP3    H130668   3.432   0.103   4.732 -0.4418  0.1196 -0.0216
 3059TIP3    H230669   3.369   0.226   4.794  1.2820  0.6637  0.6948
 3060TIP3   OH230670   0.400   2.811   1.976  0.1657  0.3079  0.1868
 3060TIP3    H130671   0.356   2.727   1.989  1.0074 -0.2976 -0.7742
 3060TIP3    H230672   0.472   2.811   2.040  0.3055  0.1953  0.0302
 3061TIP3   OH230673   4.515   0.119  14.060 -0.1420  0.0222 -0.3859
 3061TIP3    H130674   4.432   0.129  14.107  1.5423  0.8739  2.5211
 3061TIP3    H230675   4.562   0.052  14.109  1.3671  0.3714 -1.3362
 3062TIP3   OH230676   2.124   4.471   4.817  0.6753  0.4373 -0.2959
 3062TIP3    H130677   2.098   4.433   4.901 -0.6284 -0.2021 -0.9817
 3062TIP3    H230678   2.125   4.397   4.757 -0.6184  1.2669 -1.3543
 3063TIP3   OH230679   2.961   6.507   2.078 -0.0110 -0.1841 -0.3302
 3063TIP3    H130680   2.982   6.557   1.999  1.5282 -0.0332  0.1532
 3063TIP3    H230681   2.897   6.442   2.049 -1.2707  1.3880 -1.1923
 3064TIP3   OH230682   4.069   4.180  12.546 -0.3276  0.2021  0.1190
 3064TIP3    H130683   4.025   4.163  12.463 -2.5769 -1.4120  1.5848
 3064TIP3    H230684   4.128   4.105  12.557  1.8724  1.7039 -1.2151
 3065TIP3   OH230685   2.323   2.885   6.306 -0.3103  0.0722 -0.6124
 3065TIP3    H130686   2.355   2.957   6.251 -1.1225  0.1926 -0.9350
 3065TIP3    H230687   2.255   2.925   6.360 -0.0470 -0.2229 -0.0610
 3066TIP3   OH230688   5.868   1.742  11.393 -0.3681  0.3708 -0.2546
 3066TIP3    H130689   5.908   1.824  11.422  0.0308  0.1745 -0.2474
 3066TIP3    H230690   5.782   1.741  11.435 -0.4695  0.8957 -0.4402
 3067TIP3   OH230691   4.029   4.525  10.869 -0.4111 -1.0028 -0.4258
 3067TIP3    H130692   3.971   4.598  10.891  0.7984  0.4828 -2.0072
 3067TIP3    H230693   4.090   4.562  10.805 -0.4893 -3.7270 -2.1471
 3068TIP3   OH230694   5.332   2.188  15.217 -0.3299  0.4560 -0.2262
 3068TIP3    H130695   5.351   2.281  15.231  3.6370 -0.5993  2.3937
 3068TIP3    H230696   5.338   2.176  15.123  0.2591  2.6420 -0.4935
 3069TIP3   OH230697   0.302   3.093  14.308 -0.5136  0.3424  0.2163
 3069TIP3    H130698   0.368   3.107  14.240 -0.8535 -0.9453 -0.4031
 3069TIP3    H230699   0.351   3.054  14.381 -0.1858  1.5253  0.6321
 3070TIP3   OH230700   0.615   1.548  14.992 -0.3859 -0.2038  0.5359
 3070TIP3    H130701   0.622   1.618  14.928  0.0987 -0.0846  0.7206
 3070TIP3    H230702   0.682   1.485  14.967 -0.8238 -0.6070  0.3633
 3071TIP3   OH230703   4.994   2.126  13.393 -0.0629 -0.2126 -0.0989
 3071TIP3    H130704   5.074   2.140  13.443  0.7141 -1.7553 -0.8730
 3071TIP3    H230705   5.010   2.171  13.310 -0.3877  0.2910  0.1096
 3072TIP3   OH230706   5.473   2.011  13.204 -0.2765 -0.2182 -0.7921
 3072TIP3    H130707   5.489   2.079  13.269 -0.2052  0.6158 -1.6710
 3072TIP3    H230708   5.378   2.005  13.199 -0.2808 -0.5693 -0.3215
 3073TIP3   OH230709   6.189   4.806   3.446  0.4126  0.4962  0.0333
 3073TIP3    H130710   6.133   4.788   3.371  0.5445  0.8535 -0.1520
 3073TIP3    H230711   6.275   4.772   3.422  0.8973  2.1968 -0.6990
 3074TIP3   OH230712   3.624   1.671  13.608 -0.4659  0.0843  0.2246
 3074TIP3    H130713   3.655   1.597  13.555  0.5486 -0.2777  1.3040
 3074TIP3    H230714   3.534   1.647  13.631 -1.0383  0.4139 -1.6264
 3075TIP3   OH230715   5.385   6.287  13.273 -0.5120  0.1715  0.4426
 3075TIP3    H130716   5.329   6.226  13.225 -0.1511 -0.3095  0.6209
 3075TIP3    H230717   5.459   6.233  13.301  0.8171  1.1245 -1.1421
 3076TIP3   OH230718   6.741   4.158  14.994 -0.2359  0.2977  0.1772
 3076TIP3    H130719   6.795   4.160  14.915 -0.5886  0.4335 -0.0629
 3076TIP3    H230720   6.790   4.104  15.055  0.0543  0.2144 -0.1268
 3077TIP3   OH230721   5.276   3.807   2.930  0.1955 -0.0376  0.1681
 3077TIP3    H130722   5.347   3.746   2.912  0.3371  0.2176 -0.1400
 3077TIP3    H230723   5.230   3.769   3.004 -1.3267 -1.9023 -1.6837
 3078TIP3   OH230724   5.430   5.831   3.194  0.4241 -0.3540  0.1602
 3078TIP3    H130725   5.349   5.830   3.246  0.0681  1.0522 -0.3310
 3078TIP3    H230726   5.423   5.910   3.141  1.8832 -0.5148 -0.2978
 3079TIP3   OH230727   4.074   2.510   1.249 -0.3491  0.3968 -0.1025
 3079TIP3    H130728   4.102   2.586   1.197  0.0012 -0.7846 -1.6571
 3079TIP3    H230729   4.001   2.473   1.199 -0.0238 -0.7456  0.2670
 3080TIP3   OH230730   3.883   3.983  16.961  0.6405  0.5250 -0.0586
 3080TIP3    H130731   3.958   4.013  16.911  0.6397 -1.5617 -1.3451
 3080TIP3    H230732   3.920   3.952  17.044  1.2730 -1.0089 -0.9059
 3081TIP3   OH230733   5.591   1.671  14.058  0.2886  0.1962 -0.8690
 3081TIP3    H130734   5.501   1.649  14.083  0.1252 -0.2905 -1.8728
 3081TIP3    H230735   5.617   1.602  13.997  1.5655 -0.0008 -0.1201
 3082TIP3   OH230736   3.706   2.087  13.716 -0.9982 -0.4930 -0.5434
 3082TIP3    H130737   3.653   2.149  13.765 -1.2159 -0.5440 -0.7171
 3082TIP3    H230738   3.692   2.003  13.760 -2.3260 -0.8170 -1.5787
 3083TIP3   OH230739   0.208   1.580   0.655 -0.6964 -0.5457  0.3859
 3083TIP3    H130740   0.192   1.494   0.616  2.2917  0.0316 -2.3010
 3083TIP3    H230741   0.134   1.633   0.625 -0.1733 -0.9921 -1.7965
 3084TIP3   OH230742   0.524   5.913   2.564 -0.0084 -0.0984 -0.3467
 3084TIP3    H130743   0.591   5.973   2.532  0.1013 -0.8556 -1.5564
 3084TIP3    H230744   0.445   5.967   2.571  0.3104  0.3997 -0.5618
 3085TIP3   OH230745   6.589   3.026  13.414  0.0613 -0.3195 -0.1979
 3085TIP3    H130746   6.641   2.958  13.371  0.6429  0.2674 -0.4404
 3085TIP3    H230747   6.530   3.058  13.346  1.3443  0.9746 -0.7357
 3086TIP3   OH230748   5.652   1.349   1.556 -0.5909 -0.2066  0.1846
 3086TIP3    H130749   5.728   1.317   1.507  0.2848  1.0547  0.7015
 3086TIP3    H230750   5.622   1.424   1.506  0.8300  1.6231  1.9987
 3087TIP3   OH230751   1.391   4.919   1.639 -0.1942 -0.6795 -0.0796
 3087TIP3    H130752   1.453   4.936   1.709 -1.0355 -0.9032  0.7355
 3087TIP3    H230753   1.442   4.928   1.558  0.1059  2.6438  0.4181
 3088TIP3   OH230754   3.241   2.962  11.407  0.4534  0.0396 -0.0367
 3088TIP3    H130755   3.168   2.904  11.387  0.6753 -0.4175  0.4680
 3088TIP3    H230756   3.300   2.909  11.461 -0.3043  1.3182  2.1542
 3089TIP3   OH230757   3.368   5.272   6.601  0.3488 -0.7134 -0.1578
 3089TIP3    H130758   3.421   5.209   6.649  1.6831 -0.0300 -0.7133
 3089TIP3    H230759   3.384   5.355   6.646 -0.5900 -0.5718 -0.0690
 3090TIP3   OH230760   5.267   2.009  17.090  0.8744  0.9168 -0.0031
 3090TIP3    H130761   5.227   2.086  17.050 -0.0218  0.1924 -0.5292
 3090TIP3    H230762   5.206   1.985  17.161  0.8903  0.3936 -0.1668
 3091TIP3   OH230763   2.403   2.253  12.597  0.1090  0.1947  0.4077
 3091TIP3    H130764   2.382   2.262  12.690 -0.4335 -0.2921  0.3294
 3091TIP3    H230765   2.498   2.243  12.595 -0.0561 -1.5413  1.0304
 3092TIP3   OH230766   3.024   2.846   4.392 -0.4220  0.2725 -0.2488
 3092TIP3    H130767   3.083   2.893   4.332  0.7871 -0.6804  0.1848
 3092TIP3    H230768   3.082   2.794   4.447 -1.8146 -3.2971 -2.0269
 3093TIP3   OH230769   1.287   4.699   4.023  0.6317 -0.4414  0.6395
 3093TIP3    H130770   1.346   4.680   4.096  0.1945  2.0073  1.6651
 3093TIP3    H230771   1.200   4.676   4.056  0.4220  0.7677  0.9428
 3094TIP3   OH230772   6.748   4.331   0.373 -0.4794 -0.1722 -0.0910
 3094TIP3    H130773   6.777   4.251   0.417 -0.1672  0.1361  0.2738
 3094TIP3    H230774   6.700   4.379   0.441 -1.4381 -0.4557 -0.5564
 3095TIP3   OH230775   1.863   2.291  14.915 -0.6086  0.1466  0.2126
 3095TIP3    H130776   1.798   2.347  14.871 -0.6597  0.6259  0.8786
 3095TIP3    H230777   1.884   2.339  14.996 -0.5287 -0.7237  0.7114
 3096TIP3   OH230778   3.495   3.472   5.274 -0.2456 -0.5301  0.1566
 3096TIP3    H130779   3.437   3.540   5.241  2.1986  1.7461  0.3649
 3096TIP3    H230780   3.582   3.499   5.246  1.0535 -2.3727  2.2188
 3097TIP3   OH230781   5.352   2.845  10.416 -0.0114  0.4063  0.5499
 3097TIP3    H130782   5.363   2.764  10.366  0.2913  0.6520  0.2211
 3097TIP3    H230783   5.424   2.845  10.478 -1.0057 -0.4442  1.7462
 3098TIP3   OH230784   0.833   6.265  15.670  0.1986  0.4408 -0.2585
 3098TIP3    H130785   0.904   6.205  15.696  0.6472  1.3276  0.5591
 3098TIP3    H230786   0.756   6.231  15.715 -0.2167 -1.3724 -2.2704
 3099TIP3   OH230787   5.702   2.767   2.351 -0.2686  0.0394 -0.1357
 3099TIP3    H130788   5.765   2.790   2.281 -1.2698 -0.9713 -1.3980
 3099TIP3    H230789   5.622   2.814   2.327 -0.6903 -0.5086  0.2127
 3100TIP3   OH230790   3.232   0.421  15.979 -0.2433  0.2172  0.1173
 3100TIP3    H130791   3.245   0.357  16.050 -2.5717  0.2832  0.6333
 3100TIP3    H230792   3.248   0.505  16.021 -0.5686  0.1874  0.3051
 3101TIP3   OH230793   3.461   0.799  16.198 -0.2467 -0.2851 -0.4308
 3101TIP3    H130794   3.454   0.789  16.293  0.1119 -1.2254 -0.4954
 3101TIP3    H230795   3.446   0.892  16.183  0.6254  0.0423  0.6397
 3102TIP3   OH230796   5.362   6.108  15.132  0.6250  0.1589 -0.2978
 3102TIP3    H130797   5.406   6.143  15.054  1.5286  2.1831  1.0821
 3102TIP3    H230798   5.364   6.180  15.195 -2.7050 -0.4345  0.6023
 3103TIP3   OH230799   4.264   5.571   2.949  0.5608 -0.0904 -0.2053
 3103TIP3    H130800   4.312   5.513   2.890 -0.4636 -1.5781  0.3895
 3103TIP3    H230801   4.172   5.553   2.931  0.2197  1.2810  0.0725
 3104TIP3   OH230802   2.066   2.886  16.548  0.0843  0.2117 -0.4861
 3104TIP3    H130803   2.084   2.900  16.455 -1.0848 -0.9756 -0.9113
 3104TIP3    H230804   2.048   2.792  16.555 -0.1040  0.3396  0.8932
 3105TIP3   OH230805   6.817   3.198   3.522  0.2414 -0.1922 -0.3171
 3105TIP3    H130806   6.738   3.222   3.473  0.1667 -1.9532 -1.1105
 3105TIP3    H230807   6.816   3.255   3.599 -1.9527 -0.3604 -0.1874
 3106TIP3   OH230808   0.696   0.156   3.523 -0.2264  0.0333  0.5148
 3106TIP3    H130809   0.644   0.224   3.566  0.5434 -0.2802  1.9779
 3106TIP3    H230810   0.760   0.205   3.471  0.2657  0.4460  1.4861
 3107TIP3   OH230811   2.720   1.577   5.867  0.1361  0.0740 -0.1756
 3107TIP3    H130812   2.716   1.534   5.952  1.0472 -0.5431 -0.4366
 3107TIP3    H230813   2.700   1.668   5.885 -1.4499 -0.3821  0.4420
 3108TIP3   OH230814   0.869   3.857   4.547 -0.4460 -0.1266  0.6437
 3108TIP3    H130815   0.801   3.919   4.573  0.2104  0.5385  0.7954
 3108TIP3    H230816   0.923   3.905   4.485 -0.6490 -0.9577 -0.1985
 3109TIP3   OH230817   0.943   1.028   3.275 -0.2589  0.3155  0.1865
 3109TIP3    H130818   1.001   0.988   3.340  0.9942 -2.6146 -2.5959
 3109TIP3    H230819   0.919   1.113   3.313  2.8632  0.0172  3.0577
 3110TIP3   OH230820   0.066   5.826   3.502  0.1233 -0.3758  0.6409
 3110TIP3    H130821   0.066   5.909   3.454 -0.0946 -0.6191  0.2188
 3110TIP3    H230822   0.157   5.811   3.526  0.0431  0.4517  1.5246
 3111TIP3   OH230823   5.390   2.362  11.766  0.1906  0.3436  0.0631
 3111TIP3    H130824   5.409   2.372  11.859  0.5722 -0.2535  0.0539
 3111TIP3    H230825   5.382   2.451  11.733  0.3998  0.5600  0.5954
 3112TIP3   OH230826   3.835   6.113  13.390  0.3616  0.3843  0.1497
 3112TIP3    H130827   3.773   6.094  13.320  1.4668 -0.0735 -0.7200
 3112TIP3    H230828   3.821   6.206  13.411 -1.7703 -0.1407  1.1430
 3113TIP3   OH230829   6.590   3.500  12.058  0.4751  0.2530 -0.2034
 3113TIP3    H130830   6.658   3.533  11.999  0.2586  3.2240  1.1061
 3113TIP3    H230831   6.510   3.544  12.030 -0.3145 -0.9793  0.0985
 3114TIP3   OH230832   1.312   3.612   5.411 -0.0751  0.9443 -0.0217
 3114TIP3    H130833   1.360   3.543   5.456  0.0720  1.2932  0.3594
 3114TIP3    H230834   1.226   3.614   5.453 -0.1665  0.8169 -0.2054
 3115TIP3   OH230835   4.203   0.162  13.789 -0.2904 -0.4378  0.2322
 3115TIP3    H130836   4.287   0.152  13.745  0.0973  1.7821  0.4143
 3115TIP3    H230837   4.163   0.239  13.748 -3.0642 -2.4927 -1.1284
 3116TIP3   OH230838   0.873   6.781  12.623 -0.0595 -0.3533 -0.5131
 3116TIP3    H130839   0.819   6.758  12.547  0.6380 -1.1088 -0.7781
 3116TIP3    H230840   0.915   6.699  12.649  1.2496  0.2933 -0.5375
 3117TIP3   OH230841   1.759   4.597  13.295  0.2898  0.2105 -0.1192
 3117TIP3    H130842   1.700   4.544  13.242  1.5607 -0.1330 -1.2143
 3117TIP3    H230843   1.712   4.679  13.310 -0.4850 -0.0932 -0.9116
 3118TIP3   OH230844   5.106   4.126  10.911 -0.4271 -0.3137 -0.2335
 3118TIP3    H130845   5.108   4.042  10.866  0.8893  0.8990 -2.5407
 3118TIP3    H230846   5.037   4.117  10.977 -3.6257 -1.6266 -3.6253
 3119TIP3   OH230847   3.831   0.393   4.302 -0.0945 -0.2831  0.6038
 3119TIP3    H130848   3.803   0.369   4.214  0.8964 -1.2386  0.5297
 3119TIP3    H230849   3.753   0.382   4.356 -0.8575  0.8924 -0.2492
 3120TIP3   OH230850   3.871   5.194   0.491  0.3792 -0.7722  0.3984
 3120TIP3    H130851   3.931   5.267   0.477 -1.1138  0.6542  1.2371
 3120TIP3    H230852   3.887   5.135   0.416  0.4180  1.2374 -1.2154
 3121TIP3   OH230853   0.204   4.480   1.829 -0.3693 -0.1237 -0.1887
 3121TIP3    H130854   0.287   4.434   1.825  0.6800  1.6628  0.4280
 3121TIP3    H230855   0.144   4.428   1.775  1.9766  0.3058 -3.2829
 3122TIP3   OH230856   0.599   2.526  13.535 -0.1886 -0.6632 -0.4022
 3122TIP3    H130857   0.682   2.511  13.581 -1.0112 -2.0028  0.6660
 3122TIP3    H230858   0.591   2.451  13.476 -0.1200  0.0272 -1.3057
 3123TIP3   OH230859   3.416   4.562  12.712  0.3998  0.5749 -0.5538
 3123TIP3    H130860   3.345   4.505  12.744  0.3340  0.1781 -1.4075
 3123TIP3    H230861   3.391   4.649  12.742 -0.5886  0.4807 -1.0665
 3124TIP3   OH230862   2.705   2.157   4.713  0.3695  0.2226  0.1755
 3124TIP3    H130863   2.796   2.127   4.719  0.4694  0.4219 -0.2988
 3124TIP3    H230864   2.663   2.123   4.791  1.3576  1.8779  1.4585
 3125TIP3   OH230865   3.770   0.701  16.860  0.3197  0.1666  0.1926
 3125TIP3    H130866   3.705   0.718  16.792  0.0367  0.8364  0.6292
 3125TIP3    H230867   3.736   0.624  16.906 -0.9474  1.4107  1.3748
 3126TIP3   OH230868   1.846   1.303   1.474 -0.1865 -0.5386 -0.4538
 3126TIP3    H130869   1.862   1.389   1.512 -2.2175  0.0286 -0.8570
 3126TIP3    H230870   1.931   1.276   1.439  0.5255  1.1533 -0.0709
 3127TIP3   OH230871   1.025   6.713   6.643 -0.8413 -0.5216  0.1238
 3127TIP3    H130872   1.038   6.660   6.721 -2.2086  1.2280  1.5617
 3127TIP3    H230873   1.094   6.780   6.647 -0.5324 -0.8007 -0.4827
 3128TIP3   OH230874   6.548   4.030  12.212 -0.1878  0.1552  0.0871
 3128TIP3    H130875   6.571   4.115  12.177 -1.8727  0.5528 -0.0807
 3128TIP3    H230876   6.458   4.039  12.243 -0.8819 -1.9176 -1.1643
 3129TIP3   OH230877   3.187   6.566   3.085  0.4904  0.3702 -0.1085
 3129TIP3    H130878   3.152   6.500   3.025  1.4604  0.8012 -1.1434
 3129TIP3    H230879   3.234   6.627   3.030  0.4639  1.3827  0.9731
 3130TIP3   OH230880   1.519   1.968  15.242  0.1749  0.2162  0.1176
 3130TIP3    H130881   1.534   1.919  15.161 -1.9394 -1.5612  0.7411
 3130TIP3    H230882   1.428   1.948  15.265 -0.7936  4.4457  0.4291
 3131TIP3   OH230883   1.707   3.331  16.557  0.8722  0.2969 -0.1573
 3131TIP3    H130884   1.772   3.333  16.486 -0.5550 -0.4223 -1.5308
 3131TIP3    H230885   1.695   3.237  16.575  0.7497  0.4566  0.5984
 3132TIP3   OH230886   0.039   6.017   4.255 -0.3277 -0.1416 -0.6289
 3132TIP3    H130887  -0.001   5.950   4.200  1.2857 -1.0959 -0.6871
 3132TIP3    H230888   0.129   5.986   4.269 -0.2946  0.7829  1.3887
 3133TIP3   OH230889   1.009   2.871   5.600  0.0657 -0.2116 -0.3964
 3133TIP3    H130890   0.944   2.821   5.649 -0.9362 -0.2562 -1.7338
 3133TIP3    H230891   1.008   2.958   5.640 -0.5325 -0.3281 -0.1476
 3134TIP3   OH230892   1.782   2.962   2.148  0.4761 -0.4656  0.7093
 3134TIP3    H130893   1.726   2.951   2.225  0.4264 -1.8883  0.4898
 3134TIP3    H230894   1.832   2.881   2.143  0.5776 -0.3295 -0.6811
 3135TIP3   OH230895   6.145   1.002  14.530 -0.3593  0.1578 -0.0741
 3135TIP3    H130896   6.076   0.940  14.554 -0.4547 -0.6525 -2.3372
 3135TIP3    H230897   6.134   1.015  14.436  2.7007 -0.1808 -0.5420
 3136TIP3   OH230898   0.948   0.893  14.757 -0.1374  0.6719 -0.8074
 3136TIP3    H130899   0.931   0.955  14.686  0.5160  0.0877 -1.4902
 3136TIP3    H230900   0.885   0.917  14.825 -0.5509  1.4563 -1.4474
 3137TIP3   OH230901   3.228   2.226  16.242  0.7580  0.1220  0.1490
 3137TIP3    H130902   3.234   2.214  16.336 -0.7896 -0.5844  0.1641
 3137TIP3    H230903   3.142   2.192  16.218  0.7014  1.2472 -1.3718
 3138TIP3   OH230904   5.809   3.983   4.471  0.1995  0.2620  0.3020
 3138TIP3    H130905   5.819   3.907   4.413  0.2238  1.1102 -0.8207
 3138TIP3    H230906   5.898   4.008   4.495  0.2509  0.6572 -0.2878
 3139TIP3   OH230907   4.528   4.203   1.305 -0.7905  0.9037  0.2135
 3139TIP3    H130908   4.604   4.169   1.352 -0.8579  2.5061  1.5308
 3139TIP3    H230909   4.556   4.206   1.213  0.0357 -0.3861  0.4172
 3140TIP3   OH230910   2.045   3.153  13.181 -0.1150 -0.0183  0.0846
 3140TIP3    H130911   1.999   3.117  13.257  1.0566 -2.2922 -0.2156
 3140TIP3    H230912   2.108   3.215  13.218 -0.5636 -0.0106  0.8505
 3141TIP3   OH230913   0.823   0.811   0.051 -0.0988  0.0779  0.0315
 3141TIP3    H130914   0.742   0.794   0.099  0.0945  0.3951  0.4727
 3141TIP3    H230915   0.860   0.887   0.094 -0.0625  0.5342 -0.8018
 3142TIP3   OH230916   0.547   6.081  14.477  0.3007  0.0497  0.0737
 3142TIP3    H130917   0.580   6.077  14.567  0.9838  0.1611 -0.1691
 3142TIP3    H230918   0.552   5.990  14.446  1.3675  0.2282 -0.3069
 3143TIP3   OH230919   1.577   3.366  12.233  0.6238  1.1716 -0.4563
 3143TIP3    H130920   1.555   3.287  12.283  0.4384  0.7380 -1.2274
 3143TIP3    H230921   1.610   3.427  12.299  0.5745  0.5257  0.1705
 3144TIP3   OH230922   6.785   1.218  11.975  0.0332  0.2405 -0.4879
 3144TIP3    H130923   6.790   1.284  12.045  1.3493 -0.7079  0.3215
 3144TIP3    H230924   6.696   1.185  11.981  0.1558  0.1095  0.8035
 3145TIP3   OH230925   4.143   3.068   5.875  0.1272  0.2311  0.5975
 3145TIP3    H130926   4.109   3.129   5.940 -1.1754  0.6371 -0.4595
 3145TIP3    H230927   4.127   2.981   5.913 -1.4474  0.4382  0.4122
 3146TIP3   OH230928   3.092   4.458   2.013  0.1713 -0.3678 -0.6919
 3146TIP3    H130929   3.011   4.408   2.002 -0.1729 -0.0246  0.1935
 3146TIP3    H230930   3.114   4.446   2.106  0.1686  0.9859 -0.5092
 3147TIP3   OH230931   4.827   0.406  10.785 -0.6831  0.2230  0.5128
 3147TIP3    H130932   4.881   0.390  10.862  0.1667  1.2532  0.1531
 3147TIP3    H230933   4.854   0.338  10.722  2.2417  2.3494 -0.6799
 3148TIP3   OH230934   6.579   1.781  15.036  0.1897 -0.6736  0.0719
 3148TIP3    H130935   6.596   1.821  15.121 -3.7592  1.3779 -0.0160
 3148TIP3    H230936   6.513   1.714  15.053  0.0394 -0.8673 -1.2269
 3149TIP3   OH230937   0.614   5.212  15.471 -0.2680 -0.2130 -0.2970
 3149TIP3    H130938   0.623   5.117  15.478  2.5536 -0.0731 -1.4603
 3149TIP3    H230939   0.528   5.230  15.510 -0.9764 -3.2389 -0.2811
 3150TIP3   OH230940   3.094   2.561   0.469  0.2494  0.3672  1.0531
 3150TIP3    H130941   3.032   2.492   0.445  2.1165 -0.8440 -0.5381
 3150TIP3    H230942   3.047   2.643   0.453  0.1806 -0.4315 -3.7252
 3151TIP3   OH230943   4.149   4.857  16.295  0.3026 -0.4272 -0.3633
 3151TIP3    H130944   4.079   4.913  16.261  0.7096 -1.0297 -2.2206
 3151TIP3    H230945   4.203   4.916  16.348 -1.0046  0.2594  0.2397
 3152TIP3   OH230946   2.307   6.718  16.086  0.1352  0.2656  0.2758
 3152TIP3    H130947   2.293   6.772  16.009 -1.3399 -0.9285 -0.3201
 3152TIP3    H230948   2.306   6.779  16.160 -1.0154  1.1076 -0.4300
 3153TIP3   OH230949   0.288   6.214  14.739 -0.1985 -0.2967 -0.1786
 3153TIP3    H130950   0.240   6.291  14.769  0.0996 -0.3215  0.3684
 3153TIP3    H230951   0.363   6.250  14.690 -1.3464 -0.2668 -1.9592
 3154TIP3   OH230952   2.553   2.112  12.845 -0.5049  0.1613 -0.1350
 3154TIP3    H130953   2.514   2.024  12.843 -1.2177  0.4957 -2.6084
 3154TIP3    H230954   2.647   2.096  12.833 -0.7523 -0.2251 -1.6552
 3155TIP3   OH230955   2.061   3.176  14.361  0.1685  0.3741  0.1622
 3155TIP3    H130956   2.151   3.170  14.329 -0.3133 -2.2695 -0.8235
 3155TIP3    H230957   2.007   3.139  14.290 -1.6877  1.8239  0.7670
 3156TIP3   OH230958   1.111   3.595   5.645  0.0271  0.2104 -0.9606
 3156TIP3    H130959   1.077   3.605   5.734  0.9649  1.1705 -0.7052
 3156TIP3    H230960   1.038   3.556   5.596 -0.2200 -1.0733  0.4014
 3157TIP3   OH230961   1.297   0.264   0.289 -0.1050  0.4375  0.0609
 3157TIP3    H130962   1.346   0.336   0.329 -0.6961  1.0672 -0.3337
 3157TIP3    H230963   1.233   0.239   0.356 -0.3101  0.6914 -0.0430
 3158TIP3   OH230964   3.490   1.114  12.081 -0.1255 -0.1423  0.0593
 3158TIP3    H130965   3.508   1.067  12.000  0.7002  0.5530 -0.1664
 3158TIP3    H230966   3.572   1.157  12.103 -0.1389 -0.9014  1.6555
 3159TIP3   OH230967   2.876   0.521  17.061  0.4264  0.2204 -0.0656
 3159TIP3    H130968   2.804   0.477  17.106  1.4110 -0.7223  0.6221
 3159TIP3    H230969   2.945   0.454  17.055  1.7882  1.5221  0.6077
 3160TIP3   OH230970   0.043   4.192  10.975  0.6963  0.4509  0.0679
 3160TIP3    H130971   0.112   4.153  11.028  0.6541  0.5054  0.1628
 3160TIP3    H230972   0.001   4.118  10.932  1.5493  0.5174 -0.8882
 3161TIP3   OH230973   2.692   1.168  16.357  0.0479 -0.4677  0.6215
 3161TIP3    H130974   2.753   1.184  16.286 -0.9785  0.5325 -0.0627
 3161TIP3    H230975   2.714   1.081  16.390  1.0045 -0.6318 -0.4355
 3162TIP3   OH230976   5.727   5.192   2.457  0.1156 -0.3046  0.4072
 3162TIP3    H130977   5.737   5.230   2.544  2.8234 -1.0567  0.4736
 3162TIP3    H230978   5.737   5.266   2.397  2.5276 -0.4169  0.6268
 3163TIP3   OH230979   6.696   0.322   3.946 -0.4079  0.1590 -0.2838
 3163TIP3    H130980   6.765   0.301   3.884  0.5499 -0.3475  0.9452
 3163TIP3    H230981   6.691   0.417   3.945  2.3035  0.3730  1.7410
 3164TIP3   OH230982   4.427   2.160   6.329 -0.4678 -0.0236  0.2022
 3164TIP3    H130983   4.399   2.248   6.304 -1.0566 -0.2525  0.0464
 3164TIP3    H230984   4.455   2.119   6.247  2.5042  0.9680  0.6696
 3165TIP3   OH230985   0.432   1.773  11.667 -0.1806  0.4030  0.2042
 3165TIP3    H130986   0.378   1.748  11.593  1.4571 -1.3801 -0.4277
 3165TIP3    H230987   0.493   1.838  11.631  0.1839  0.0298  0.1471
 3166TIP3   OH230988   3.358   1.835   4.323  0.8973 -0.4501  0.1497
 3166TIP3    H130989   3.395   1.810   4.239  0.3644  1.4820 -0.6949
 3166TIP3    H230990   3.425   1.891   4.363  1.0963 -1.2591  0.9520
 3167TIP3   OH230991   0.461   5.668  12.386  0.0426 -0.1662  0.6619
 3167TIP3    H130992   0.484   5.599  12.323 -1.3331 -0.0695  0.0485
 3167TIP3    H230993   0.451   5.746  12.332  0.7094  0.3245  1.2470
 3168TIP3   OH230994   3.254   1.411  15.868 -0.3435  0.0538 -0.3816
 3168TIP3    H130995   3.260   1.402  15.773  0.3926  2.9305 -0.6594
 3168TIP3    H230996   3.293   1.497  15.887 -2.1335  0.3411  2.3313
 3169TIP3   OH230997   3.425   1.989  16.824  0.0217  0.2810  0.1169
 3169TIP3    H130998   3.379   1.973  16.741 -0.6751  1.9926  0.1560
 3169TIP3    H230999   3.372   2.054  16.869  1.7230  1.2614  0.7893
 3170TIP3   OH231000   2.192   6.786   2.426  0.1289  0.0030  0.0715
 3170TIP3    H131001   2.254   6.759   2.358 -0.8245 -2.1859  0.0391
 3170TIP3    H231002   2.168   6.704   2.470 -0.4801  1.2010  2.0140
 3171TIP3   OH231003   4.362   1.260  16.660 -0.2736 -0.9634 -0.2123
 3171TIP3    H131004   4.437   1.205  16.636  0.2005  0.4285 -2.0089
 3171TIP3    H231005   4.355   1.324  16.589 -0.9971  1.1191  1.6479
 3172TIP3   OH231006   2.202   6.102   6.334 -0.5109 -0.2334 -0.2010
 3172TIP3    H131007   2.260   6.089   6.260  0.2762  0.3609  0.3106
 3172TIP3    H231008   2.155   6.183   6.314  0.2770  0.3514  0.3292
 3173TIP3   OH231009   0.383   0.018   0.544  0.2989  0.1989 -0.1726
 3173TIP3    H131010   0.457  -0.018   0.594 -0.7446 -1.2203  0.3740
 3173TIP3    H231011   0.373  -0.042   0.469 -2.5390 -1.7266  1.6529
 3174TIP3   OH231012   0.164   5.726  14.817 -0.5062  0.1124 -0.0368
 3174TIP3    H131013   0.242   5.672  14.829  0.3916  0.7032 -2.7859
 3174TIP3    H231014   0.095   5.678  14.863  0.7355 -2.2637 -0.5414
 3175TIP3   OH231015   5.905   5.900   1.080 -0.2114  0.3521  0.0854
 3175TIP3    H131016   5.998   5.922   1.077 -0.4668  1.4165 -0.0703
 3175TIP3    H231017   5.876   5.909   0.989 -0.9480  2.1050  0.4907
 3176TIP3   OH231018   0.288   4.147   0.396 -0.8291  0.2629 -0.0677
 3176TIP3    H131019   0.339   4.066   0.402 -0.8007  0.2674 -0.2444
 3176TIP3    H231020   0.349   4.215   0.424 -0.4266  0.3902 -1.1954
 3177TIP3   OH231021   3.423   5.861  13.396 -0.0541 -0.1039  0.7279
 3177TIP3    H131022   3.343   5.902  13.364  0.6309  0.6902 -0.0270
 3177TIP3    H231023   3.395   5.780  13.438 -1.4293  1.0987  2.1473
 3178TIP3   OH231024   4.046   0.937   4.952  0.3905  0.9056 -0.2701
 3178TIP3    H131025   3.963   0.983   4.938 -0.3539 -0.3356 -0.0474
 3178TIP3    H231026   4.044   0.909   5.043  1.6766  2.0614  0.1193
 3179TIP3   OH231027   0.552   0.615   0.941  0.9260  0.2671 -0.0704
 3179TIP3    H131028   0.629   0.630   0.996  0.8976  1.0490 -0.2280
 3179TIP3    H231029   0.534   0.522   0.949  1.2396  0.2769  0.8322
 3180TIP3   OH231030   6.110   5.499   4.959  0.6061  0.3246  0.6125
 3180TIP3    H131031   6.162   5.421   4.977  1.7133  0.8487 -0.2279
 3180TIP3    H231032   6.154   5.541   4.885 -0.7480  1.0349  0.1910
 3181TIP3   OH231033   2.721   6.384  15.965 -0.1045  0.3952  0.7507
 3181TIP3    H131034   2.786   6.318  15.942 -0.1571  0.9992 -1.3006
 3181TIP3    H231035   2.723   6.389  16.060  2.6403  0.1937  0.7268
 3182TIP3   OH231036   5.835   4.932   3.547  0.0971 -0.1528  0.1050
 3182TIP3    H131037   5.755   4.919   3.497 -0.6735 -0.1832  1.3286
 3182TIP3    H231038   5.904   4.890   3.494 -1.1374 -2.6674  0.4102
 3183TIP3   OH231039   2.534   6.169  16.198 -0.1736 -0.0861 -0.0211
 3183TIP3    H131040   2.448   6.203  16.221 -0.3580  0.8440 -2.0129
 3183TIP3    H231041   2.559   6.216  16.119  1.8653 -0.8486  0.1194
 3184TIP3   OH231042   4.682   5.078  13.404  0.5967 -0.2320 -0.0001
 3184TIP3    H131043   4.737   5.147  13.442 -0.2739  0.5526 -0.1573
 3184TIP3    H231044   4.636   5.041  13.480 -1.2223  1.4072 -0.2707
 3185TIP3   OH231045   6.429   4.534  16.450  0.0665  0.2473 -0.2675
 3185TIP3    H131046   6.358   4.595  16.467  1.0583  1.9091 -1.9657
 3185TIP3    H231047   6.499   4.561  16.509  0.6225  0.9844 -1.2480
 3186TIP3   OH231048   5.414   2.190   0.079 -0.3651 -0.4749 -0.1816
 3186TIP3    H131049   5.493   2.243   0.069 -0.0729 -0.2154  2.8017
 3186TIP3    H231050   5.446   2.105   0.111 -1.2755 -0.1416  1.7400
 3187TIP3   OH231051   3.135   4.548   3.218 -0.1424  0.4017  0.3500
 3187TIP3    H131052   3.177   4.563   3.134 -1.2478 -1.3134 -0.5491
 3187TIP3    H231053   3.089   4.465   3.207 -1.1437  0.6622  2.3162
 3188TIP3   OH231054   1.104   0.364   5.510  0.1218 -0.3785 -0.8898
 3188TIP3    H131055   1.182   0.321   5.474 -1.2641 -1.6020 -2.4875
 3188TIP3    H231056   1.046   0.376   5.435 -1.8897 -0.9394  0.5436
 3189TIP3   OH231057   3.130   4.147  16.982  0.1672  0.2191 -0.1453
 3189TIP3    H131058   3.155   4.157  16.890  0.6226 -0.3027 -0.0827
 3189TIP3    H231059   3.137   4.053  16.999 -1.3339  0.1307  0.0294
 3190TIP3   OH231060   1.806   1.145   1.692 -0.4133  0.6817 -0.3346
 3190TIP3    H131061   1.714   1.126   1.675 -0.5457  0.0372  0.9918
 3190TIP3    H231062   1.832   1.205   1.623 -1.5614  0.0840 -1.2920
 3191TIP3   OH231063   4.065   1.513  14.738 -0.2177  0.2277 -0.0710
 3191TIP3    H131064   4.058   1.478  14.649  0.0611  1.1177 -0.4510
 3191TIP3    H231065   4.057   1.608  14.727 -0.9835  0.2797  0.9488
 3192TIP3   OH231066   3.798   0.116  15.979 -0.3001  0.3829 -0.1353
 3192TIP3    H131067   3.874   0.102  16.036  1.2713 -0.3598 -2.3211
 3192TIP3    H231068   3.787   0.211  15.975 -2.6424  0.3902  4.1429
 3193TIP3   OH231069   2.634   5.346  12.537 -0.0797 -0.1662 -0.4156
 3193TIP3    H131070   2.674   5.345  12.450 -0.1745  0.7776 -0.4693
 3193TIP3    H231071   2.577   5.423  12.536  0.1949  0.0489  0.6094
 3194TIP3   OH231072   2.569   0.555  14.221  0.0345  0.4713  0.4627
 3194TIP3    H131073   2.601   0.474  14.181 -1.9965 -0.3278  0.3768
 3194TIP3    H231074   2.523   0.527  14.300  0.7717  1.7073  1.3454
 3195TIP3   OH231075   4.443   1.698  13.354  0.1525  0.3291  0.4162
 3195TIP3    H131076   4.470   1.610  13.327 -2.8751 -1.4400  2.8441
 3195TIP3    H231077   4.416   1.688  13.445 -0.4454  3.7553  0.6794
 3196TIP3   OH231078   3.242   4.732  10.683 -0.1351 -0.4611  0.1438
 3196TIP3    H131079   3.186   4.776  10.746  1.1321  1.9236 -0.3707
 3196TIP3    H231080   3.230   4.780  10.601  0.8566 -1.3754 -0.5640
 3197TIP3   OH231081   3.901   1.295   0.408 -0.1197  0.1772 -0.3373
 3197TIP3    H131082   3.932   1.373   0.455 -1.4063 -0.1386  1.0751
 3197TIP3    H231083   3.830   1.326   0.353 -0.7313 -0.0177  0.3372
 3198TIP3   OH231084   3.122   3.584   4.811  0.1794 -0.4436  0.3840
 3198TIP3    H131085   3.063   3.659   4.815 -0.4713 -0.9054 -0.2398
 3198TIP3    H231086   3.068   3.513   4.776  1.0929 -0.8917 -0.1505
 3199TIP3   OH231087   5.298   0.624  16.446 -0.0911  0.2361 -0.0596
 3199TIP3    H131088   5.385   0.626  16.405 -1.2223 -0.4518 -2.5757
 3199TIP3    H231089   5.275   0.531  16.448 -0.2565  0.2959  1.7999
 3200TIP3   OH231090   1.737   0.751   4.289 -0.2234 -0.5803  0.3011
 3200TIP3    H131091   1.753   0.657   4.295 -1.4434 -0.7656  0.9316
 3200TIP3    H231092   1.648   0.762   4.324  0.1821  0.8917  0.8947
 3201TIP3   OH231093   5.363   6.130   0.760  0.3617 -0.4655  0.4469
 3201TIP3    H131094   5.294   6.120   0.694 -0.4832  0.0023  1.2452
 3201TIP3    H231095   5.331   6.082   0.836  1.6534 -1.5975  0.2978
 3202TIP3   OH231096   3.849   5.338  13.843  0.4162 -0.3490 -1.0231
 3202TIP3    H131097   3.837   5.270  13.910 -0.5271  1.0039  0.2322
 3202TIP3    H231098   3.760   5.361  13.817  0.7230  0.4097 -1.4164
 3203TIP3   OH231099   6.486   6.075  15.454 -0.0369 -0.2074 -0.3414
 3203TIP3    H131100   6.453   6.128  15.381 -0.2376  0.2165  0.0539
 3203TIP3    H231101   6.471   5.985  15.427  1.7625 -0.1138 -1.7130
 3204TIP3   OH231102   1.843   2.450  12.160 -0.3860  0.3015 -0.2944
 3204TIP3    H131103   1.825   2.400  12.081  0.3884  0.5536 -0.6289
 3204TIP3    H231104   1.854   2.540  12.130  1.1095  0.2020 -0.0463
 3205TIP3   OH231105   5.313   1.577  16.506  0.4197 -0.5254  0.7611
 3205TIP3    H131106   5.280   1.489  16.488  1.1985 -0.9637  1.4817
 3205TIP3    H231107   5.234   1.632  16.508 -0.0822 -1.2353  0.5222
 3206TIP3   OH231108   3.126   1.027   1.774 -0.7468 -0.0233 -0.5183
 3206TIP3    H131109   3.219   1.047   1.768 -0.3391 -1.3773  0.7589
 3206TIP3    H231110   3.088   1.100   1.824 -0.0145 -0.4242  0.6340
 3207TIP3   OH231111   2.984   1.509  16.410  0.3087  0.3262  0.3058
 3207TIP3    H131112   2.957   1.591  16.367  0.8542  0.3373 -0.0373
 3207TIP3    H231113   3.037   1.538  16.484  0.5164  0.2882  0.1731
 3208TIP3   OH231114   6.120   6.715  14.576 -0.0721  0.0552 -0.4497
 3208TIP3    H131115   6.109   6.727  14.671 -0.4399  1.5198 -0.6598
 3208TIP3    H231116   6.132   6.621  14.565 -0.8580 -0.2344  0.9786
 3209TIP3   OH231117   0.482   1.118  13.043 -0.6063  0.1878  0.0559
 3209TIP3    H131118   0.566   1.088  13.078 -0.6681 -0.8873 -0.7017
 3209TIP3    H231119   0.430   1.139  13.120  0.0961  0.1441  0.5468
 3210TIP3   OH231120   5.992   2.657   4.592 -0.2602  0.0769 -0.2845
 3210TIP3    H131121   5.910   2.608   4.597 -0.6232  0.7988  1.0368
 3210TIP3    H231122   6.060   2.591   4.606 -0.5697 -0.5959 -1.7762
 3211TIP3   OH231123   5.003   4.742   2.638 -0.4977  0.1505 -0.7250
 3211TIP3    H131124   4.916   4.770   2.610 -1.0324 -2.1093 -1.4643
 3211TIP3    H231125   5.043   4.820   2.675 -2.4989  1.4466 -1.2279
 3212TIP3   OH231126   0.821   5.398   4.081  0.4767  0.1449 -0.2414
 3212TIP3    H131127   0.869   5.478   4.098 -1.5824  1.0585  1.4694
 3212TIP3    H231128   0.875   5.329   4.119  1.5187  0.8616 -0.3894
 3213TIP3   OH231129   2.567   2.740  15.115 -0.4127 -0.8826  0.5770
 3213TIP3    H131130   2.562   2.802  15.043  0.8029  0.3208  1.5101
 3213TIP3    H231131   2.477   2.736  15.150 -1.1315 -1.8889 -1.3084
 3214TIP3   OH231132   2.798   5.874   6.521 -0.0483 -0.1305  0.2292
 3214TIP3    H131133   2.709   5.894   6.548  1.0962  1.8779  2.7148
 3214TIP3    H231134   2.836   5.828   6.596  0.6111 -2.2822 -1.3618
 3215TIP3   OH231135   5.304   4.399   6.817 -0.1326  0.4133 -0.2181
 3215TIP3    H131136   5.236   4.439   6.763  0.7105 -0.3954 -1.9142
 3215TIP3    H231137   5.383   4.450   6.797  0.2797 -0.1752 -0.1055
 3216TIP3   OH231138   0.763   4.487   4.585  0.3043 -0.0492 -0.0420
 3216TIP3    H131139   0.696   4.516   4.523 -1.1282 -0.0333  1.4706
 3216TIP3    H231140   0.845   4.521   4.549 -0.3004 -1.1030 -2.5743
 3217TIP3   OH231141   0.249   5.411  13.237 -0.3241  0.3362  0.4447
 3217TIP3    H131142   0.261   5.466  13.160  0.2536  0.8624  0.9019
 3217TIP3    H231143   0.165   5.439  13.273 -0.3210  0.4917  0.3300
 3218TIP3   OH231144   3.790   1.967   3.684  0.1590  0.5620 -0.1556
 3218TIP3    H131145   3.851   1.908   3.639 -0.8396  0.9177 -2.0123
 3218TIP3    H231146   3.722   1.908   3.719 -1.6256  0.6807 -3.2661
 3219TIP3   OH231147   0.690   0.002  12.936  0.1756  0.1493  0.5637
 3219TIP3    H131148   0.676  -0.050  13.016  0.0974 -1.5996 -0.5656
 3219TIP3    H231149   0.603   0.005  12.895  0.6673 -0.8439 -0.5676
 3220TIP3   OH231150   4.028   3.927  13.047 -0.6610 -0.0137  0.4339
 3220TIP3    H131151   4.048   3.895  12.958  1.2477 -0.1872  0.8981
 3220TIP3    H231152   4.054   4.019  13.045  1.2359 -0.5061  1.3595
 3221TIP3   OH231153   5.564   6.322   3.425  0.5550  0.5056 -0.0215
 3221TIP3    H131154   5.652   6.288   3.438  0.6504  0.0419 -1.7365
 3221TIP3    H231155   5.575   6.396   3.366 -0.3041 -0.1858 -1.0712
 3222TIP3   OH231156   2.353   3.191   5.407  0.1222  0.3952 -0.9423
 3222TIP3    H131157   2.392   3.124   5.351 -1.7617  1.1665 -3.2772
 3222TIP3    H231158   2.399   3.271   5.383 -0.1335  0.5799 -0.8164
 3223TIP3   OH231159   2.930   5.329  17.106 -0.3848 -0.1744  0.1364
 3223TIP3    H131160   2.905   5.316  17.198  1.1110  0.2193  0.6152
 3223TIP3    H231161   2.922   5.242  17.067 -0.1754 -0.5242  0.8542
 3224TIP3   OH231162   3.090   1.552  13.791  0.4352 -0.3050  0.0704
 3224TIP3    H131163   3.152   1.479  13.793 -0.5382 -1.1952 -1.5785
 3224TIP3    H231164   3.041   1.540  13.710 -2.8672 -0.4299  2.0039
 3225TIP3   OH231165   4.804   1.376  16.472  0.3979 -0.1294  0.1491
 3225TIP3    H131166   4.768   1.303  16.522  1.1734  0.7762  2.0948
 3225TIP3    H231167   4.886   1.343  16.436 -0.2841 -0.8608 -0.7678
 3226TIP3   OH231168   2.267   5.722  16.910  0.6279  0.5593 -0.2140
 3226TIP3    H131169   2.245   5.641  16.865  0.3472 -0.1137  1.1214
 3226TIP3    H231170   2.183   5.756  16.942  0.7053  1.5298 -0.9984
 3227TIP3   OH231171   1.461   6.616  16.465 -0.5107  0.1600 -0.0457
 3227TIP3    H131172   1.517   6.573  16.530  0.6717  0.0371 -1.1243
 3227TIP3    H231173   1.385   6.558  16.457 -0.6477  0.1555  1.1899
 3228TIP3   OH231174   3.617   1.293   4.907  0.5051 -0.5037  0.5878
 3228TIP3    H131175   3.686   1.354   4.879 -0.0010 -1.0828 -2.0367
 3228TIP3    H231176   3.535   1.338   4.886  0.1184 -1.5043 -0.0512
 3229TIP3   OH231177   4.846   5.496   6.473 -0.0140  0.5062 -0.6290
 3229TIP3    H131178   4.931   5.461   6.446 -0.1965  0.9087 -1.7474
 3229TIP3    H231179   4.801   5.514   6.391 -1.0036  0.7308 -0.0352
 3230TIP3   OH231180   3.680   4.305   2.921 -0.3922  0.4153  0.0127
 3230TIP3    H131181   3.731   4.386   2.933 -0.2590  0.1727  1.1635
 3230TIP3    H231182   3.736   4.236   2.957 -0.3336 -0.2471 -1.3498
 3231TIP3   OH231183   0.913   3.927   3.527 -0.6983 -0.2126 -0.2408
 3231TIP3    H131184   0.844   3.895   3.469 -0.9639 -2.3891  1.2147
 3231TIP3    H231185   0.941   3.850   3.575 -1.1004  1.6644  3.1527
 3232TIP3   OH231186   2.947   6.271  10.828 -0.1545  0.4266 -0.5444
 3232TIP3    H131187   2.882   6.216  10.872  0.4491 -1.0749 -1.5060
 3232TIP3    H231188   2.923   6.267  10.735  1.9645 -1.0951 -1.0635
 3233TIP3   OH231189   0.341   5.308  16.508 -0.1415  0.2934  0.0824
 3233TIP3    H131190   0.392   5.298  16.588 -0.6093 -1.6839  0.1546
 3233TIP3    H231191   0.297   5.224  16.497  0.1206  0.4479 -2.3988
 3234TIP3   OH231192   3.640   1.531  16.876  0.3306 -0.0432  0.4111
 3234TIP3    H131193   3.635   1.549  16.782  0.5640 -0.2027  0.3662
 3234TIP3    H231194   3.653   1.436  16.882  1.7794  0.1390  0.5481
 3235TIP3   OH231195   2.228   5.335  12.725  0.6479 -0.5003 -0.0279
 3235TIP3    H131196   2.145   5.305  12.690  1.2685  1.7513 -3.6811
 3235TIP3    H231197   2.294   5.305  12.663  1.8809  2.9449 -0.5382
 3236TIP3   OH231198   4.886   5.701  16.310  0.5342 -0.2416  0.3797
 3236TIP3    H131199   4.958   5.727  16.368  0.8338  0.7778 -0.4560
 3236TIP3    H231200   4.812   5.690  16.369  1.0824 -0.1604  1.0937
 3237TIP3   OH231201   6.723   4.663   4.030  0.4581 -0.3797 -0.3807
 3237TIP3    H131202   6.751   4.608   4.104  1.4142  1.8902  1.0196
 3237TIP3    H231203   6.697   4.746   4.071 -2.8913 -0.4191 -2.2306
 3238TIP3   OH231204   2.156   6.169   3.016 -0.2270  0.4568 -0.3907
 3238TIP3    H131205   2.074   6.136   3.052  0.0573  2.2122  2.0280
 3238TIP3    H231206   2.167   6.255   3.057  2.1287  0.8513 -1.7443
 3239TIP3   OH231207   2.752   0.784   1.747  0.3298 -0.7813 -0.2159
 3239TIP3    H131208   2.776   0.719   1.682 -0.0034 -0.4754 -0.6501
 3239TIP3    H231209   2.836   0.816   1.781  0.5170 -0.4974 -0.9371
 3240TIP3   OH231210   0.939   1.691  12.552 -0.3190 -0.5125  0.4082
 3240TIP3    H131211   0.988   1.610  12.561  1.3762  0.3925 -0.4336
 3240TIP3    H231212   0.861   1.668  12.501 -0.0825 -1.6926  0.5835
 3241TIP3   OH231213   4.151   5.066   4.010  0.5161 -0.3584 -0.5348
 3241TIP3    H131214   4.156   5.089   4.103 -1.3921  0.2617 -0.5596
 3241TIP3    H231215   4.069   5.017   4.001  0.7510 -0.5460 -1.8723
 3242TIP3   OH231216   0.925   6.390  13.418  0.0928 -0.4455  0.2839
 3242TIP3    H131217   0.910   6.479  13.385  1.1663 -1.0236 -1.8512
 3242TIP3    H231218   0.860   6.379  13.487 -1.4165  1.2836 -0.8113
 3243TIP3   OH231219   0.224   4.397  14.402 -0.7964  0.3908  0.3149
 3243TIP3    H131220   0.250   4.436  14.485 -1.7776 -0.7967  1.1878
 3243TIP3    H231221   0.138   4.434  14.383  0.1513  2.0093 -1.0845
 3244TIP3   OH231222   6.080   2.593   4.017 -0.1865 -0.7913  0.1273
 3244TIP3    H131223   6.129   2.553   3.945 -1.0733  0.9564 -1.4831
 3244TIP3    H231224   5.999   2.624   3.976 -0.7654  0.1017  1.9183
 3245TIP3   OH231225   2.479   0.493   2.369  0.0956 -0.5909 -0.0900
 3245TIP3    H131226   2.469   0.525   2.280 -1.0392  2.5371  1.0763
 3245TIP3    H231227   2.396   0.448   2.388 -0.6713  0.9070  0.1857
 3246TIP3   OH231228   2.151   3.817   2.888  0.7111 -0.4826  0.0127
 3246TIP3    H131229   2.194   3.861   2.961  0.9440 -2.5939  1.1913
 3246TIP3    H231230   2.058   3.821   2.909  0.4760  1.8968 -1.3029
 3247TIP3   OH231231   5.560   6.469  13.574 -0.6380 -0.0600  0.3006
 3247TIP3    H131232   5.558   6.444  13.667  0.5510  1.7256  0.8367
 3247TIP3    H231233   5.632   6.532  13.568 -0.7116 -0.1503 -1.8445
 3248TIP3   OH231234   4.394   4.071  14.777 -0.0357  0.2134  0.1582
 3248TIP3    H131235   4.464   4.086  14.840 -1.5986 -1.3005  2.3643
 3248TIP3    H231236   4.331   4.016  14.824 -1.2384 -1.0544 -2.7591
 3249TIP3   OH231237   5.453   0.985  14.288  0.2818  0.7965 -0.2208
 3249TIP3    H131238   5.434   0.962  14.197  2.7696 -2.7691  0.0462
 3249TIP3    H231239   5.368   0.988  14.330 -0.6873 -1.0698 -1.9487
 3250TIP3   OH231240   0.788   0.729   1.493 -0.1082 -0.3107 -0.0494
 3250TIP3    H131241   0.714   0.765   1.542 -0.4144 -0.2496 -0.5459
 3250TIP3    H231242   0.852   0.704   1.560 -1.3195 -2.0215  0.4978
 3251TIP3   OH231243   6.593   1.970   0.478 -0.0694 -1.1645  0.0800
 3251TIP3    H131244   6.617   2.015   0.558 -0.6864  1.9224 -1.3826
 3251TIP3    H231245   6.663   1.992   0.416 -0.5653 -1.9399 -0.7754
 3252TIP3   OH231246   2.957   2.070   0.058  0.0741 -0.2320 -0.0143
 3252TIP3    H131247   2.995   2.028  -0.019 -0.1434  1.3899 -1.0162
 3252TIP3    H231248   2.867   2.088   0.034 -0.6633 -1.8034  1.4680
 3253TIP3   OH231249   4.094   5.853  15.070  0.0685 -0.3482 -0.2694
 3253TIP3    H131250   4.109   5.900  14.988 -0.2501  0.1050 -0.0709
 3253TIP3    H231251   4.026   5.904  15.115  0.3727 -0.4891  0.3546
 3254TIP3   OH231252   3.974   0.601   4.440 -0.1953  0.3041  0.0882
 3254TIP3    H131253   3.924   0.524   4.412 -0.8216  0.6010  0.4046
 3254TIP3    H231254   3.962   0.605   4.535 -0.1777  0.8012  0.0718
 3255TIP3   OH231255   6.068   2.033  13.347 -0.8596 -0.2177  0.1789
 3255TIP3    H131256   6.134   2.092  13.311 -0.3384 -0.4843  0.6990
 3255TIP3    H231257   6.021   2.087  13.411  1.5282 -1.1488  2.8295
 3256TIP3   OH231258   3.027   1.537  17.282 -0.2602 -0.0941  0.2234
 3256TIP3    H131259   3.101   1.598  17.269  0.5211 -1.0770 -0.0026
 3256TIP3    H231260   3.067   1.450  17.275 -1.2309 -0.6354  1.3517
 3257TIP3   OH231261   6.492   1.138  12.667 -0.5600  0.4939  1.4217
 3257TIP3    H131262   6.409   1.180  12.688 -1.2532  0.5925 -1.2988
 3257TIP3    H231263   6.559   1.204  12.688 -1.1708  0.5704  3.2122
 3258TIP3   OH231264   6.791   6.404  17.176  0.2032  0.0664 -0.3362
 3258TIP3    H131265   6.824   6.469  17.238 -1.2555  0.4576  0.0577
 3258TIP3    H231266   6.858   6.336  17.173  0.6968  0.4941  0.9864
 3259TIP3   OH231267   0.965   5.960  16.475 -0.0129  0.3228 -0.0080
 3259TIP3    H131268   1.034   5.995  16.418 -0.5341  0.3793 -0.6138
 3259TIP3    H231269   0.925   5.890  16.423  1.0811 -1.2439  1.2282
 3260TIP3   OH231270   1.496   2.678  12.501  0.8716  0.2154  0.1040
 3260TIP3    H131271   1.474   2.739  12.572  0.9301  0.1146  0.2099
 3260TIP3    H231272   1.427   2.691  12.436  0.5671 -0.0041  0.3785
 3261TIP3   OH231273   5.216   5.324   4.722 -0.1917  0.1062  0.0595
 3261TIP3    H131274   5.304   5.361   4.727 -0.8485  1.9192 -1.1159
 3261TIP3    H231275   5.210   5.288   4.633 -0.7232  0.2777  0.0215
 3262TIP3   OH231276   4.026   0.148   4.237 -0.4132  0.3693  0.2283
 3262TIP3    H131277   4.029   0.118   4.328  0.2714 -0.9199 -0.2010
 3262TIP3    H231278   4.078   0.229   4.236  1.3400 -0.7260  0.5901
 3263TIP3   OH231279   6.452   0.347  12.807 -0.6227  0.5284 -0.3858
 3263TIP3    H131280   6.423   0.257  12.788  0.0896 -0.2738  2.1506
 3263TIP3    H231281   6.374   0.400  12.798 -1.8146 -0.8660  1.4257
 3264TIP3   OH231282   1.141   0.450  15.309 -0.0936  0.3323 -0.2516
 3264TIP3    H131283   1.217   0.404  15.272 -0.1512  0.6524 -0.7825
 3264TIP3    H231284   1.116   0.398  15.385  1.1700  0.6748  0.4186
 3265TIP3   OH231285   4.046   4.170  11.364 -0.1868 -0.4371  0.2771
 3265TIP3    H131286   4.008   4.110  11.428  0.6046 -0.7204  0.4853
 3265TIP3    H231287   4.139   4.174  11.387  0.4533 -1.8688 -1.8909
 3266TIP3   OH231288   2.600   6.647  15.087  0.0983  0.0066 -0.0662
 3266TIP3    H131289   2.654   6.710  15.133 -0.7783  0.3143  0.5619
 3266TIP3    H231290   2.510   6.668  15.113 -0.5324  0.8761 -2.7086
 3267TIP3   OH231291   4.680   1.683   4.438 -0.4224 -0.0379  0.2064
 3267TIP3    H131292   4.712   1.593   4.436  0.0024  0.1284 -0.5891
 3267TIP3    H231293   4.719   1.720   4.517 -0.0781 -0.3578  0.1890
 3268TIP3   OH231294   0.125   5.985   0.123 -0.7560  0.5396 -0.6689
 3268TIP3    H131295   0.177   5.923   0.174 -0.2029  2.0014  0.6038
 3268TIP3    H231296   0.035   5.954   0.130 -1.0370  1.9243  3.1628
 3269TIP3   OH231297   6.615   5.095   1.880  0.3653 -0.2128  0.0294
 3269TIP3    H131298   6.613   5.138   1.966  1.1846 -0.8096  0.3591
 3269TIP3    H231299   6.664   5.014   1.896 -0.9505 -1.1515 -0.6354
 3270TIP3   OH231300   6.307   1.141   6.064  0.1560 -0.1940  0.2821
 3270TIP3    H131301   6.299   1.046   6.055 -1.8633  0.1072 -1.4670
 3270TIP3    H231302   6.235   1.176   6.012  3.2232  2.4402 -2.3592
 3271TIP3   OH231303   1.002   3.558   0.658 -0.7222  0.2651 -0.1924
 3271TIP3    H131304   1.004   3.535   0.565 -0.0458  0.0531 -0.1269
 3271TIP3    H231305   1.063   3.497   0.699 -3.2161 -1.5809  0.8263
 3272TIP3   OH231306   1.566   4.889   0.801  0.5511 -0.3102  0.0501
 3272TIP3    H131307   1.492   4.914   0.856 -1.0578 -1.3935 -1.5619
 3272TIP3    H231308   1.592   4.803   0.832 -1.0501 -1.3963 -1.5171
 3273TIP3   OH231309   4.660   0.164   3.342  0.0204 -0.6821  0.2549
 3273TIP3    H131310   4.673   0.084   3.394 -1.0911  0.5981  2.5803
 3273TIP3    H231311   4.587   0.144   3.283  0.6049 -1.8019 -0.1006
 3274TIP3   OH231312   2.396   0.255   1.470 -0.2686  0.4939  0.0213
 3274TIP3    H131313   2.326   0.300   1.517 -0.3146 -0.0956  0.5337
 3274TIP3    H231314   2.383   0.162   1.492  0.2514  0.3095 -0.4406
 3275TIP3   OH231315   4.172   6.045   4.016  0.2142 -0.6606  0.3437
 3275TIP3    H131316   4.225   6.096   4.077 -0.1982 -0.1046  0.2402
 3275TIP3    H231317   4.089   6.031   4.063 -1.0917  2.0271 -1.1120
 3276TIP3   OH231318   4.471   0.640  15.125 -0.6815 -0.1581 -0.9629
 3276TIP3    H131319   4.463   0.567  15.063 -0.6065 -0.8160 -0.2004
 3276TIP3    H231320   4.380   0.664  15.145 -0.7504  2.0052 -3.5864
 3277TIP3   OH231321   4.038   3.321   2.152 -0.2227  0.0588 -0.3111
 3277TIP3    H131322   4.033   3.260   2.226  0.6796  1.3305  0.8053
 3277TIP3    H231323   4.100   3.388   2.180 -0.5191  1.0110 -1.8974
 3278TIP3   OH231324   3.091   1.447   3.368  0.6929  0.0170 -0.2014
 3278TIP3    H131325   3.032   1.520   3.387 -2.4210 -2.2111 -0.7771
 3278TIP3    H231326   3.099   1.401   3.451  1.9708  0.5411 -0.0321
 3279TIP3   OH231327   3.078   2.562   0.867 -0.2381 -0.6462 -0.1815
 3279TIP3    H131328   3.024   2.634   0.832  1.0460 -0.6276 -2.2188
 3279TIP3    H231329   3.154   2.559   0.809  1.4480 -1.3884  2.0076
 3280TIP3   OH231330   5.863   2.993   0.552  0.1727  0.0797 -0.0618
 3280TIP3    H131331   5.820   2.923   0.600 -1.3696  1.3535  0.4377
 3280TIP3    H231332   5.849   3.072   0.605  1.7664  0.7981 -0.6759
 3281TIP3   OH231333   3.017   0.288   1.545  0.0784  0.2536  0.2414
 3281TIP3    H131334   3.020   0.363   1.485  1.0058 -0.8355 -1.1027
 3281TIP3    H231335   3.084   0.229   1.512 -0.7672 -1.2506  1.1963
 3282TIP3   OH231336   1.891   1.222   5.885 -0.3668  0.5502 -0.3201
 3282TIP3    H131337   1.837   1.173   5.823  0.5179  1.2992 -1.7084
 3282TIP3    H231338   1.941   1.156   5.931 -1.2227 -0.0340 -0.2135
 3283TIP3   OH231339   5.763   4.921   4.556 -0.3778  0.0984  0.2542
 3283TIP3    H131340   5.750   4.963   4.641 -0.4549  0.1732  0.2053
 3283TIP3    H231341   5.760   4.993   4.493  2.9136  0.5001  0.4800
 3284TIP3   OH231342   6.011   6.056  11.848 -0.0099 -0.1580 -0.1025
 3284TIP3    H131343   6.039   6.027  11.761 -1.1142  0.4476 -0.6650
 3284TIP3    H231344   5.916   6.045  11.848 -0.4412  3.1234 -0.2326
 3285TIP3   OH231345   6.279   3.480  17.226 -0.2959  0.0497  0.2859
 3285TIP3    H131346   6.220   3.409  17.252  0.1339  0.6659  3.1341
 3285TIP3    H231347   6.365   3.439  17.220 -0.4156 -0.1185 -0.2933
 3286TIP3   OH231348   1.921   3.070   2.564  0.3256  0.2687 -0.1685
 3286TIP3    H131349   1.944   2.978   2.554 -0.8329 -0.2745  2.0053
 3286TIP3    H231350   1.838   3.079   2.517 -0.5568 -0.2516  1.2760
 3287TIP3   OH231351   1.144   4.464   4.752  0.3154  0.6607  0.0056
 3287TIP3    H131352   1.070   4.407   4.728 -0.4067  0.9826  1.4024
 3287TIP3    H231353   1.142   4.466   4.848  1.2789  1.8161  0.0060
 3288TIP3   OH231354   5.838   4.149  15.718  0.8683  0.0711  0.2549
 3288TIP3    H131355   5.815   4.240  15.699  0.4444 -0.0430  0.2195
 3288TIP3    H231356   5.931   4.142  15.695  0.6818  0.2625 -0.5869
 3289TIP3   OH231357   2.945   0.393  13.200  0.1527 -0.6409 -0.4575
 3289TIP3    H131358   2.978   0.356  13.282  1.5016  1.9622  0.2300
 3289TIP3    H231359   2.853   0.412  13.218  0.4870  0.0871  0.5372
 3290TIP3   OH231360   1.190   0.285  15.781  0.2237 -0.2966 -0.6104
 3290TIP3    H131361   1.174   0.362  15.835  0.2253 -0.2869 -0.6235
 3290TIP3    H231362   1.247   0.230  15.835  1.8115  0.5717 -1.3733
 3291TIP3   OH231363   3.965   4.202  11.107  0.7096  0.2325  0.0415
 3291TIP3    H131364   3.952   4.204  11.201  3.3910 -0.2125  0.4814
 3291TIP3    H231365   4.023   4.277  11.089 -0.7670  1.0545 -1.4300
 3292TIP3   OH231366   1.750   3.038  16.486  0.0123 -0.1133  0.6624
 3292TIP3    H131367   1.710   2.954  16.506 -0.8975  0.0311 -0.4472
 3292TIP3    H231368   1.843   3.025  16.501 -0.2584 -0.9559  1.6745
 3293TIP3   OH231369   4.491   0.076   4.037  0.3857 -0.7873  0.3133
 3293TIP3    H131370   4.441   0.108   4.112 -1.2536 -1.0235 -0.6591
 3293TIP3    H231371   4.452  -0.010   4.016  1.2980 -1.0521 -0.3434
 3294TIP3   OH231372   2.377   2.980   0.251 -0.4097  0.5775  0.1761
 3294TIP3    H131373   2.417   2.952   0.333 -0.5136  2.2668  0.8390
 3294TIP3    H231374   2.288   2.945   0.253  0.5384 -1.9774 -0.6442
 3295TIP3   OH231375   0.346   6.137  11.984  0.0251 -0.4423 -0.7556
 3295TIP3    H131376   0.319   6.108  12.072 -1.1776 -0.6886 -1.2026
 3295TIP3    H231377   0.276   6.195  11.955  0.1027 -0.8610 -1.8072
 3296TIP3   OH231378   0.695   5.014  17.043  0.6065 -0.2261 -0.6319
 3296TIP3    H131379   0.709   5.104  17.015  0.8986  0.5018  1.7919
 3296TIP3    H231380   0.629   5.020  17.112  0.4273 -1.9077 -0.6407
 3297TIP3   OH231381   0.249   6.045  14.514 -0.2478 -0.4134  0.1999
 3297TIP3    H131382   0.336   6.021  14.481  0.4226 -1.7217  2.8245
 3297TIP3    H231383   0.266   6.106  14.585 -1.5585  0.5461 -0.3075
 3298TIP3   OH231384   5.568   2.465  12.586 -0.0522  0.3704  0.1454
 3298TIP3    H131385   5.511   2.449  12.661  0.8636  0.1700  0.8041
 3298TIP3    H231386   5.532   2.409  12.517 -1.8048  1.6717 -0.0445
 3299TIP3   OH231387   1.222   6.774  15.569 -0.3299  0.2243  0.0212
 3299TIP3    H131388   1.165   6.847  15.546 -2.5060 -0.9137  1.6205
 3299TIP3    H231389   1.165   6.697  15.566  1.4883 -1.1719  0.1560
 3300TIP3   OH231390   2.582   4.168   1.961  0.2976  0.1295  0.0141
 3300TIP3    H131391   2.543   4.085   1.987  2.7612 -0.8854  0.6489
 3300TIP3    H231392   2.546   4.185   1.873  0.1392 -1.8499 -0.3180
 3301TIP3   OH231393   6.716   6.367  12.945 -0.0392  0.4088  0.3695
 3301TIP3    H131394   6.642   6.310  12.924  0.0752  0.9157 -1.4423
 3301TIP3    H231395   6.765   6.319  13.012 -0.3516 -1.2952 -0.5922
 3302TIP3   OH231396   2.632   5.622  14.681 -0.5759 -0.1101 -0.0762
 3302TIP3    H131397   2.635   5.675  14.760 -0.0954  1.0675 -0.8789
 3302TIP3    H231398   2.539   5.598  14.671 -1.0538  1.8916 -0.5687
 3303TIP3   OH231399   0.122   4.609  12.844 -0.0388  0.0149 -0.3003
 3303TIP3    H131400   0.210   4.630  12.876 -0.8014 -0.1527  1.9641
 3303TIP3    H231401   0.087   4.547  12.908 -1.7373 -0.1079 -1.3137
 3304TIP3   OH231402   3.346   6.422   2.825 -0.4012 -0.1809  0.0349
 3304TIP3    H131403   3.385   6.419   2.912 -1.7320  0.8752  0.6859
 3304TIP3    H231404   3.392   6.355   2.775  1.8938  0.6757  0.9297
 3305TIP3   OH231405   3.528   0.942   2.583 -0.1331 -0.2531  0.1225
 3305TIP3    H131406   3.602   1.001   2.591 -0.9556  0.7103  0.7457
 3305TIP3    H231407   3.557   0.861   2.624  0.1384  0.5241  1.4658
 3306TIP3   OH231408   4.515   3.454   3.139  0.2994 -0.3270  0.2414
 3306TIP3    H131409   4.562   3.521   3.188  2.7210 -0.6653 -1.5187
 3306TIP3    H231410   4.518   3.377   3.195 -1.5689  0.6803  1.8093
 3307TIP3   OH231411   2.088   5.778  16.549  0.6264 -0.3054 -0.3995
 3307TIP3    H131412   2.062   5.810  16.635 -0.2831  0.3761 -0.9199
 3307TIP3    H231413   2.020   5.717  16.524  0.2304  0.4411 -1.1724
 3308TIP3   OH231414   5.964   1.434  10.964 -0.0091 -0.7809  0.0802
 3308TIP3    H131415   6.031   1.480  11.014 -0.2304  0.0659 -0.3860
 3308TIP3    H231416   6.011   1.400  10.887  0.0750 -1.0147  0.2344
 3309TIP3   OH231417   6.119   0.163  14.007  0.1861 -0.0940  0.0890
 3309TIP3    H131418   6.160   0.090  13.961 -0.8854 -1.7500  1.7054
 3309TIP3    H231419   6.188   0.197  14.064  0.3793 -0.5228  0.1130
 3310TIP3   OH231420   5.217   6.412  14.375 -0.0102 -0.1279  0.3477
 3310TIP3    H131421   5.159   6.408  14.298 -1.3820 -0.5355  1.3751
 3310TIP3    H231422   5.185   6.488  14.424  1.7351  0.9459 -0.1582
 3311TIP3   OH231423   1.809   0.433  13.663  0.2225  0.1715  0.0032
 3311TIP3    H131424   1.752   0.462  13.735 -0.3658 -0.5958 -0.1476
 3311TIP3    H231425   1.820   0.339  13.678  1.0765  0.2323 -0.2396
 3312TIP3   OH231426   3.339   0.008  15.759  0.0790 -0.2075  0.1622
 3312TIP3    H131427   3.322  -0.085  15.744  0.4013 -0.1621 -0.5274
 3312TIP3    H231428   3.256   0.043  15.789 -0.0652 -0.7057  0.3576
 3313TIP3   OH231429   3.876   4.302  15.253 -0.2861  0.0706 -0.0041
 3313TIP3    H131430   3.815   4.349  15.196  0.9386  0.9168 -0.6274
 3313TIP3    H231431   3.928   4.248  15.194  1.8998  1.9605  0.1279
 3314TIP3   OH231432   4.584   4.465   0.182  0.5146  0.3717  0.2047
 3314TIP3    H131433   4.502   4.416   0.188  0.8977 -0.0693  2.1721
 3314TIP3    H231434   4.611   4.456   0.090 -2.2879  1.6301 -0.8029
 3315TIP3   OH231435   1.496   6.158  12.054 -0.0932 -0.4228  0.4273
 3315TIP3    H131436   1.491   6.065  12.030 -0.1982 -0.1026 -0.8291
 3315TIP3    H231437   1.429   6.200  12.001  1.9849  0.8340 -1.2849
 3316TIP3   OH231438   4.896   5.915  14.686  0.2170  0.2084 -0.2126
 3316TIP3    H131439   4.929   5.832  14.720 -1.0257 -0.2738 -0.1874
 3316TIP3    H231440   4.972   5.974  14.691  1.5121 -1.2849 -1.5123
 3317TIP3   OH231441   0.287   2.418  14.572 -0.1700  0.1831  0.5547
 3317TIP3    H131442   0.310   2.450  14.660  1.0658  3.5093 -0.9201
 3317TIP3    H231443   0.370   2.411  14.527 -0.8228 -1.3921 -0.4582
 3318TIP3   OH231444   0.904   1.081  17.034 -0.7008  0.8024  0.6989
 3318TIP3    H131445   0.959   1.109  16.962  0.6344  1.3057  1.8889
 3318TIP3    H231446   0.825   1.134  17.027 -0.2871  1.3225  0.0061
 3319TIP3   OH231447   1.221   5.266  11.628  0.2203  0.0102  0.3757
 3319TIP3    H131448   1.175   5.210  11.566  1.9127 -0.7948 -0.1625
 3319TIP3    H231449   1.260   5.335  11.574  1.5736 -0.6075  0.5499
 3320TIP3   OH231450   2.250   0.882  13.833 -0.0078 -0.2794  0.4043
 3320TIP3    H131451   2.323   0.880  13.771  0.1563 -1.5417  0.6113
 3320TIP3    H231452   2.191   0.948  13.799  1.8633  1.7326  0.9622
 3321TIP3   OH231453   2.830   3.684  15.769  0.0079 -0.0449 -0.0845
 3321TIP3    H131454   2.915   3.671  15.728  0.8333 -1.6657  1.9999
 3321TIP3    H231455   2.767   3.664  15.701  1.3052  0.5478 -1.4818
 3322TIP3   OH231456   4.987   2.500  13.710 -0.2158 -0.0200 -0.7972
 3322TIP3    H131457   4.947   2.468  13.791 -1.2384  2.4134 -0.2808
 3322TIP3    H231458   5.016   2.422  13.665 -0.8052 -1.5186  1.3261
 3323TIP3   OH231459   2.482   1.395  16.700 -0.8178 -0.1531 -0.1540
 3323TIP3    H131460   2.445   1.388  16.788 -1.2383  0.5353 -0.2754
 3323TIP3    H231461   2.529   1.478  16.699  0.0132 -0.6185 -0.2747
 3324TIP3   OH231462   0.108   6.460   1.976 -0.8221  0.4662  0.2418
 3324TIP3    H131463   0.114   6.555   1.975 -2.3328  0.5622 -0.7718
 3324TIP3    H231464   0.177   6.432   2.036  0.4169  2.1326 -0.3812
 3325TIP3   OH231465   3.193   0.516   4.268  0.0165  0.0241  0.5960
 3325TIP3    H131466   3.098   0.509   4.280 -0.4696  0.9623 -2.3572
 3325TIP3    H231467   3.219   0.429   4.237 -0.1400  0.2470 -0.1654
 3326TIP3   OH231468   0.795   1.237  10.993 -0.2929 -0.0803  0.9766
 3326TIP3    H131469   0.733   1.166  10.976 -1.4539  0.8410  1.2184
 3326TIP3    H231470   0.782   1.297  10.919  1.6031 -0.7326  0.0933
 3327TIP3   OH231471   0.984   6.254   4.132 -0.7467  0.6606 -0.7318
 3327TIP3    H131472   1.078   6.232   4.136 -0.2989  2.5448 -0.3936
 3327TIP3    H231473   0.973   6.322   4.198 -2.1009  1.4152 -1.7150
 3328TIP3   OH231474   2.310   2.937   5.998 -0.0549  0.0282 -0.1543
 3328TIP3    H131475   2.215   2.926   6.001  0.0134 -0.9278 -0.9939
 3328TIP3    H231476   2.327   3.016   6.048 -1.1935 -0.4492  1.0247
 3329TIP3   OH231477   2.317   6.553   5.007  0.2108 -0.0582 -0.5251
 3329TIP3    H131478   2.238   6.600   4.979  0.4308 -0.4665 -1.8892
 3329TIP3    H231479   2.286   6.493   5.075 -0.2335  1.3926  0.5768
 3330TIP3   OH231480   0.569   5.886  12.260 -0.0620  0.2066 -0.3176
 3330TIP3    H131481   0.630   5.828  12.215  0.2910 -0.9322  1.5789
 3330TIP3    H231482   0.625   5.954  12.298 -0.3096  0.9084 -1.2009
 3331TIP3   OH231483   4.610   2.679  13.827 -0.1619  0.2663  0.2772
 3331TIP3    H131484   4.662   2.738  13.771  1.0025  0.1643  1.2315
 3331TIP3    H231485   4.674   2.640  13.886 -1.2574 -0.2980  1.1033
 3332TIP3   OH231486   6.014   2.862   2.753 -0.3253  0.5288  0.2981
 3332TIP3    H131487   6.105   2.838   2.735  0.3579  2.1183  1.5201
 3332TIP3    H231488   5.992   2.815   2.833 -0.2309  1.0011  0.5996
 3333TIP3   OH231489   4.433   2.747   0.451 -0.7862  0.6765 -0.1870
 3333TIP3    H131490   4.460   2.704   0.370  1.8491  0.3544  0.8210
 3333TIP3    H231491   4.434   2.841   0.430  4.1538  0.9488  0.5420
 3334TIP3   OH231492   1.157   0.545  12.153 -0.1519  0.0973  0.2523
 3334TIP3    H131493   1.195   0.457  12.160  0.3224  0.4174  1.9478
 3334TIP3    H231494   1.229   0.599  12.119 -1.3257 -0.7098 -3.7954
 3335TIP3   OH231495   3.905   0.592   1.584 -0.4494 -0.0144 -0.3100
 3335TIP3    H131496   3.863   0.536   1.520  0.8381 -0.0419 -1.1700
 3335TIP3    H231497   3.996   0.599   1.553 -0.4013  1.9110  0.1827
 3336TIP3   OH231498   0.423   6.115   6.506 -0.2634 -0.1328 -0.4022
 3336TIP3    H131499   0.358   6.097   6.438 -0.2904  0.0541 -0.4251
 3336TIP3    H231500   0.392   6.194   6.549  0.7513  0.8604 -1.4269
 3337TIP3   OH231501   4.483   2.752  12.577  0.2396  0.1185 -0.3706
 3337TIP3    H131502   4.534   2.833  12.573 -0.0854  0.3277 -0.2536
 3337TIP3    H231503   4.475   2.733  12.670 -0.4329  0.4210 -0.3688
 3338TIP3   OH231504   0.821   4.749  12.478  0.3463  0.3267 -0.1074
 3338TIP3    H131505   0.915   4.742  12.493  0.3493  2.5139  1.1172
 3338TIP3    H231506   0.812   4.763  12.384  1.3812  1.9851  0.0304
 3339TIP3   OH231507   0.186   6.672  10.787  0.3116 -0.1707 -0.1108
 3339TIP3    H131508   0.127   6.596  10.778 -0.4206  0.5852 -1.8862
 3339TIP3    H231509   0.158   6.732  10.719  1.8101  1.1151  0.3862
 3340TIP3   OH231510   2.515   3.915   5.441  0.0810  0.0826  0.1382
 3340TIP3    H131511   2.503   3.945   5.351  0.0675 -0.2910  0.0129
 3340TIP3    H231512   2.588   3.853   5.435 -0.0140 -0.0485  0.3605
 3341TIP3   OH231513   0.725   1.006   6.311  0.0729  0.6170  0.0147
 3341TIP3    H131514   0.661   0.935   6.320  1.0194 -0.1759  0.5866
 3341TIP3    H231515   0.800   0.978   6.364  1.5179  0.8024 -1.8735
 3342TIP3   OH231516   4.880   2.815   2.010  0.0730  0.4560 -0.6313
 3342TIP3    H131517   4.930   2.848   2.084  1.9503  0.3588 -1.8325
 3342TIP3    H231518   4.918   2.729   1.992 -1.1270 -0.0057 -0.9874
 3343TIP3   OH231519   2.047   4.168   0.723 -0.5532 -0.7212 -0.1267
 3343TIP3    H131520   2.008   4.252   0.698 -0.3688 -1.0736 -1.6776
 3343TIP3    H231521   2.141   4.185   0.726 -0.5713 -0.6915  0.3073
 3344TIP3   OH231522   1.983   2.354  15.829 -0.1535 -0.4351 -0.3412
 3344TIP3    H131523   2.002   2.284  15.766 -0.3987  0.0264 -0.9400
 3344TIP3    H231524   1.941   2.310  15.902  1.2913 -1.1626  0.0592
 3345TIP3   OH231525   4.029   1.870  11.499  0.4299 -0.0151  0.5985
 3345TIP3    H131526   4.088   1.900  11.569  1.3570 -0.1219 -0.1138
 3345TIP3    H231527   4.050   1.777  11.490  0.1779 -0.0408  0.3078
 3346TIP3   OH231528   4.914   1.817  10.403 -0.0348 -0.1288 -0.1378
 3346TIP3    H131529   4.983   1.883  10.406 -0.1117 -0.0868  1.8531
 3346TIP3    H231530   4.950   1.746  10.351  1.1259  0.3107  0.0534
 3347TIP3   OH231531   0.120   3.803  12.305  0.4782  0.2596  0.3327
 3347TIP3    H131532   0.162   3.798  12.219  1.0690 -0.7920  0.6727
 3347TIP3    H231533   0.151   3.726  12.352 -0.1885  0.5856  1.3420
 3348TIP3   OH231534   2.751   0.820  15.025  0.5664  0.0868 -0.2533
 3348TIP3    H131535   2.657   0.810  15.011  0.4966  0.1459  0.1735
 3348TIP3    H231536   2.758   0.864  15.109  0.9782  0.0258 -0.2568
 3349TIP3   OH231537   4.006   6.474  12.836 -0.0649 -0.2073  0.3260
 3349TIP3    H131538   4.090   6.478  12.789 -0.1239  1.0761  0.2958
 3349TIP3    H231539   3.941   6.493  12.769 -0.3636 -0.9973  0.3944
 3350TIP3   OH231540   0.195   2.554  10.971 -0.5031 -0.4931  0.0449
 3350TIP3    H131541   0.198   2.590  10.882 -0.3893 -0.6922 -0.0325
 3350TIP3    H231542   0.119   2.596  11.011  0.2199  0.6001  0.2885
 3351TIP3   OH231543   0.675   5.679  16.337  0.3075 -0.4697 -0.5994
 3351TIP3    H131544   0.623   5.638  16.407  1.2534 -1.4656 -0.4624
 3351TIP3    H231545   0.694   5.607  16.277  2.8662 -0.4911  0.1744
 3352TIP3   OH231546   2.712   1.183   2.238  0.5725 -0.2689  0.4523
 3352TIP3    H131547   2.788   1.159   2.184  0.4043 -1.4189  0.7101
 3352TIP3    H231548   2.637   1.149   2.189  0.1291  1.6578 -0.2522
 3353TIP3   OH231549   3.886   3.215  13.496 -0.2386  0.1495  0.1022
 3353TIP3    H131550   3.928   3.293  13.460  0.6872 -0.1303  0.5760
 3353TIP3    H231551   3.958   3.154  13.511 -0.6985  0.0385  1.8770
 3354TIP3   OH231552   2.863   3.649  12.535  0.2812 -0.1388 -0.0120
 3354TIP3    H131553   2.911   3.708  12.477  1.4720 -1.0824  0.0019
 3354TIP3    H231554   2.914   3.648  12.616 -1.4043  1.2265  1.1069
 3355TIP3   OH231555   6.659   4.047   5.028  0.1312  0.0743 -0.1456
 3355TIP3    H131556   6.663   4.002   5.113  0.2210 -2.0266 -1.2365
 3355TIP3    H231557   6.572   4.086   5.026 -0.5011 -1.2829  0.2256
 3356TIP3   OH231558   1.916   4.376   0.877  0.1159  0.0461  0.0623
 3356TIP3    H131559   1.823   4.356   0.882 -0.1436  1.1547 -0.2651
 3356TIP3    H231560   1.960   4.294   0.901 -0.9416 -0.3793  0.5531
 3357TIP3   OH231561   4.292   6.221   4.222 -0.2533 -0.0245 -0.6162
 3357TIP3    H131562   4.373   6.169   4.221 -0.4666 -0.3599 -0.7050
 3357TIP3    H231563   4.293   6.264   4.308 -1.1849 -1.9721  0.4255
 3358TIP3   OH231564   3.423   5.784   1.936  0.2040  0.0623  0.1369
 3358TIP3    H131565   3.484   5.720   1.969 -1.7451 -1.7051  0.4067
 3358TIP3    H231566   3.403   5.840   2.011 -0.9202 -1.3164  0.8992
 3359TIP3   OH231567   3.642   3.837  11.567  0.0464 -0.1250  0.1440
 3359TIP3    H131568   3.710   3.831  11.500  1.0416 -1.0364  1.2134
 3359TIP3    H231569   3.561   3.854  11.518  0.9754  0.5500 -1.1666
 3360TIP3   OH231570   1.870   2.263  11.116 -0.0263  0.4216 -0.4325
 3360TIP3    H131571   1.895   2.334  11.057  1.3014  0.8022  0.5737
 3360TIP3    H231572   1.853   2.189  11.058  0.7457  0.9347 -1.3315
 3361TIP3   OH231573   0.978   5.058   3.967 -0.2384  0.3829 -0.2412
 3361TIP3    H131574   0.946   4.989   4.025 -1.1894 -0.0067 -1.2146
 3361TIP3    H231575   1.000   5.130   4.025  1.3442 -0.9317  0.8601
 3362TIP3   OH231576   3.966   2.442  10.825  0.7793 -0.0446  0.2846
 3362TIP3    H131577   4.046   2.390  10.825  1.2530  0.6662 -1.2719
 3362TIP3    H231578   3.946   2.456  10.733 -0.6758  0.5104  0.6653
 3363TIP3   OH231579   4.195   3.289  11.334  0.1691  0.2456 -0.2484
 3363TIP3    H131580   4.222   3.347  11.263  1.3718 -0.3800 -0.2997
 3363TIP3    H231581   4.188   3.202  11.294  0.0068  0.0444  0.2062
 3364TIP3   OH231582   1.982   3.291   2.677  0.4040 -0.0303 -0.5227
 3364TIP3    H131583   2.075   3.299   2.659  0.6196 -0.8460  0.2135
 3364TIP3    H231584   1.964   3.197   2.669 -0.2578  0.0653 -0.2006
 3365TIP3   OH231585   0.568   4.002  16.474 -0.2435 -0.1585  0.2060
 3365TIP3    H131586   0.603   3.916  16.454  0.3320  0.1681 -0.2323
 3365TIP3    H231587   0.537   4.035  16.389 -1.4289 -0.3533  0.5459
 3366TIP3   OH231588   6.601   5.464   1.868 -0.5110 -0.4346 -0.1238
 3366TIP3    H131589   6.599   5.394   1.934  0.8095 -1.6108 -1.3228
 3366TIP3    H231590   6.562   5.425   1.790  1.3235 -0.2269 -1.1682
 3367TIP3   OH231591   1.963   0.013   4.713 -0.1639  0.1820 -0.1054
 3367TIP3    H131592   1.904  -0.054   4.746  1.0528 -0.2262  1.2805
 3367TIP3    H231593   1.917   0.096   4.731  0.2395 -0.0602  2.1688
 3368TIP3   OH231594   4.385   4.960  13.870  0.0567  0.3574 -0.0590
 3368TIP3    H131595   4.408   4.868  13.880 -0.6261  0.0341 -1.3281
 3368TIP3    H231596   4.355   4.987  13.956 -0.8845 -0.9425  0.0235
 3369TIP3   OH231597   4.388   2.043  14.824 -0.3834  0.0937 -0.3370
 3369TIP3    H131598   4.324   2.014  14.759 -0.7301 -0.4767  0.2580
 3369TIP3    H231599   4.463   1.986  14.810 -0.7384 -0.5209  0.2567
 3370TIP3   OH231600   3.904   0.836  14.600 -0.2997 -0.2551  0.1735
 3370TIP3    H131601   3.983   0.881  14.569 -1.9947  1.4804 -1.6816
 3370TIP3    H231602   3.891   0.765  14.538 -1.6710  1.0658 -1.0867
 3371TIP3   OH231603   4.077   1.660  13.780  0.6402  0.1218  0.2582
 3371TIP3    H131604   3.990   1.625  13.763  0.7909  0.6415 -1.6720
 3371TIP3    H231605   4.125   1.587  13.819 -0.4539 -0.3439  0.7549
 3372TIP3   OH231606   3.263   6.017   0.328  1.0662  0.0689  0.0180
 3372TIP3    H131607   3.320   5.954   0.284  0.8131  0.0616 -0.3116
 3372TIP3    H231608   3.193   5.963   0.366  0.1838  0.2478 -1.3087
 3373TIP3   OH231609   3.798   2.100   0.503 -0.0684  0.2039  0.1028
 3373TIP3    H131610   3.796   2.155   0.582  0.9325  0.2199  0.1165
 3373TIP3    H231611   3.890   2.098   0.478 -0.5171  1.0871 -1.6818
 3374TIP3   OH231612   1.813   3.067  11.310 -0.3644  0.3430  0.1097
 3374TIP3    H131613   1.732   3.117  11.300  0.5075  1.8507  0.4495
 3374TIP3    H231614   1.787   2.988  11.358 -1.9057  0.0537 -1.1678
 3375TIP3   OH231615   4.404   3.680  12.304  0.0995 -0.5169  0.0913
 3375TIP3    H131616   4.369   3.593  12.325 -0.1041 -0.4098  0.2008
 3375TIP3    H231617   4.332   3.740  12.323 -0.4348 -0.5094 -1.8558
 3376TIP3   OH231618   6.483   1.906   1.573  0.1577  0.0706  0.3814
 3376TIP3    H131619   6.577   1.909   1.592  0.0064 -0.0139  1.1792
 3376TIP3    H231620   6.454   1.822   1.609  0.4445 -1.6520 -3.1515
 3377TIP3   OH231621   3.528   1.870   2.202 -0.9058  0.1077  0.0122
 3377TIP3    H131622   3.585   1.946   2.196 -1.5107  0.7780  2.1035
 3377TIP3    H231623   3.587   1.797   2.220 -0.3787  0.1491 -1.4657
 3378TIP3   OH231624   0.351   5.511  14.579 -0.6035 -0.1568  0.1245
 3378TIP3    H131625   0.381   5.599  14.599 -1.2356  0.6463 -2.3634
 3378TIP3    H231626   0.417   5.475  14.520 -1.8130 -0.2671 -1.1986
 3379TIP3   OH231627   3.333   4.367  10.406 -0.2118 -0.0547 -0.6020
 3379TIP3    H131628   3.401   4.416  10.452 -0.8072  0.7192 -0.5445
 3379TIP3    H231629   3.375   4.335  10.327  0.7094 -1.0295  0.2584
 3380TIP3   OH231630   1.118   0.965   1.621 -0.2083  0.2459 -0.3908
 3380TIP3    H131631   1.187   0.999   1.564  1.0406  0.0374  0.9905
 3380TIP3    H231632   1.158   0.958   1.707 -2.7419  2.8271  1.1094
 3381TIP3   OH231633   2.964   3.821  13.737 -0.2118 -0.2369 -0.2076
 3381TIP3    H131634   2.907   3.754  13.700  0.0050 -0.3316 -0.3693
 3381TIP3    H231635   3.028   3.772  13.789 -0.6910 -0.0829  0.5273
 3382TIP3   OH231636   6.370   2.698  16.418 -0.3321 -0.4970  0.0455
 3382TIP3    H131637   6.383   2.748  16.337 -0.6623  0.3147  0.4850
 3382TIP3    H231638   6.336   2.613  16.389  1.0401 -0.7726 -0.7694
 3383TIP3   OH231639   5.019   2.147   4.589 -0.0780  0.0595  0.0028
 3383TIP3    H131640   5.067   2.066   4.567 -0.0709 -0.2016  0.9510
 3383TIP3    H231641   4.961   2.160   4.515 -2.2855 -2.5249  1.1837
 3384TIP3   OH231642   1.457   3.309   6.476 -0.4915 -0.2218  1.0448
 3384TIP3    H131643   1.410   3.226   6.464  0.0312 -0.5318  1.1033
 3384TIP3    H231644   1.520   3.290   6.546 -0.3963  0.2370  1.0816
 3385TIP3   OH231645   5.939   0.594   5.311  0.0502 -0.4114 -0.1980
 3385TIP3    H131646   5.926   0.604   5.405  0.4182 -2.6731  0.1041
 3385TIP3    H231647   5.993   0.669   5.286 -0.5666  0.5387  1.2586
 3386TIP3   OH231648   1.683   2.446  15.470  0.3559  0.3495 -0.2358
 3386TIP3    H131649   1.669   2.388  15.396 -0.3451 -0.3472  0.4393
 3386TIP3    H231650   1.662   2.533  15.436 -4.4710 -0.4634  0.3538
 3387TIP3   OH231651   3.663   4.738  14.488 -0.3277 -0.1514 -0.3726
 3387TIP3    H131652   3.568   4.731  14.484 -0.4325  1.0464 -0.1624
 3387TIP3    H231653   3.688   4.783  14.407 -0.2399  2.2318  0.9212
 3388TIP3   OH231654   3.948   1.454  16.736 -0.1803  0.2427  0.2158
 3388TIP3    H131655   3.920   1.365  16.713 -0.9432  0.2680  1.0313
 3388TIP3    H231656   4.009   1.442  16.809  1.7365  0.2119 -1.3600
 3389TIP3   OH231657   3.114   1.770  12.567 -0.4306 -0.5650  0.3275
 3389TIP3    H131658   3.203   1.735  12.569 -0.3947 -0.5709 -0.9956
 3389TIP3    H231659   3.058   1.694  12.586 -0.1937 -0.6660  0.6378
 3390TIP3   OH231660   0.637   5.098  16.274  0.1414 -0.2077  0.0908
 3390TIP3    H131661   0.723   5.062  16.295  0.5260  0.3277 -0.5593
 3390TIP3    H231662   0.622   5.165  16.341  0.6268  0.3180 -0.3143
 3391TIP3   OH231663   2.867   1.497  11.461  1.0205  0.4207 -0.0640
 3391TIP3    H131664   2.930   1.497  11.389  2.2297  0.5809  0.9672
 3391TIP3    H231665   2.854   1.589  11.482  0.6043  0.3777 -0.1328
 3392TIP3   OH231666   1.317   0.558  13.980 -0.0506 -0.0340  0.2339
 3392TIP3    H131667   1.359   0.522  13.902 -0.1105  2.4549 -1.0059
 3392TIP3    H231668   1.224   0.563  13.958 -0.2313 -0.4160  0.9060
 3393TIP3   OH231669   2.102   0.085  15.535  0.3256 -0.3993 -0.1665
 3393TIP3    H131670   2.025   0.031  15.521  1.6089 -1.8117 -2.0507
 3393TIP3    H231671   2.084   0.166  15.487 -1.2200  0.5473  1.9271
 3394TIP3   OH231672   2.215   0.303   1.204 -0.7654  0.8720  0.2110
 3394TIP3    H131673   2.183   0.368   1.142  0.5306  1.4272  0.1121
 3394TIP3    H231674   2.257   0.353   1.273 -0.3007  0.1599  0.4527
 3395TIP3   OH231675   6.140   1.014  12.548  0.0241  0.4214  0.1331
 3395TIP3    H131676   6.075   1.071  12.589  0.1908  1.5109 -1.0880
 3395TIP3    H231677   6.123   1.021  12.454  1.4473  0.1652 -0.1594
 3396TIP3   OH231678   0.341   2.282  10.661  0.4582  0.3169  0.5191
 3396TIP3    H131679   0.417   2.233  10.628 -0.3651  0.2705 -1.3945
 3396TIP3    H231680   0.273   2.267  10.595 -0.9677  0.9901  1.8264
 3397TIP3   OH231681   0.556   1.821   1.113  0.9850 -0.2056 -0.0083
 3397TIP3    H131682   0.584   1.729   1.116  0.7637 -0.2518  0.7672
 3397TIP3    H231683   0.637   1.870   1.103  0.9380 -0.5928 -2.7418
 3398TIP3   OH231684   3.135   5.523  16.451 -0.1682 -0.0842  0.0549
 3398TIP3    H131685   3.170   5.533  16.540 -2.5191 -1.5762  1.2190
 3398TIP3    H231686   3.071   5.594  16.444 -2.0457 -1.6692  0.6629
 3399TIP3   OH231687   3.835   2.747  13.964  0.0453 -0.2114 -0.1406
 3399TIP3    H131688   3.831   2.716  14.054  0.4206  0.8257  0.2372
 3399TIP3    H231689   3.832   2.842  13.971  0.4342 -0.1150 -1.2009
 3400TIP3   OH231690   0.935   5.933   4.809 -0.1223  0.0999 -0.3857
 3400TIP3    H131691   0.951   5.950   4.902  0.3993  0.7654 -0.5972
 3400TIP3    H231692   1.022   5.924   4.771 -0.2595  2.6193 -1.3333
 3401TIP3   OH231693   1.807   1.124  12.863 -0.3991  0.5807 -0.1921
 3401TIP3    H131694   1.831   1.052  12.921 -1.1639  0.5163  0.0484
 3401TIP3    H231695   1.774   1.082  12.784  1.3438  0.6639 -0.9943
 3402TIP3   OH231696   4.943   5.943  14.354  0.5241  0.2037 -0.1587
 3402TIP3    H131697   4.933   6.038  14.367 -0.8715  0.2678 -1.5545
 3402TIP3    H231698   4.865   5.905  14.394  0.9528 -0.3496  0.1573
 3403TIP3   OH231699   3.432   3.628   6.049 -0.5180  0.1561  0.3949
 3403TIP3    H131700   3.441   3.701   5.987 -1.9571  0.1167  0.1371
 3403TIP3    H231701   3.372   3.567   6.006 -1.9358  0.3600  2.0513
 3404TIP3   OH231702   5.792   0.810  15.863  0.3461 -0.3593 -0.1274
 3404TIP3    H131703   5.740   0.833  15.786  1.6301 -0.6862 -1.1106
 3404TIP3    H231704   5.834   0.727  15.840 -0.9397 -1.5628  1.7700
 3405TIP3   OH231705   0.060   0.523   5.203 -0.0023 -0.4422 -0.2208
 3405TIP3    H131706   0.101   0.608   5.188 -2.0358  0.4222 -1.0060
 3405TIP3    H231707   0.133   0.461   5.205  1.4672  1.2795  0.0833
 3406TIP3   OH231708   2.961   4.744  16.557 -0.3160  0.5665 -0.3314
 3406TIP3    H131709   2.966   4.839  16.543 -0.0047  0.4475 -1.0536
 3406TIP3    H231710   3.051   4.713  16.547 -0.4549  0.1608 -0.3576
 3407TIP3   OH231711   0.221   5.591  12.515  0.0601 -0.0775  0.5616
 3407TIP3    H131712   0.252   5.541  12.591 -0.8385 -2.8012 -0.7977
 3407TIP3    H231713   0.301   5.616  12.469  0.4604 -2.4489 -0.0754
 3408TIP3   OH231714   1.799   1.979  13.919 -0.2937 -0.0306  0.3791
 3408TIP3    H131715   1.838   1.953  13.836  0.0591  0.3255  0.4338
 3408TIP3    H231716   1.872   1.979  13.981 -0.1708  1.7369  0.2347
 3409TIP3   OH231717   6.545   6.762   0.421  0.2783 -0.3963 -0.2323
 3409TIP3    H131718   6.479   6.831   0.421  0.2357 -0.4341  1.0411
 3409TIP3    H231719   6.626   6.807   0.398  0.3496  0.1815  1.1101
 3410TIP3   OH231720   2.489   3.612   2.024  0.4852  0.4678  0.9158
 3410TIP3    H131721   2.469   3.544   2.088 -1.0950  1.6399  1.6941
 3410TIP3    H231722   2.478   3.694   2.071 -1.4313  1.3812 -1.0358
 3411TIP3   OH231723   0.398   0.616  12.081 -0.0885 -0.0869 -0.2390
 3411TIP3    H131724   0.413   0.691  12.139 -0.1810  1.3717 -2.0601
 3411TIP3    H231725   0.435   0.542  12.129 -0.1346  1.0786  1.6753
 3412TIP3   OH231726   5.742   3.264  13.986 -0.2200 -0.3027  0.1064
 3412TIP3    H131727   5.763   3.195  14.049  0.5795 -0.2392 -0.0831
 3412TIP3    H231728   5.682   3.223  13.924  1.3191 -1.2453 -0.7951
 3413TIP3   OH231729   2.566   2.830  11.404 -0.1630 -0.6705  0.4880
 3413TIP3    H131730   2.541   2.782  11.483 -1.2035 -1.7740 -0.4945
 3413TIP3    H231731   2.508   2.797  11.336  0.3597  0.6544 -0.6374
 3414TIP3   OH231732   4.460   3.774  14.783  0.0876  0.0094  0.4219
 3414TIP3    H131733   4.364   3.774  14.777  0.0352 -2.2593  0.7250
 3414TIP3    H231734   4.489   3.790  14.693 -0.5957 -0.1787  0.1575
 3415TIP3   OH231735   2.766   5.819  13.304  0.3849 -0.0162 -0.1123
 3415TIP3    H131736   2.707   5.747  13.329  2.1516 -0.9056  1.6411
 3415TIP3    H231737   2.739   5.892  13.360  0.0078  0.0242 -0.3442
 3416TIP3   OH231738   6.230   0.614   3.048  0.2743  0.4257 -0.3371
 3416TIP3    H131739   6.303   0.624   2.987  0.7192 -1.3039 -0.1204
 3416TIP3    H231740   6.266   0.638   3.133  0.1312  1.1797 -0.4921
 3417TIP3   OH231741   5.255   4.738  11.977 -0.1145 -0.4977  0.0007
 3417TIP3    H131742   5.341   4.776  11.996  0.8771 -2.4069 -0.5730
 3417TIP3    H231743   5.217   4.797  11.912  0.5349  0.6371  0.6241
 3418TIP3   OH231744   4.250   0.930   3.007 -0.4437  0.1709  0.5462
 3418TIP3    H131745   4.335   0.958   3.039  0.9222 -1.5977 -1.3987
 3418TIP3    H231746   4.242   0.971   2.921 -1.1273 -0.4212  0.3228
 3419TIP3   OH231747   1.236   3.967  10.883  0.2604 -0.2549  0.2119
 3419TIP3    H131748   1.144   3.958  10.907 -0.0146 -2.0383 -1.3652
 3419TIP3    H231749   1.256   3.887  10.834  2.9044 -0.3190  1.2957
 3420TIP3   OH231750   6.493   4.933   3.931 -0.2397  0.3895 -0.2664
 3420TIP3    H131751   6.465   4.850   3.893 -0.2535  1.4263 -2.5942
 3420TIP3    H231752   6.426   4.996   3.904 -0.0712  1.2349  1.2186
 3421TIP3   OH231753   0.983   0.966  12.995 -0.2708  0.5015  0.3306
 3421TIP3    H131754   0.974   1.060  13.010 -1.2965  0.3168  0.9187
 3421TIP3    H231755   0.987   0.927  13.083  0.0585 -0.0156  0.0934
 3422TIP3   OH231756   4.195   0.537  16.168  0.1620 -0.4695 -0.1177
 3422TIP3    H131757   4.101   0.554  16.160 -0.3620 -2.5283  1.4529
 3422TIP3    H231758   4.232   0.621  16.196 -1.2588  0.2081 -0.2388
 3423TIP3   OH231759   0.802   4.593  16.844 -0.0336  0.1954 -0.1385
 3423TIP3    H131760   0.863   4.520  16.837  0.8878  1.0574 -1.1270
 3423TIP3    H231761   0.855   4.671  16.827 -1.1433  1.0525  0.2576
 3424TIP3   OH231762   2.087   5.642  13.813  0.2533  0.2917 -0.4300
 3424TIP3    H131763   2.037   5.563  13.835 -0.0085  0.3456 -0.8170
 3424TIP3    H231764   2.175   5.623  13.843  0.2524 -0.2639 -0.7540
 3425TIP3   OH231765   6.125   4.083   5.834  0.2958 -0.0341  0.1606
 3425TIP3    H131766   6.089   4.166   5.805  1.4934 -0.7985 -3.8011
 3425TIP3    H231767   6.212   4.105   5.867  1.4958  0.1149 -2.9036
 3426TIP3   OH231768   3.646   0.085   5.312 -0.1856 -0.1296  0.7187
 3426TIP3    H131769   3.623   0.088   5.219  1.4795 -0.1330  0.2904
 3426TIP3    H231770   3.617  -0.002   5.342  2.2769 -1.4510 -0.6226
 3427TIP3   OH231771   4.027   2.891   1.640  0.2458  0.1318  0.1864
 3427TIP3    H131772   4.032   2.829   1.567  1.7693  0.0634  0.3392
 3427TIP3    H231773   4.116   2.923   1.651 -0.2626  1.2928  1.0345
 3428TIP3   OH231774   0.362   4.249  12.849 -0.0863  0.0454 -0.1512
 3428TIP3    H131775   0.384   4.294  12.930  1.3387  1.7191 -1.4229
 3428TIP3    H231776   0.378   4.314  12.780  0.6104 -1.9315 -1.9273
 3429TIP3   OH231777   3.306   0.764   0.169 -0.6249 -0.6340  0.1292
 3429TIP3    H131778   3.236   0.784   0.230 -2.6274 -1.3284 -1.8506
 3429TIP3    H231779   3.328   0.849   0.129 -1.8790 -0.7293 -0.8005
 3430TIP3   OH231780   0.655   0.949   2.384  0.5201  0.2725 -0.3153
 3430TIP3    H131781   0.709   1.021   2.414 -0.6738  0.6261  1.0950
 3430TIP3    H231782   0.684   0.874   2.436 -1.4062  0.8356  1.6415
 3431TIP3   OH231783   2.036   6.537   2.864  0.0022 -0.2810 -0.0967
 3431TIP3    H131784   2.032   6.629   2.889  0.3137 -0.4321  0.5238
 3431TIP3    H231785   1.962   6.524   2.805  0.9127  0.7666 -1.5262
 3432TIP3   OH231786   4.598   6.374   1.949  0.9888  0.2451  0.7236
 3432TIP3    H131787   4.552   6.385   2.033  1.1525  0.8980  0.7273
 3432TIP3    H231788   4.560   6.441   1.893 -1.4206 -2.1938 -0.7330
 3433TIP3   OH231789   5.524   5.246  13.875  0.0956  0.3182  0.3009
 3433TIP3    H131790   5.458   5.200  13.823  0.8746  0.7159 -1.0348
 3433TIP3    H231791   5.486   5.248  13.964  0.6566 -4.2150  0.7854
 3434TIP3   OH231792   0.935   5.378  14.761 -0.5935  0.1695  0.7574
 3434TIP3    H131793   0.957   5.431  14.684  0.9389 -0.4347  0.7628
 3434TIP3    H231794   1.005   5.395  14.823 -0.6651 -1.0124  1.1825
 3435TIP3   OH231795   0.923   1.562  10.974  0.0584  0.5973  0.0909
 3435TIP3    H131796   0.873   1.634  10.938 -1.3288 -0.4035 -0.0374
 3435TIP3    H231797   0.861   1.489  10.978  1.7681 -0.9767 -1.0543
 3436TIP3   OH231798   4.063   1.601  17.017 -0.1854 -0.1736  0.3789
 3436TIP3    H131799   4.078   1.523  16.963 -1.2222 -0.0080 -0.1543
 3436TIP3    H231800   4.124   1.667  16.981  0.3380 -0.5793  0.5145
 3437TIP3   OH231801   1.603   2.006  12.489  0.1307 -0.0103  0.7695
 3437TIP3    H131802   1.678   2.049  12.530 -0.1250  1.4119 -0.2509
 3437TIP3    H231803   1.528   2.063  12.510 -0.3973 -0.5554  0.3820
 3438TIP3   OH231804   1.547   0.681   3.703  0.1388  0.3438 -0.1472
 3438TIP3    H131805   1.512   0.734   3.632  0.5382 -0.4585 -0.9568
 3438TIP3    H231806   1.642   0.679   3.687  0.0027 -1.5322 -0.7615
 3439TIP3   OH231807   6.093   2.028   0.351 -0.2877  0.1710 -0.4095
 3439TIP3    H131808   6.102   1.982   0.267  1.3205  0.9673 -0.6904
 3439TIP3    H231809   6.046   2.108   0.330 -0.8674 -0.1468 -0.3471
 3440TIP3   OH231810   2.065   6.033   5.618 -0.2707  0.6957 -0.0532
 3440TIP3    H131811   2.125   6.092   5.573  0.0895 -0.7465 -1.4914
 3440TIP3    H231812   2.049   5.961   5.556  0.3783 -1.4225  2.1561
 3441TIP3   OH231813   0.642   4.467  15.623  0.2629  0.0957 -0.4993
 3441TIP3    H131814   0.630   4.561  15.635 -0.7690  0.0065 -0.7814
 3441TIP3    H231815   0.727   4.459  15.580 -0.4273  1.0118 -2.0660
 3442TIP3   OH231816   1.068   0.033   5.779  0.1817 -0.3807  0.4152
 3442TIP3    H131817   1.137   0.098   5.782  2.1368 -2.2506 -1.5851
 3442TIP3    H231818   1.075  -0.005   5.691 -1.8710 -2.2164  0.9929
 3443TIP3   OH231819   3.268   0.775  13.585 -0.4653  0.0267  0.5084
 3443TIP3    H131820   3.278   0.825  13.504 -0.8425  1.0234  1.0682
 3443TIP3    H231821   3.247   0.687  13.556  0.5530  0.1100 -0.5053
 3444TIP3   OH231822   4.487   0.153   4.709 -0.0326 -0.4227  0.7254
 3444TIP3    H131823   4.578   0.166   4.683  0.0969 -1.1330  0.8325
 3444TIP3    H231824   4.477   0.204   4.790 -0.0864  0.7157  0.0180
 3445TIP3   OH231825   0.666   1.274   3.069 -0.8284 -0.2621 -0.1773
 3445TIP3    H131826   0.613   1.345   3.033 -0.1456 -0.0759 -0.8308
 3445TIP3    H231827   0.730   1.317   3.126 -0.3034 -0.3211 -0.7068
 3446TIP3   OH231828   6.516   4.365  15.150 -0.8375  0.7190 -0.1176
 3446TIP3    H131829   6.499   4.455  15.180 -2.3387  0.1873  0.7192
 3446TIP3    H231830   6.568   4.376  15.071 -0.2873  2.3072  0.4317
 3447TIP3   OH231831   0.806   1.149  11.672  0.1762  0.4920  0.0394
 3447TIP3    H131832   0.837   1.190  11.591 -0.1617 -0.1094 -0.4035
 3447TIP3    H231833   0.884   1.140  11.726  1.2021 -2.8654 -1.8639
 3448TIP3   OH231834   2.601   5.332   3.282  0.0034 -0.3293 -0.4959
 3448TIP3    H131835   2.592   5.346   3.376  0.9807  1.1389 -0.6154
 3448TIP3    H231836   2.515   5.299   3.254 -0.1712 -1.1322  0.9563
 3449TIP3   OH231837   0.395   3.887   4.250  0.1815 -0.5908 -0.5216
 3449TIP3    H131838   0.468   3.843   4.207  0.9020  0.3644 -0.2916
 3449TIP3    H231839   0.330   3.818   4.263 -0.5634 -0.7018 -4.2184
 3450TIP3   OH231840   4.392   0.764   3.375 -0.2867 -0.6297 -0.2777
 3450TIP3    H131841   4.323   0.784   3.312 -0.6647  0.2138  0.3960
 3450TIP3    H231842   4.390   0.668   3.382 -1.9787 -0.5717  0.3746
 3451TIP3   OH231843   1.290   5.132  16.272  0.7512  0.0441  0.2759
 3451TIP3    H131844   1.256   5.056  16.320  1.8234  0.1553  1.2669
 3451TIP3    H231845   1.384   5.133  16.295  0.9557  1.0259 -0.5967
 3452TIP3   OH231846   3.069   2.101   3.134 -0.0010  0.2534  0.3288
 3452TIP3    H131847   3.035   2.061   3.054  0.9249  2.1400 -1.0289
 3452TIP3    H231848   3.009   2.173   3.152  1.0792  1.2304  0.0537
 3453TIP3   OH231849   0.148   0.924  14.084  0.2593 -0.1427 -0.8049
 3453TIP3    H131850   0.198   0.973  14.020  2.0920 -1.2970 -0.2811
 3453TIP3    H231851   0.148   0.834  14.051 -0.8193 -0.2948 -0.4059
 3454TIP3   OH231852   4.432   1.448  12.692 -0.5818 -0.1214  0.5214
 3454TIP3    H131853   4.345   1.471  12.659 -0.0923  0.9547 -0.0464
 3454TIP3    H231854   4.415   1.405  12.776 -1.6358  0.4722  0.6252
 3455TIP3   OH231855   6.213   1.417   2.219 -0.1174 -0.0579 -0.2133
 3455TIP3    H131856   6.128   1.451   2.190  0.6401  1.7055 -0.4009
 3455TIP3    H231857   6.236   1.470   2.295  0.1186 -1.5588  0.7895
 3456TIP3   OH231858   4.033   1.779   1.385 -0.0122  0.5835  0.3839
 3456TIP3    H131859   4.013   1.797   1.477 -0.6422 -2.7400  0.9563
 3456TIP3    H231860   4.128   1.767   1.383 -0.0670  0.0596  0.7374
 3457TIP3   OH231861   6.159   2.203   5.611 -0.5664  0.1967 -0.4755
 3457TIP3    H131862   6.216   2.266   5.566  1.1287 -1.0491 -0.1099
 3457TIP3    H231863   6.080   2.253   5.633  0.5205  2.0330 -0.6994
 3458TIP3   OH231864   4.422   6.532  16.135  0.0315  0.1304  0.6495
 3458TIP3    H131865   4.393   6.546  16.045 -0.6213 -0.8642  0.6990
 3458TIP3    H231866   4.495   6.471  16.128  0.5053  0.6882  0.7262
 3459TIP3   OH231867   5.997   5.099   4.605  0.8307  0.3272 -0.2272
 3459TIP3    H131868   5.926   5.163   4.596  1.9207  1.4042 -1.4874
 3459TIP3    H231869   6.042   5.125   4.686  0.0649 -0.0914  0.3410
 3460TIP3   OH231870   5.865   5.767  15.403 -0.8695  0.5917  0.3683
 3460TIP3    H131871   5.844   5.769  15.496  1.2196  1.0683  0.8565
 3460TIP3    H231872   5.892   5.857  15.382  1.4542 -0.1426  0.0161
 3461TIP3   OH231873   0.699   5.441   0.860 -0.8344  0.0954  0.8107
 3461TIP3    H131874   0.670   5.462   0.949  0.6315 -1.0317  1.5797
 3461TIP3    H231875   0.785   5.483   0.852 -0.9815  0.2462 -0.1168
 3462TIP3   OH231876   0.072   6.251  15.944  0.1111 -0.5739  0.1857
 3462TIP3    H131877   0.117   6.283  15.866  1.1133  0.4793  1.1697
 3462TIP3    H231878  -0.007   6.305  15.949  1.5468  1.4753  1.5570
 3463TIP3   OH231879   3.418   1.563  12.953  0.1271  0.2398  0.2335
 3463TIP3    H131880   3.346   1.531  12.898 -0.9159  1.6401  0.7524
 3463TIP3    H231881   3.380   1.635  13.004  2.0615  1.4696  0.0213
 3464TIP3   OH231882   6.189   1.011  14.228 -0.2874  0.4592  0.1778
 3464TIP3    H131883   6.120   0.948  14.208  0.9916 -1.7355  2.3869
 3464TIP3    H231884   6.243   1.013  14.148 -0.5888 -0.9707 -0.0838
 3465TIP3   OH231885   1.641   6.653   5.664 -0.3198 -0.1201  0.2336
 3465TIP3    H131886   1.719   6.604   5.636  1.1968  1.7632  1.0306
 3465TIP3    H231887   1.666   6.745   5.653 -3.3355  0.5091 -1.8654
 3466TIP3   OH231888   0.441   1.260   5.891 -0.6758 -0.1535 -0.6858
 3466TIP3    H131889   0.475   1.299   5.972 -1.5283 -0.3543 -0.2253
 3466TIP3    H231890   0.513   1.268   5.829 -0.2877  0.7291 -0.1394
 3467TIP3   OH231891   5.350   2.821  14.675 -0.1328  0.1882  0.8175
 3467TIP3    H131892   5.376   2.903  14.634 -2.0196 -0.4431 -1.8489
 3467TIP3    H231893   5.259   2.835  14.702  0.0048 -0.5300  1.6774
 3468TIP3   OH231894   1.333   4.860   0.341  0.0780  0.2461  0.0386
 3468TIP3    H131895   1.364   4.902   0.260 -0.6308  0.8201  0.0561
 3468TIP3    H231896   1.257   4.912   0.367 -1.5253 -1.7228 -0.5526
 3469TIP3   OH231897   6.276   0.848   5.753 -0.7893  0.0229  0.7271
 3469TIP3    H131898   6.317   0.934   5.742 -0.4766 -0.1329  0.6654
 3469TIP3    H231899   6.347   0.793   5.786  0.0624 -1.2133 -2.9626
 3470TIP3   OH231900   5.269   6.783  13.873 -0.0095  0.2034 -0.6185
 3470TIP3    H131901   5.281   6.770  13.779  0.2616  0.6790 -0.6521
 3470TIP3    H231902   5.177   6.808  13.883 -0.5013 -1.4928 -0.5755
 3471TIP3   OH231903   6.307   2.854  12.958 -0.1391 -0.4368  0.2314
 3471TIP3    H131904   6.271   2.924  12.904 -0.2490 -0.4363  0.3053
 3471TIP3    H231905   6.256   2.857  13.039 -0.3674 -0.8152  0.1034
 3472TIP3   OH231906   5.012   1.166   1.913  0.2809  0.2335  0.0107
 3472TIP3    H131907   4.974   1.242   1.870 -1.0194  0.2150  1.0818
 3472TIP3    H231908   5.074   1.131   1.850 -0.3491  1.1910 -1.1595
 3473TIP3   OH231909   3.806   3.264  14.174  0.9427  0.1099 -1.1527
 3473TIP3    H131910   3.898   3.239  14.166  2.2225  2.9618  2.8853
 3473TIP3    H231911   3.777   3.223  14.256 -0.8673  0.6720 -1.4998
 3474TIP3   OH231912   3.805   2.876   4.398  0.4352  0.0496 -0.5671
 3474TIP3    H131913   3.835   2.900   4.311 -1.9614  1.9189 -0.9528
 3474TIP3    H231914   3.748   2.800   4.384 -0.1947  0.5377 -0.6970
 3475TIP3   OH231915   6.231   1.383  12.993  0.2114 -0.2639  0.1761
 3475TIP3    H131916   6.205   1.474  12.985  1.6753  0.1526  0.0108
 3475TIP3    H231917   6.150   1.336  13.013 -0.5567  1.0543  0.1767
 3476TIP3   OH231918   0.673   2.474  11.976 -0.2110  0.7155  0.8593
 3476TIP3    H131919   0.579   2.467  11.990 -0.3308  2.2939  0.9573
 3476TIP3    H231920   0.682   2.517  11.891  0.4562 -1.0485 -0.0049
 3477TIP3   OH231921   5.012   0.421   4.313  0.1599  1.0707  0.8954
 3477TIP3    H131922   4.937   0.393   4.365 -0.5560  0.5936 -0.3634
 3477TIP3    H231923   5.061   0.341   4.296 -0.7018  0.8816 -0.8482
 3478TIP3   OH231924   4.098   5.632   0.103 -0.0966  0.2462 -0.1222
 3478TIP3    H131925   4.011   5.671   0.090 -0.1070  0.1870 -0.2258
 3478TIP3    H231926   4.126   5.606   0.016  0.0798  0.3778 -0.1063
 3479TIP3   OH231927   3.094   1.446  15.218  0.2324 -0.0050  0.0617
 3479TIP3    H131928   3.123   1.355  15.223 -1.1130 -0.5549 -1.9954
 3479TIP3    H231929   3.004   1.444  15.249 -0.3480  0.3624 -1.5988
 3480TIP3   OH231930   0.805   2.956  13.692  0.6984 -0.5241 -0.1278
 3480TIP3    H131931   0.883   3.011  13.698  0.8776 -0.7105 -0.7294
 3480TIP3    H231932   0.807   2.921  13.603 -0.8798  0.7146 -0.6786
 3481TIP3   OH231933   6.769   2.769  16.735 -1.0766 -0.5007  0.2129
 3481TIP3    H131934   6.773   2.674  16.731  2.1749 -0.3986 -0.5427
 3481TIP3    H231935   6.775   2.797  16.643 -0.0381  0.4207  0.5416
 3482TIP3   OH231936   6.498   2.474   4.163  0.2701  0.3859 -0.1180
 3482TIP3    H131937   6.435   2.402   4.163 -0.0923  0.7006  0.2361
 3482TIP3    H231938   6.480   2.522   4.243 -0.1123  1.4118 -0.8003
 3483TIP3   OH231939   4.071   0.355  10.744 -0.6248  0.0600 -0.3639
 3483TIP3    H131940   4.128   0.303  10.688 -1.6164 -1.3317 -0.1108
 3483TIP3    H231941   4.027   0.415  10.684  0.5519  0.6647 -0.6489
 3484TIP3   OH231942   2.281   5.308   0.743  0.5910 -0.8817  0.3957
 3484TIP3    H131943   2.233   5.370   0.797 -0.6480 -1.6286  0.1792
 3484TIP3    H231944   2.364   5.352   0.722  0.0722  0.3467  0.9190
 3485TIP3   OH231945   2.470   3.401  10.370  0.3258  0.4916 -0.0228
 3485TIP3    H131946   2.453   3.318  10.414  0.4658  0.5020  0.0545
 3485TIP3    H231947   2.529   3.448  10.430  0.4197  0.5556 -0.1647
 3486TIP3   OH231948   3.766   1.526  14.821 -0.1850 -0.1737 -0.5709
 3486TIP3    H131949   3.759   1.534  14.726  0.7910  1.0182 -0.5551
 3486TIP3    H231950   3.859   1.509  14.837 -0.1780  0.5835  0.2301
 3487TIP3   OH231951   5.794   4.286   3.870 -0.5840 -0.3568  0.1025
 3487TIP3    H131952   5.716   4.232   3.883 -0.8584 -0.0946 -0.4793
 3487TIP3    H231953   5.866   4.230   3.900 -1.2592  0.5009  3.5557
 3488TIP3   OH231954   3.890   1.877  14.481  0.0028 -0.4190 -0.6332
 3488TIP3    H131955   3.796   1.889  14.499  0.6396  2.3293  1.2149
 3488TIP3    H231956   3.927   1.852  14.566  1.0118 -1.0418 -1.2521
 3489TIP3   OH231957   3.159   3.083  13.613 -0.0648 -0.4516  0.0173
 3489TIP3    H131958   3.075   3.124  13.591 -1.1902 -1.7989  1.6745
 3489TIP3    H231959   3.190   3.131  13.689 -0.2690 -1.1882  0.5697
 3490TIP3   OH231960   3.280   5.124   1.966 -0.0053 -0.4362  0.2921
 3490TIP3    H131961   3.358   5.169   1.998 -0.8693  1.8138 -0.6761
 3490TIP3    H231962   3.208   5.165   2.014 -0.7604 -1.1462 -0.2373
 3491TIP3   OH231963   4.704   1.152   5.286  0.6702  0.1097  0.7971
 3491TIP3    H131964   4.751   1.180   5.365  2.0927  1.1979 -0.4180
 3491TIP3    H231965   4.773   1.128   5.224 -0.4513 -1.4069  0.1212
 3492TIP3   OH231966   3.770   1.161  13.349 -0.0760 -0.1806 -0.1032
 3492TIP3    H131967   3.851   1.150  13.299 -0.3679  0.1855 -0.6551
 3492TIP3    H231968   3.792   1.130  13.437  1.2922  1.9253  0.3335
 3493TIP3   OH231969   6.677   1.656  11.773  0.2088  0.3098 -0.2387
 3493TIP3    H131970   6.680   1.741  11.818  1.6436  1.1848 -1.9414
 3493TIP3    H231971   6.727   1.598  11.830 -0.0531  0.7940  0.5099
 3494TIP3   OH231972   0.202   5.798  16.283  0.1442 -0.2283 -0.3033
 3494TIP3    H131973   0.180   5.713  16.322 -2.2512  0.0459 -0.9899
 3494TIP3    H231974   0.204   5.782  16.189 -0.7211  0.5560 -0.4615
 3495TIP3   OH231975   2.990   2.098  14.336 -0.1228  0.1130 -0.0904
 3495TIP3    H131976   3.030   2.065  14.255  1.1612 -2.5340  1.5669
 3495TIP3    H231977   2.910   2.046  14.347  0.7940 -1.0334  1.3993
 3496TIP3   OH231978   1.430   4.881  13.128  0.4449 -0.7750 -0.0471
 3496TIP3    H131979   1.510   4.933  13.123  1.1256 -1.6826  1.1956
 3496TIP3    H231980   1.459   4.791  13.110 -0.4118 -0.9979 -0.3127
 3497TIP3   OH231981   5.494   4.845  12.079 -0.1679  0.0683  0.2648
 3497TIP3    H131982   5.463   4.844  12.170  3.6619 -1.4657  1.6287
 3497TIP3    H231983   5.550   4.922  12.073 -1.0386  0.6124 -1.0443
 3498TIP3   OH231984   2.628   3.684  16.589  0.5029  0.1389 -0.3888
 3498TIP3    H131985   2.705   3.627  16.596  0.4876  0.2941  1.3277
 3498TIP3    H231986   2.663   3.773  16.599  0.2051  0.2628 -0.4292
 3499TIP3   OH231987   5.728   1.315  15.009  0.4959  0.1286  0.2366
 3499TIP3    H131988   5.638   1.346  15.012 -0.4248 -2.4151  0.2987
 3499TIP3    H231989   5.760   1.340  14.922  0.0795  1.9230  0.5853
 3500TIP3   OH231990   4.059   5.428  11.446 -0.3944  0.2485 -0.0455
 3500TIP3    H131991   4.123   5.474  11.500 -0.9774  0.6166  0.3346
 3500TIP3    H231992   4.105   5.349  11.416  0.6251  1.1023 -0.7504
 3501TIP3   OH231993   4.384   6.048   1.091 -0.7498 -0.5647  0.3050
 3501TIP3    H131994   4.438   6.017   1.164  0.6206  1.9962  0.4488
 3501TIP3    H231995   4.295   6.049   1.126 -0.6004 -2.5673  0.8284
 3502TIP3   OH231996   3.303   4.198  12.511  0.0622  0.5293  0.6844
 3502TIP3    H131997   3.334   4.243  12.589  0.3709  1.9184 -0.2313
 3502TIP3    H231998   3.213   4.230  12.499  1.0073  2.5775 -1.1902
 3503TIP3   OH231999   6.380   6.034  16.890 -0.4733  0.1755 -0.0153
 3503TIP3    H132000   6.353   5.978  16.817  0.0403 -0.8753  0.5917
 3503TIP3    H232001   6.304   6.088  16.908 -0.1557  1.4598 -2.2523
 3504TIP3   OH232002   2.421   6.542  10.990 -0.1913  0.4937  0.5219
 3504TIP3    H132003   2.460   6.628  11.004 -0.7993  0.8788 -0.1049
 3504TIP3    H232004   2.344   6.559  10.935  0.0648 -0.5250 -0.1700
 3505TIP3   OH232005   1.440   1.898   3.823 -0.0847  0.5863  0.1563
 3505TIP3    H132006   1.435   1.980   3.872  1.6743  0.9315 -0.2047
 3505TIP3    H232007   1.529   1.865   3.839  0.2239  0.2546 -2.0468
 3506TIP3   OH232008   0.646   5.167   4.683  0.0011 -0.1549  0.1101
 3506TIP3    H132009   0.645   5.071   4.679  0.6788 -0.2383  1.6233
 3506TIP3    H232010   0.713   5.193   4.620  0.3281 -0.7043  0.2266
 3507TIP3   OH232011   4.408   5.579   1.255 -0.1806 -0.1396 -0.6248
 3507TIP3    H132012   4.318   5.580   1.224  0.0322 -1.0542 -1.2846
 3507TIP3    H232013   4.459   5.548   1.180  0.5788 -0.4762  0.0197
 3508TIP3   OH232014   5.011   3.247  14.707  0.3194  0.7926 -0.0333
 3508TIP3    H132015   5.025   3.237  14.613 -1.6208 -0.1843 -0.2343
 3508TIP3    H232016   5.066   3.179  14.747  0.6488  0.7915 -0.4869
 3509TIP3   OH232017   6.345   3.707  12.395 -0.2051 -0.8582 -0.1431
 3509TIP3    H132018   6.438   3.730  12.389  0.1742 -2.9530 -3.6274
 3509TIP3    H232019   6.300   3.792  12.398  1.7846  0.1792  1.7627
 3510TIP3   OH232020   2.305   6.539  13.316 -0.5117  0.4617  0.0566
 3510TIP3    H132021   2.215   6.560  13.292  0.0843  0.6309 -2.1671
 3510TIP3    H232022   2.354   6.547  13.234  0.9121 -3.2000  0.4406
 3511TIP3   OH232023   0.941   2.189   1.499 -0.5225  0.1656 -0.5332
 3511TIP3    H132024   0.928   2.260   1.562  0.7788 -0.6155  0.6432
 3511TIP3    H232025   0.855   2.147   1.493 -0.2743 -0.8341  2.0727
 3512TIP3   OH232026   5.992   6.179   3.065  0.3097  0.2919  0.1495
 3512TIP3    H132027   5.947   6.097   3.082  0.4499  0.1063 -0.3774
 3512TIP3    H232028   5.924   6.246   3.075 -0.0363  0.0277 -0.4332
 3513TIP3   OH232029   6.532   5.330   1.454  0.5256  0.1007  0.5283
 3513TIP3    H132030   6.625   5.325   1.433  0.3756 -0.5780  0.0194
 3513TIP3    H232031   6.528   5.324   1.549  0.9846 -0.0963  0.5353
 3514TIP3   OH232032   6.144   2.539  11.401 -0.0682  0.4014 -0.5778
 3514TIP3    H132033   6.082   2.560  11.471  0.9179  1.3849  0.0170
 3514TIP3    H232034   6.089   2.527  11.323 -1.1700 -0.7198  0.3524
 3515TIP3   OH232035   6.788   4.195  14.112 -0.1562  0.4302 -0.0716
 3515TIP3    H132036   6.879   4.176  14.136  0.2208  0.5543 -1.3301
 3515TIP3    H232037   6.764   4.122  14.055 -0.7094  0.6158 -0.0704
 3516TIP3   OH232038   0.654   3.168  12.787  0.1017  0.4349 -0.8159
 3516TIP3    H132039   0.742   3.133  12.772  0.4984  1.1904 -0.2459
 3516TIP3    H232040   0.609   3.153  12.704  0.0685 -1.9985 -0.4099
 3517TIP3   OH232041   4.336   1.491   3.194  0.3315 -0.3857  0.1711
 3517TIP3    H132042   4.359   1.399   3.205  1.5871 -0.0388  0.5387
 3517TIP3    H232043   4.420   1.536   3.183 -0.3541  0.5295 -1.5008
 3518TIP3   OH232044   1.945   3.766  12.803  0.0342  0.0313  0.6446
 3518TIP3    H132045   1.880   3.696  12.800 -0.7828  0.8573 -0.9734
 3518TIP3    H232046   1.894   3.847  12.803  1.0665  0.6945 -1.2272
 3519TIP3   OH232047   4.168   4.252  14.822 -0.1027  0.2881 -0.0080
 3519TIP3    H132048   4.263   4.241  14.816 -0.4474 -2.1194 -2.2746
 3519TIP3    H232049   4.144   4.207  14.903  0.7132  1.0768  0.6789
 3520TIP3   OH232050   3.334   3.951   3.777  0.7756  0.2710 -0.3199
 3520TIP3    H132051   3.296   4.017   3.835 -1.1102 -1.0227 -0.0410
 3520TIP3    H232052   3.424   3.942   3.807  0.4559  1.2130  0.9814
 3521TIP3   OH232053   4.379   0.927   6.132  0.1251  0.3343  0.3194
 3521TIP3    H132054   4.428   0.921   6.049 -2.2273 -0.4350 -1.0601
 3521TIP3    H232055   4.378   0.837   6.165 -0.6990  0.2650  0.1185
 3522TIP3   OH232056   1.572   4.451   1.857 -0.2913  0.1023  0.1294
 3522TIP3    H132057   1.529   4.491   1.782 -1.2780  0.5497  0.9143
 3522TIP3    H232058   1.610   4.524   1.905 -0.3130 -0.1031  0.4636
 3523TIP3   OH232059   2.656   5.276   3.581  0.0905  0.3061  0.2384
 3523TIP3    H132060   2.616   5.286   3.668 -1.2769  0.0996 -0.3487
 3523TIP3    H232061   2.733   5.334   3.583  0.3650 -0.0881  1.7554
 3524TIP3   OH232062   2.749   0.233   3.299  0.0615 -0.0211 -0.5034
 3524TIP3    H132063   2.740   0.170   3.371  0.2633 -0.4657 -0.8641
 3524TIP3    H232064   2.660   0.252   3.272 -0.0618  0.8149  0.4318
 3525TIP3   OH232065   5.832   3.384  14.276 -0.7243  0.0699 -0.0779
 3525TIP3    H132066   5.805   3.466  14.316 -2.6111 -0.7236  0.3099
 3525TIP3    H232067   5.750   3.342  14.249  0.3557 -0.4580 -2.7137
 3526TIP3   OH232068   2.511   2.922   3.684 -0.3000  0.5643 -0.1140
 3526TIP3    H132069   2.521   3.017   3.677  0.0207  0.4650 -1.0402
 3526TIP3    H232070   2.475   2.896   3.599 -0.2974 -0.1602  0.1059
 3527TIP3   OH232071   3.338   0.085  17.108 -0.4248  0.6402  0.3974
 3527TIP3    H132072   3.315   0.167  17.152 -0.9610 -0.0425  1.4138
 3527TIP3    H232073   3.373   0.029  17.178 -2.0667 -0.7620  0.1346
 3528TIP3   OH232074   0.821   3.553   4.653 -0.0362 -0.0175  0.2106
 3528TIP3    H132075   0.750   3.512   4.703 -0.7639  0.6843 -0.2296
 3528TIP3    H232076   0.901   3.526   4.697 -0.5948 -0.6710  0.8254
 3529TIP3   OH232077   3.623   2.652   3.456  0.6986  0.0577 -0.1655
 3529TIP3    H132078   3.529   2.641   3.469  0.3119  0.6749 -2.2212
 3529TIP3    H232079   3.652   2.568   3.420  1.2084 -0.6022  1.7139
 3530TIP3   OH232080   0.578   1.150  14.873 -0.2611  0.0981  0.0733
 3530TIP3    H132081   0.552   1.205  14.799  1.1246 -1.5052 -1.6622
 3530TIP3    H232082   0.497   1.106  14.900 -0.4172 -0.8080 -1.7960
 3531TIP3   OH232083   1.342   4.946   0.963 -0.7913  0.2396 -0.6531
 3531TIP3    H132084   1.297   4.862   0.961 -1.4745  0.6022 -0.4240
 3531TIP3    H232085   1.347   4.969   1.056  0.3590 -0.0640 -0.6311
 3532TIP3   OH232086   6.807   3.250   2.110  0.4790  0.3285 -0.2156
 3532TIP3    H132087   6.753   3.329   2.097  1.4283  1.1748  0.8968
 3532TIP3    H232088   6.798   3.230   2.203 -0.8404 -1.7027 -0.7638
 3533TIP3   OH232089   6.083   1.105  16.838  0.5157 -0.0089  0.2407
 3533TIP3    H132090   6.142   1.068  16.903 -0.6979 -0.6405  1.0075
 3533TIP3    H232091   6.036   1.030  16.802  1.6406  0.2541 -1.8645
 3534TIP3   OH232092   4.794   0.585   1.958 -0.1202 -0.1863 -0.1831
 3534TIP3    H132093   4.804   0.547   1.871  1.8826  1.1180 -0.5567
 3534TIP3    H232094   4.699   0.583   1.974 -0.6554  0.6592 -2.8904
 3535TIP3   OH232095   4.916   2.080   1.078 -0.2339 -0.0419 -0.4062
 3535TIP3    H132096   4.838   2.077   1.133 -0.0285  1.0108 -0.0440
 3535TIP3    H232097   4.982   2.029   1.126 -0.2955  0.1987 -0.0679
 3536TIP3   OH232098   5.934   4.447   1.967 -0.8465  0.1507  0.1082
 3536TIP3    H132099   5.894   4.509   1.906  0.1975  0.8760  0.1511
 3536TIP3    H232100   5.862   4.389   1.993 -1.2744 -0.3089 -1.9820
 3537TIP3   OH232101   3.270   4.370  17.067 -0.2987 -0.4405  0.1773
 3537TIP3    H132102   3.182   4.342  17.042  0.4913 -1.6645 -1.3740
 3537TIP3    H232103   3.257   4.452  17.114 -2.1100  0.4667 -1.8060
 3538TIP3   OH232104   2.673   2.473   0.237 -0.0109 -0.1462  0.5871
 3538TIP3    H132105   2.705   2.476   0.147  0.3959 -2.2544  0.6153
 3538TIP3    H232106   2.752   2.474   0.291 -0.2541  1.1074  0.9132
 3539TIP3   OH232107   1.444   2.311   6.054 -0.3265 -0.0579  0.2466
 3539TIP3    H132108   1.445   2.380   5.987  0.1681 -0.9985 -0.7173
 3539TIP3    H232109   1.360   2.323   6.098 -0.2903  1.1075  0.0244
 3540TIP3   OH232110   5.684   2.094  13.954  0.0761 -0.4849  0.0472
 3540TIP3    H132111   5.732   2.025  13.907 -2.0491 -1.6328 -0.4950
 3540TIP3    H232112   5.681   2.167  13.892  0.1056 -0.8273 -0.3645
 3541TIP3   OH232113   2.269   3.786  13.655 -0.0677  0.0787 -0.2466
 3541TIP3    H132114   2.350   3.834  13.675 -0.8914  1.3757  0.0699
 3541TIP3    H232115   2.200   3.837  13.698 -1.1635 -0.4582 -1.3372
 3542TIP3   OH232116   4.748   2.203  15.972 -0.4447  0.4617 -0.2654
 3542TIP3    H132117   4.691   2.203  15.895  0.0918  0.4549 -0.6747
 3542TIP3    H232118   4.821   2.259  15.947  0.3865 -0.5952 -0.2680
 3543TIP3   OH232119   4.906   3.779  11.807  0.6805  0.2274  0.2229
 3543TIP3    H132120   4.970   3.845  11.780  0.7589 -0.7036 -1.9599
 3543TIP3    H232121   4.960   3.705  11.836  0.6042  0.0613 -0.0552
 3544TIP3   OH232122   6.509   5.997  15.098 -0.0043 -0.5320  0.1211
 3544TIP3    H132123   6.531   6.001  15.005 -2.5937 -2.5351 -0.6594
 3544TIP3    H232124   6.454   6.074  15.113  1.9187  0.8020  0.4720
 3545TIP3   OH232125   1.691   2.925  16.961  0.7066  0.1273 -0.2417
 3545TIP3    H132126   1.672   2.985  16.889 -1.4124  0.8705  0.8934
 3545TIP3    H232127   1.677   2.838  16.924 -1.9663  0.5439 -0.3356
 3546TIP3   OH232128   3.750   4.294  11.548  0.2771 -0.2686 -0.0702
 3546TIP3    H132129   3.685   4.263  11.485  1.2860  0.5704 -1.5660
 3546TIP3    H232130   3.825   4.235  11.537  0.9253  0.6279 -0.5439
 3547TIP3   OH232131   1.634   5.948   1.831 -0.0025  0.1199 -0.0419
 3547TIP3    H132132   1.681   5.976   1.909  0.7204 -1.8711  0.2827
 3547TIP3    H232133   1.695   5.889   1.786 -0.7735  0.4744 -1.5944
 3548TIP3   OH232134   5.498   4.043  15.524  0.0896  0.2438 -0.5568
 3548TIP3    H132135   5.502   4.078  15.613  0.1605 -0.2830 -0.3519
 3548TIP3    H232136   5.535   4.112  15.469 -1.2542  1.1502 -0.3405
 3549TIP3   OH232137   3.078   1.475   3.700 -0.4128  0.4171 -0.0441
 3549TIP3    H132138   3.149   1.536   3.721  1.4995 -1.8697  0.3015
 3549TIP3    H232139   3.102   1.393   3.743 -1.6623 -1.3313 -2.5241
 3550TIP3   OH232140   4.687   3.722  16.088 -0.0963 -0.0352  0.3462
 3550TIP3    H132141   4.775   3.747  16.060  0.0035 -0.2718  0.4522
 3550TIP3    H232142   4.699   3.645  16.144 -0.5647 -1.4520 -1.4666
 3551TIP3   OH232143   5.062   4.260   5.919 -0.3364 -0.2608  0.1621
 3551TIP3    H132144   5.069   4.323   5.991 -1.0180  0.0598 -0.0469
 3551TIP3    H232145   4.981   4.213   5.937 -0.0162 -0.8294  0.1153
 3552TIP3   OH232146   4.160   1.727   5.017 -0.1944 -0.4524 -0.2867
 3552TIP3    H132147   4.099   1.793   4.983  0.9840  1.2642  0.8538
 3552TIP3    H232148   4.104   1.668   5.068 -1.2143 -0.1505 -1.0251
 3553TIP3   OH232149   6.470   5.129  15.452 -0.2484 -0.2019  0.0834
 3553TIP3    H132150   6.487   5.172  15.368 -1.3381 -1.1577 -0.6368
 3553TIP3    H232151   6.375   5.128  15.460 -0.1958 -1.3353  0.6817
 3554TIP3   OH232152   1.519   2.565   3.408  0.6057  0.3700 -0.2508
 3554TIP3    H132153   1.495   2.633   3.345  0.0674  0.1309 -0.3045
 3554TIP3    H232154   1.487   2.597   3.492  2.3034  1.2053  0.0949
 3555TIP3   OH232155   4.286   3.259   0.986 -0.2387  0.5695 -0.3524
 3555TIP3    H132156   4.210   3.242   1.041 -0.8553  0.1747 -1.3273
 3555TIP3    H232157   4.360   3.223   1.036 -0.8110  0.1090  0.1606
 3556TIP3   OH232158   0.605   3.488   2.870 -0.1053  1.0572  0.1355
 3556TIP3    H132159   0.693   3.524   2.863  0.1024  0.3246 -1.0721
 3556TIP3    H232160   0.596   3.430   2.794 -1.3193  0.4790  0.7031
 3557TIP3   OH232161   1.741   3.309  15.032  0.4961  0.3947  0.2300
 3557TIP3    H132162   1.794   3.300  14.953  0.4865 -0.8843  0.3602
 3557TIP3    H232163   1.801   3.345  15.097  0.8843  0.0734  0.0505
 3558TIP3   OH232164   3.401   3.600  16.586 -0.1461  0.2626  0.9251
 3558TIP3    H132165   3.327   3.599  16.526 -0.0476  1.4648  0.7796
 3558TIP3    H232166   3.429   3.691  16.589 -1.1371  0.5471  3.9849
 3559TIP3   OH232167   2.914   5.014   5.467 -0.3830  0.2626  0.2001
 3559TIP3    H132168   2.953   5.100   5.455 -0.3067  0.1999 -0.0139
 3559TIP3    H232169   2.873   5.017   5.553  0.5670  0.1509  0.6609
 3560TIP3   OH232170   4.324   2.005  15.980  0.6396  0.4585 -0.7542
 3560TIP3    H132171   4.324   1.910  15.997  0.2169  0.5952  0.0213
 3560TIP3    H232172   4.255   2.017  15.916  2.0042 -0.0150 -2.3533
 3561TIP3   OH232173   6.578   3.927   4.448 -0.2916 -0.1509  0.4078
 3561TIP3    H132174   6.642   3.943   4.518 -0.8461  0.4169  0.7969
 3561TIP3    H232175   6.496   3.965   4.481 -1.2459 -2.3248  0.6112
 3562TIP3   OH232176   4.638   0.480   0.971 -0.0491  0.3659  0.4232
 3562TIP3    H132177   4.587   0.557   0.994 -1.8258 -0.6726  0.0913
 3562TIP3    H232178   4.592   0.442   0.896  1.7952 -0.0437 -0.5260
 3563TIP3   OH232179   4.585   4.037   4.736 -0.0377 -0.5742  0.4490
 3563TIP3    H132180   4.659   3.976   4.728  0.8364  0.4499  0.5354
 3563TIP3    H232181   4.562   4.059   4.646  1.1534  0.7284  0.4428
 3564TIP3   OH232182   3.981   0.342  15.660 -0.5183  0.4216 -0.0134
 3564TIP3    H132183   3.893   0.308  15.643 -1.0083  1.2832  0.7056
 3564TIP3    H232184   3.968   0.436  15.671  0.3100  0.4023  1.2983
 3565TIP3   OH232185   6.220   4.389  13.297 -0.0797 -0.4065  0.2488
 3565TIP3    H132186   6.159   4.384  13.223 -2.5890  1.2664  2.1141
 3565TIP3    H232187   6.193   4.318  13.355 -0.4431  0.4820  1.1832
 3566TIP3   OH232188   6.645   6.731   5.284  0.4725 -0.3422 -0.1220
 3566TIP3    H132189   6.704   6.687   5.223 -0.6337 -1.5700 -0.3495
 3566TIP3    H232190   6.652   6.680   5.365  1.5400  0.9644  0.6105
 3567TIP3   OH232191   1.799   6.170   0.175  0.3154  0.2381 -0.3324
 3567TIP3    H132192   1.756   6.151   0.258 -0.2702  1.6742 -0.2911
 3567TIP3    H232193   1.762   6.107   0.114 -0.7388  0.4791  0.0487
 3568TIP3   OH232194   4.343   4.951   3.307 -0.3649  0.8473 -0.4862
 3568TIP3    H132195   4.274   5.002   3.265 -0.8467 -0.0095 -0.7433
 3568TIP3    H232196   4.411   5.016   3.328 -1.6001  1.8411  0.5352
 3569TIP3   OH232197   0.109   6.405  15.047 -0.0854 -0.9295 -0.2121
 3569TIP3    H132198   0.021   6.368  15.057 -0.8815  0.0800 -3.1023
 3569TIP3    H232199   0.105   6.489  15.091 -0.8812 -0.4691 -1.1379
 3570TIP3   OH232200   5.887   5.436   3.443  0.0812  0.1307  0.3389
 3570TIP3    H132201   5.828   5.455   3.516 -2.8631  0.7188 -2.0860
 3570TIP3    H232202   5.830   5.403   3.374  2.7735 -0.3955 -1.7311
 3571TIP3   OH232203   3.669   1.132   6.917  0.3294 -0.6989 -0.2043
 3571TIP3    H132204   3.596   1.070   6.914 -0.1242 -0.2035  0.4374
 3571TIP3    H232205   3.662   1.181   6.835 -0.4717 -0.1890  0.1658
 3572TIP3   OH232206   4.099   0.953  12.713  0.7791 -0.2280  0.6651
 3572TIP3    H132207   4.099   0.970  12.618 -1.3576  0.0236  0.6849
 3572TIP3    H232208   4.179   0.902  12.728  1.8022  0.7992 -1.0651
 3573TIP3   OH232209   3.897   4.122   3.135 -0.2476  0.4699  0.4891
 3573TIP3    H132210   3.921   4.213   3.152  2.0621 -0.1889  1.0458
 3573TIP3    H232211   3.937   4.102   3.050  0.5904 -0.4377  1.0775
 3574TIP3   OH232212   1.377   1.056   0.820  0.4762  0.1012  0.4614
 3574TIP3    H132213   1.352   1.027   0.732 -0.4315  0.5106  0.5790
 3574TIP3    H232214   1.319   1.009   0.879  2.1618 -1.4023  0.9693
 3575TIP3   OH232215   6.599   0.922   4.217 -0.2496 -0.8940  0.2326
 3575TIP3    H132216   6.609   0.875   4.134 -0.9394 -0.6455  0.0036
 3575TIP3    H232217   6.665   0.991   4.213 -0.9131 -0.2828 -0.5452
 3576TIP3   OH232218   2.313   3.831  14.406 -0.0489  0.1156 -0.2587
 3576TIP3    H132219   2.230   3.841  14.451  0.1693  0.0141  0.1723
 3576TIP3    H232220   2.303   3.753  14.352 -0.8890  1.1910 -1.6762
 3577TIP3   OH232221   1.753   0.630   2.466 -0.2858 -0.2129  0.0507
 3577TIP3    H132222   1.696   0.601   2.395  1.1714 -2.4417 -0.2744
 3577TIP3    H232223   1.718   0.587   2.544 -0.0385 -0.2578  0.1372
 3578TIP3   OH232224   3.576   0.101  10.964 -0.0240 -0.0960  0.1368
 3578TIP3    H132225   3.539   0.014  10.978  0.6311 -0.1503  1.6356
 3578TIP3    H232226   3.670   0.086  10.951 -0.0331  0.3173 -0.4200
 3579TIP3   OH232227   2.053   1.426  13.481 -0.5954 -0.3384 -0.0584
 3579TIP3    H132228   2.021   1.336  13.477  0.6322 -0.8208  0.6830
 3579TIP3    H232229   2.004   1.467  13.552 -0.8955 -0.5311 -0.1571
 3580TIP3   OH232230   0.467   0.456  13.779 -0.5262  0.1882  0.5929
 3580TIP3    H132231   0.517   0.384  13.816 -1.5493  1.2062  4.1578
 3580TIP3    H232232   0.531   0.506  13.728  1.1638 -0.7816  1.7125
 3581TIP3   OH232233   5.336   2.632  13.597  0.4760 -0.2905 -0.0316
 3581TIP3    H132234   5.252   2.676  13.579  0.7907  1.1822  1.9066
 3581TIP3    H232235   5.399   2.682  13.545  0.4813  0.0516  0.3008
 3582TIP3   OH232236   4.538   4.456   1.537  0.2521  0.2691 -0.0755
 3582TIP3    H132237   4.457   4.413   1.510  0.2555 -0.2569  0.7394
 3582TIP3    H232238   4.515   4.548   1.546 -0.3619  0.0647  0.5373
 3583TIP3   OH232239   5.874   4.011  12.518 -0.0645  0.0525  0.2670
 3583TIP3    H132240   5.785   3.976  12.528 -0.7848  1.8921  0.4965
 3583TIP3    H232241   5.861   4.103  12.497  1.7883  0.1354 -0.6025
 3584TIP3   OH232242   1.374   3.369  16.327  0.1963  0.0698 -0.2236
 3584TIP3    H132243   1.346   3.461  16.324 -0.3232 -0.1154 -0.9611
 3584TIP3    H232244   1.308   3.322  16.277 -0.7706 -1.0334  2.0176
 3585TIP3   OH232245   3.646   0.494   3.856  0.1633  0.1039  0.0730
 3585TIP3    H132246   3.650   0.436   3.780  0.1627  0.1320  0.0515
 3585TIP3    H232247   3.572   0.552   3.839  0.1604  0.1072  0.0974
 3586TIP3   OH232248   4.706   2.514   5.656  0.2203  0.2957  0.0490
 3586TIP3    H132249   4.792   2.500   5.696  0.2809 -0.7776 -0.4303
 3586TIP3    H232250   4.703   2.608   5.638  1.3956  0.3088 -0.1496
 3587TIP3   OH232251   6.556   6.325   3.819  0.0574 -0.1534 -0.0965
 3587TIP3    H132252   6.559   6.252   3.881  0.3547 -0.1399 -0.0948
 3587TIP3    H232253   6.505   6.393   3.863  1.7236  0.5126  0.8195
 3588TIP3   OH232254   3.342   2.097   3.079 -0.2061  0.1034 -0.3224
 3588TIP3    H132255   3.350   2.004   3.059  0.4996  0.3401 -1.1404
 3588TIP3    H232256   3.250   2.108   3.101 -0.6968 -0.4220 -2.0813
 3589TIP3   OH232257   5.049   6.059  11.242  0.2526 -0.0632 -0.3618
 3589TIP3    H132258   5.140   6.085  11.231 -0.0278  1.4122  0.6698
 3589TIP3    H232259   5.015   6.051  11.153  1.5584 -1.2613 -0.7565
 3590TIP3   OH232260   3.373   3.829  12.179 -0.2959  0.0988  0.0346
 3590TIP3    H132261   3.387   3.873  12.263 -3.7631 -2.3512  2.0373
 3590TIP3    H232262   3.290   3.863  12.147 -0.3418 -1.0079 -1.0484
 3591TIP3   OH232263   0.890   4.181  16.029 -0.2811  0.2314 -0.3441
 3591TIP3    H132264   0.935   4.144  15.953 -0.1625  0.0844 -0.2058
 3591TIP3    H232265   0.829   4.245  15.993 -0.7677 -0.3895 -0.6098
 3592TIP3   OH232266   2.301   3.917  11.801 -0.2462 -0.7444 -0.1281
 3592TIP3    H132267   2.352   3.966  11.865  1.4115  0.8738 -2.6012
 3592TIP3    H232268   2.338   3.829  11.803  0.2671 -0.5119  0.6332
 3593TIP3   OH232269   3.998   1.487   4.828 -0.1781 -0.1673  0.7222
 3593TIP3    H132270   3.990   1.430   4.752  0.6196 -0.7787  1.0933
 3593TIP3    H232271   3.922   1.545   4.822  0.4371  0.4758 -1.1030
 3594TIP3   OH232272   1.506   2.837  15.103 -0.2604  0.2039 -0.3950
 3594TIP3    H132273   1.534   2.925  15.080 -0.1323  0.8165  2.0077
 3594TIP3    H232274   1.421   2.848  15.144 -1.1585 -1.0111 -1.8738
 3595TIP3   OH232275   3.575   5.068  11.891 -0.6150 -0.2817  0.2446
 3595TIP3    H132276   3.547   4.998  11.949 -1.2198 -0.2095  0.0394
 3595TIP3    H232277   3.658   5.098  11.928 -0.2530 -1.2379  0.2225
 3596TIP3   OH232278   2.181   5.045  12.293  0.2914  0.1294 -0.6289
 3596TIP3    H132279   2.272   5.023  12.276  0.8293  0.0357  2.0505
 3596TIP3    H232280   2.181   5.139  12.311  0.1472 -0.1308  0.8497
 3597TIP3   OH232281   4.516   1.601   4.952  0.0003 -0.3221 -0.6425
 3597TIP3    H132282   4.580   1.532   4.965  0.5889  0.9987  4.3541
 3597TIP3    H232283   4.432   1.562   4.977 -0.0552  0.0713 -0.2188
 3598TIP3   OH232284   4.767   3.051   4.302  0.1749 -0.3844  0.0296
 3598TIP3    H132285   4.742   3.113   4.370  0.8766 -0.2476  0.1687
 3598TIP3    H232286   4.693   3.050   4.242 -0.4888 -0.5907  0.8506
 3599TIP3   OH232287   4.356   4.119   3.964  0.6433 -0.0664  0.3826
 3599TIP3    H132288   4.344   4.045   4.024 -4.2349  0.6246  0.4211
 3599TIP3    H232289   4.290   4.106   3.896  2.2713  2.2598 -1.7365
 3600TIP3   OH232290   5.145   6.412  13.846 -0.2107 -0.3480 -0.5215
 3600TIP3    H132291   5.166   6.466  13.770 -1.1750 -2.6532 -2.4937
 3600TIP3    H232292   5.128   6.325  13.810 -0.9926 -1.4280  2.3053
 3601TIP3   OH232293   0.587   1.577  14.424 -0.1592 -0.1942  0.4931
 3601TIP3    H132294   0.565   1.587  14.331 -1.1576  0.1868  0.7637
 3601TIP3    H232295   0.673   1.534  14.424 -1.5378 -3.0470 -0.5855
 3602TIP3   OH232296   0.066   6.321   0.823 -0.1815  0.1357  0.2384
 3602TIP3    H132297   0.058   6.254   0.891 -0.4759 -0.5231 -0.4317
 3602TIP3    H232298   0.038   6.402   0.865 -1.8124 -0.5421  0.4653
 3603TIP3   OH232299   5.254   5.662   4.729 -0.0745 -0.3370 -0.3921
 3603TIP3    H132300   5.173   5.613   4.713 -0.3926  0.4949 -1.3593
 3603TIP3    H232301   5.267   5.656   4.823  0.2255 -2.8038 -0.5492
 3604TIP3   OH232302   2.474   6.776   4.810 -0.3647  1.0354  0.5206
 3604TIP3    H132303   2.543   6.841   4.795 -0.0617  0.7920  0.8541
 3604TIP3    H232304   2.505   6.725   4.885 -0.3554  0.1675 -0.0723
 3605TIP3   OH232305   0.738   5.199  14.864  0.1802  0.3656 -0.5275
 3605TIP3    H132306   0.737   5.225  14.956 -0.9198 -1.3347 -0.0403
 3605TIP3    H232307   0.827   5.219  14.835  0.1080  2.3256  0.4752
 3606TIP3   OH232308   1.175   0.024  14.820 -0.0328  0.6752 -0.3765
 3606TIP3    H132309   1.170  -0.009  14.730 -0.4336 -1.5929  0.4597
 3606TIP3    H232310   1.268   0.045  14.832  0.1913  0.0579 -0.9901
 3607TIP3   OH232311   2.819   2.710   5.889 -0.1812 -0.0392  0.0928
 3607TIP3    H132312   2.903   2.686   5.850  0.1503 -0.0031  0.7777
 3607TIP3    H232313   2.821   2.806   5.893  0.2900 -0.0907  1.2922
 3608TIP3   OH232314   3.679   6.153   0.488  0.5898  0.5844  0.5695
 3608TIP3    H132315   3.616   6.217   0.454  1.4874  2.0594  1.5979
 3608TIP3    H232316   3.637   6.117   0.566  0.1093 -0.0326  0.0255
 3609TIP3   OH232317   4.683   5.926  13.511  0.2895 -0.2677  0.1759
 3609TIP3    H132318   4.742   5.851  13.510  0.8257  0.0873  2.3145
 3609TIP3    H232319   4.605   5.896  13.465  0.4311 -2.2194  1.1495
 3610TIP3   OH232320   4.578   5.802  15.280  0.1776  0.0368  0.1057
 3610TIP3    H132321   4.503   5.859  15.299  0.1505  0.0864 -0.1458
 3610TIP3    H232322   4.544   5.738  15.217  0.8783  1.2955 -1.5925
 3611TIP3   OH232323   6.400   2.604  12.115  0.0511  0.7118  0.0349
 3611TIP3    H132324   6.461   2.543  12.155 -0.0879 -0.3170 -1.2705
 3611TIP3    H232325   6.315   2.560  12.120 -0.3589  1.5377  0.5998
 3612TIP3   OH232326   0.820   2.167   3.560  0.0330  0.0251 -0.2500
 3612TIP3    H132327   0.818   2.253   3.602  0.8079  0.5179 -1.2140
 3612TIP3    H232328   0.874   2.113   3.618  1.7719  0.9223 -1.0308
 3613TIP3   OH232329   2.591   2.196  12.039 -0.5006 -0.4175  0.4003
 3613TIP3    H132330   2.538   2.276  12.033 -1.1847 -0.8976 -0.1335
 3613TIP3    H232331   2.531   2.131  12.078 -0.1764 -0.8542  0.1734
 3614TIP3   OH232332   2.163   1.206  15.258  0.0996  0.8811 -0.2323
 3614TIP3    H132333   2.102   1.276  15.281  0.0802  0.2388  1.7579
 3614TIP3    H232334   2.249   1.248  15.261 -0.1010  1.4308 -1.6134
 3615TIP3   OH232335   2.379   3.250   0.247 -0.2528  0.2065  0.1967
 3615TIP3    H132336   2.389   3.155   0.247 -0.6338  0.1670 -0.6692
 3615TIP3    H232337   2.449   3.282   0.190  0.3032  0.4976  1.0230
 3616TIP3   OH232338   2.752   3.007  16.828  0.4821  0.1533 -0.8088
 3616TIP3    H132339   2.746   3.101  16.845  0.3288  0.1826 -1.0245
 3616TIP3    H232340   2.774   2.968  16.912 -1.1047  0.2055 -0.3588
 3617TIP3   OH232341   4.890   0.570   5.022 -0.3396 -0.6575  0.0874
 3617TIP3    H132342   4.890   0.657   4.982 -0.4998  0.0449  1.5663
 3617TIP3    H232343   4.797   0.546   5.029 -0.2219 -2.1219 -2.7369
 3618TIP3   OH232344   2.687   5.352  11.568  0.4268  0.1871 -0.3482
 3618TIP3    H132345   2.703   5.377  11.659  0.1134  1.2013 -0.5596
 3618TIP3    H232346   2.692   5.257  11.568  2.2438  0.2478  0.3907
 3619TIP3   OH232347   1.056   0.190   4.039  0.1794  0.3150  0.5369
 3619TIP3    H132348   1.016   0.203   3.953 -0.9498 -1.2368  0.8117
 3619TIP3    H232349   1.137   0.240   4.035  0.9373 -1.0166 -2.0355
 3620TIP3   OH232350   3.327   2.067  17.254  0.1803 -0.2043  0.4317
 3620TIP3    H132351   3.336   2.162  17.250 -1.3619  0.0426  2.0872
 3620TIP3    H232352   3.407   2.036  17.297  1.3827  0.1799 -1.4835
 3621TIP3   OH232353   0.886   3.793   0.441  0.0367 -0.0788  0.1860
 3621TIP3    H132354   0.844   3.707   0.431  0.0516  0.1907 -2.5079
 3621TIP3    H232355   0.907   3.820   0.351 -0.9507  3.2215  0.8850
 3622TIP3   OH232356   1.993   6.534   4.191  0.0024  0.0226  0.0592
 3622TIP3    H132357   1.904   6.564   4.204  0.3021  0.2861  1.7235
 3622TIP3    H232358   1.995   6.446   4.231  0.6404  0.3028  0.6733
 3623TIP3   OH232359   6.147   0.076   1.618 -0.4052 -0.2358  0.0748
 3623TIP3    H132360   6.138   0.040   1.706 -3.1312  1.2156  0.4611
 3623TIP3    H232361   6.135   0.171   1.630  0.2204  0.0995 -1.7384
 3624TIP3   OH232362   6.346   5.275   4.256  0.0300  0.2616 -0.5460
 3624TIP3    H132363   6.434   5.245   4.232 -0.0071 -0.1539 -0.1682
 3624TIP3    H232364   6.358   5.321   4.339  0.0325  1.0108 -0.9540
 3625TIP3   OH232365   6.481   2.514   3.029 -0.6075 -0.0307  0.0645
 3625TIP3    H132366   6.408   2.451   3.031 -1.1582  0.6036  0.3732
 3625TIP3    H232367   6.542   2.479   2.965 -0.7843 -1.0231  0.4231
 3626TIP3   OH232368   3.241   6.359   5.544 -0.3881  0.0102 -0.1683
 3626TIP3    H132369   3.264   6.449   5.566 -0.1663  0.0393 -0.5185
 3626TIP3    H232370   3.230   6.316   5.629  3.4503 -0.6680  0.0649
 3627TIP3   OH232371   1.303   0.519  13.668 -0.2197 -0.0941 -0.3851
 3627TIP3    H132372   1.343   0.589  13.616 -0.0238 -0.2657 -0.4679
 3627TIP3    H232373   1.210   0.524  13.648 -0.1571 -0.1011 -0.6790
 3628TIP3   OH232374   0.712   3.909  12.698 -0.7852 -0.1315 -0.1068
 3628TIP3    H132375   0.617   3.903  12.705 -0.9076  0.3664 -1.1808
 3628TIP3    H232376   0.727   3.983  12.638  0.2815 -0.0057  0.2923
 3629TIP3   OH232377   1.719   5.107   0.562 -0.1745 -0.3267  0.0411
 3629TIP3    H132378   1.639   5.064   0.531 -0.0220 -0.7994  0.3113
 3629TIP3    H232379   1.762   5.138   0.483  0.4691 -1.9589 -0.2638
 3630TIP3   OH232380   0.833   3.887  12.409 -0.3606  0.1845 -0.1427
 3630TIP3    H132381   0.740   3.870  12.401  0.1948 -2.2530 -1.9226
 3630TIP3    H232382   0.861   3.908  12.319  1.0661 -0.5957  0.1079
 3631TIP3   OH232383   5.719   2.361   3.185 -0.6603 -0.2223  0.3758
 3631TIP3    H132384   5.642   2.333   3.135  0.5332  0.3918 -1.8631
 3631TIP3    H232385   5.687   2.370   3.275 -2.7119 -1.9450 -0.1431
 3632TIP3   OH232386   1.079   6.642   4.941  0.4307 -0.2915 -0.2239
 3632TIP3    H132387   1.072   6.632   4.846  1.2201  0.8953 -0.4097
 3632TIP3    H232388   1.052   6.557   4.976  1.4628 -1.1825 -1.5588
 3633TIP3   OH232389   4.024   3.987   3.890 -0.0655  0.0528  0.2910
 3633TIP3    H132390   3.930   3.985   3.872 -0.6249  0.7125  2.8400
 3633TIP3    H232391   4.059   4.051   3.828 -1.3196 -0.1435 -0.6368
 3634TIP3   OH232392   0.350   3.520  11.681  0.1450 -0.2514 -0.3778
 3634TIP3    H132393   0.439   3.490  11.663  0.4000  0.8657 -1.0004
 3634TIP3    H232394   0.360   3.594  11.740 -0.2374  1.2365 -2.1584
 3635TIP3   OH232395   5.031   6.170   1.943  1.0018 -0.2120  0.0245
 3635TIP3    H132396   4.990   6.166   2.029  0.6199  0.2408 -0.1312
 3635TIP3    H232397   4.968   6.218   1.889  1.7783  0.5577 -0.2006
 3636TIP3   OH232398   2.384   6.193  14.227  0.4062 -0.2586  0.1592
 3636TIP3    H132399   2.457   6.186  14.288 -0.0142  1.6057  0.9186
 3636TIP3    H232400   2.347   6.105  14.223  2.2355 -1.0532  0.3208
 3637TIP3   OH232401   0.324   0.140  14.267  0.4163  0.0551  0.4039
 3637TIP3    H132402   0.281   0.056  14.281 -0.6597  0.7757  1.5211
 3637TIP3    H232403   0.373   0.129  14.185 -1.8953 -0.8011 -0.8978
 3638TIP3   OH232404   6.131   4.686   4.231  0.0860  0.1450 -0.2371
 3638TIP3    H132405   6.215   4.725   4.254 -0.2213  0.6470  0.0467
 3638TIP3    H232406   6.082   4.756   4.188 -0.4896  0.0951  0.3224
 3639TIP3   OH232407   6.102   6.145   4.310  0.3508 -0.0854 -0.2505
 3639TIP3    H132408   6.039   6.191   4.255  0.3087 -0.4275 -0.4920
 3639TIP3    H232409   6.174   6.123   4.251  0.6348  0.1802 -0.0069
 3640TIP3   OH232410   3.312   3.999  13.995 -0.4806 -0.7474  0.4126
 3640TIP3    H132411   3.318   3.905  14.013 -0.1848 -0.3448  2.4924
 3640TIP3    H232412   3.313   4.040  14.081  0.8578  1.2420 -0.5260
 3641TIP3   OH232413   4.924   0.521   1.369 -0.2055 -0.2915  0.6569
 3641TIP3    H132414   4.969   0.459   1.311  0.7294  0.7432  0.2723
 3641TIP3    H232415   4.942   0.488   1.457 -2.4409 -2.4292  0.3606
 3642TIP3   OH232416   2.783   0.829  16.863  0.2577  0.2600 -0.6766
 3642TIP3    H132417   2.777   0.837  16.767 -1.4529  0.3254 -0.5813
 3642TIP3    H232418   2.725   0.898  16.896  0.1369 -0.3568  0.4077
 3643TIP3   OH232419   4.857   4.150   1.805 -0.0249 -0.4777  0.2906
 3643TIP3    H132420   4.839   4.233   1.761  0.3678 -0.7130 -0.3032
 3643TIP3    H232421   4.831   4.166   1.896 -0.0086  0.2778  0.1665
 3644TIP3   OH232422   4.927   1.155  10.723  0.3121  0.4326  0.4731
 3644TIP3    H132423   4.836   1.158  10.755  0.5753  1.1638  1.1530
 3644TIP3    H232424   4.977   1.207  10.786  1.3351 -0.5889  0.5162
 3645TIP3   OH232425   4.921   3.290   5.529  0.3044 -0.6061 -0.1666
 3645TIP3    H132426   4.915   3.208   5.577 -0.4400 -0.2574  0.3510
 3645TIP3    H232427   4.931   3.264   5.438 -0.9419 -1.2697 -0.1219
 3646TIP3   OH232428   5.894   2.367  13.246 -0.0702  0.2021 -0.3279
 3646TIP3    H132429   5.988   2.355  13.259  0.2866  1.2762 -1.8142
 3646TIP3    H232430   5.854   2.296  13.296  1.4982  0.0158  0.7189
 3647TIP3   OH232431   0.453   0.294   0.652 -0.1152 -0.6092 -0.0967
 3647TIP3    H132432   0.444   0.202   0.626 -0.0980 -0.6741  0.1340
 3647TIP3    H232433   0.365   0.331   0.639 -0.6662 -1.1724  1.8709
 3648TIP3   OH232434   3.350   1.837  11.624  0.0005  0.2854 -0.1705
 3648TIP3    H132435   3.336   1.929  11.645 -0.4671  0.2592 -0.3467
 3648TIP3    H232436   3.281   1.817  11.561  1.2393  0.3012 -1.5513
 3649TIP3   OH232437   1.708   0.288  12.325  0.4347 -0.2197 -0.2418
 3649TIP3    H132438   1.725   0.194  12.333 -1.4311 -0.4416  1.8300
 3649TIP3    H232439   1.794   0.329  12.333  1.6466 -1.8517 -4.0846
 3650TIP3   OH232440   4.380   1.274  15.819  0.1420 -0.0311  1.2133
 3650TIP3    H132441   4.475   1.261  15.821  0.2266  0.3408  0.0843
 3650TIP3    H232442   4.352   1.233  15.738 -0.1676  2.8579 -0.2149
 3651TIP3   OH232443   2.604   6.024  16.689 -0.2923 -0.0639 -0.0072
 3651TIP3    H132444   2.581   6.116  16.684 -0.8872 -0.0729  2.0662
 3651TIP3    H232445   2.564   5.993  16.771  0.6661 -1.9301 -0.2044
 3652TIP3   OH232446   4.671   3.935   3.238 -0.0155  0.4250  0.3829
 3652TIP3    H132447   4.697   3.886   3.316  0.4369 -0.8163 -0.5324
 3652TIP3    H232448   4.627   3.871   3.183 -1.2581  1.5371  0.0508
 3653TIP3   OH232449   6.186   5.871  11.027 -0.5430  0.1974 -0.3638
 3653TIP3    H132450   6.176   5.961  10.996 -1.8442  0.4287  0.6863
 3653TIP3    H232451   6.097   5.836  11.028  0.0492 -1.4375 -1.7053
 3654TIP3   OH232452   5.113   4.149   2.759  0.1088 -0.7419  0.2523
 3654TIP3    H132453   5.147   4.117   2.843  0.7307 -1.0902 -0.1357
 3654TIP3    H232454   5.049   4.216   2.784 -0.2876 -1.4016  1.0240
 3655TIP3   OH232455   3.997   3.245  14.579  0.2552 -0.1703 -0.2639
 3655TIP3    H132456   4.029   3.334  14.592  0.5300 -0.5745  2.0826
 3655TIP3    H232457   4.054   3.209  14.511  0.8336  1.0930 -0.4639
 3656TIP3   OH232458   0.968   2.188  15.067 -0.0543  0.1833 -0.1991
 3656TIP3    H132459   1.033   2.190  15.136  0.1990  1.9469 -0.4728
 3656TIP3    H232460   1.014   2.220  14.989 -1.3898  2.0723 -0.2522
 3657TIP3   OH232461   1.116   4.690   2.577  0.8144  0.3144  0.2975
 3657TIP3    H132462   1.099   4.598   2.594  0.8261  0.2466 -0.0458
 3657TIP3    H232463   1.063   4.737   2.642  0.5011  0.0750  0.2184
 3658TIP3   OH232464   4.707   2.606  10.710  0.6287 -0.2080 -0.1853
 3658TIP3    H132465   4.708   2.510  10.709  0.8384 -0.2222  0.5573
 3658TIP3    H232466   4.774   2.629  10.775  2.3163  0.4973 -2.1083
 3659TIP3   OH232467   6.711   5.563  12.515  0.3918 -0.0109  0.0200
 3659TIP3    H132468   6.773   5.517  12.573  0.5187  0.2514  0.0953
 3659TIP3    H232469   6.657   5.493  12.478  2.5471 -0.5614 -2.2133
 3660TIP3   OH232470   3.447   3.257  12.923  0.1413 -0.2521  0.5901
 3660TIP3    H132471   3.521   3.213  12.882 -0.2773 -0.0214 -0.4241
 3660TIP3    H232472   3.428   3.331  12.865  0.2861  0.7665  1.8120
 3661TIP3   OH232473   2.801   3.406   5.751 -0.0189  0.3343 -0.0210
 3661TIP3    H132474   2.731   3.358   5.796 -1.4551  0.0437 -2.4854
 3661TIP3    H232475   2.882   3.364   5.782 -0.8885  0.6807  2.8721
 3662TIP3   OH232476   5.951   1.252   4.829  0.5446  0.7704  0.3270
 3662TIP3    H132477   6.007   1.276   4.903  1.5288 -3.4658  1.1452
 3662TIP3    H232478   6.007   1.198   4.773 -1.9275 -1.4576 -0.1469
 3663TIP3   OH232479   3.754   4.321  14.746  0.4061 -0.6413  0.3528
 3663TIP3    H132480   3.756   4.342  14.839  0.7515  2.4947 -0.2896
 3663TIP3    H232481   3.827   4.371  14.708 -2.7492  2.2377 -2.3024
 3664TIP3   OH232482   5.443   5.259  12.060 -0.6913  0.1709  0.3791
 3664TIP3    H132483   5.368   5.314  12.082  0.4793  1.6458  0.8311
 3664TIP3    H232484   5.431   5.236  11.968 -2.0748 -0.2520  0.6563
 3665TIP3   OH232485   6.451   3.877  16.429  0.0676 -0.6122  0.0696
 3665TIP3    H132486   6.387   3.837  16.488 -0.1458 -0.2323  0.0913
 3665TIP3    H232487   6.420   3.854  16.341 -0.1192 -0.3956  0.0767
 3666TIP3   OH232488   0.358   5.276   4.769 -0.0951  0.8696  0.0608
 3666TIP3    H132489   0.300   5.211   4.727 -1.1268  0.8991  1.3966
 3666TIP3    H232490   0.410   5.311   4.697 -0.3412 -0.6061 -0.8727
 3667TIP3   OH232491   4.647   6.344  14.680  0.3039 -0.2881  0.0755
 3667TIP3    H132492   4.705   6.297  14.740  0.4955 -1.0295 -0.6796
 3667TIP3    H232493   4.597   6.403  14.736  0.0609 -1.4024  1.0544
 3668TIP3   OH232494   3.468   1.039  10.997 -0.7528 -0.2244 -0.0034
 3668TIP3    H132495   3.398   1.077  10.945  1.0243  2.8600 -0.2554
 3668TIP3    H232496   3.548   1.075  10.959  0.8392 -1.7483  1.8101
 3669TIP3   OH232497   2.417   0.662  15.755 -0.3073 -0.1276 -0.2952
 3669TIP3    H132498   2.356   0.711  15.700 -2.1464 -0.5008  1.3764
 3669TIP3    H232499   2.389   0.680  15.845  0.7689 -1.9495  0.4343
 3670TIP3   OH232500   5.837   3.554   1.752  0.0759 -0.2775 -0.1422
 3670TIP3    H132501   5.909   3.576   1.811  0.2070 -1.4022  0.1340
 3670TIP3    H232502   5.771   3.622   1.768  0.1173 -0.5410  1.2964
 3671TIP3   OH232503   1.730   1.127   2.465  0.0368  0.1488  0.5537
 3671TIP3    H132504   1.748   1.062   2.533 -0.3680  0.8545  1.3432
 3671TIP3    H232505   1.809   1.127   2.411 -0.0357 -1.1381  0.4280
 3672TIP3   OH232506   6.246   0.353   3.627 -0.1681  0.1895  0.9473
 3672TIP3    H132507   6.198   0.272   3.647 -1.3152 -0.0819 -2.6027
 3672TIP3    H232508   6.338   0.325   3.623 -0.3280 -0.5009  1.7349
 3673TIP3   OH232509   6.468   2.008   5.272  0.4092  0.1847 -0.2450
 3673TIP3    H132510   6.546   1.952   5.266  0.0955 -0.4319  1.2269
 3673TIP3    H232511   6.437   1.996   5.361 -1.5927  0.1603 -0.9260
 3674TIP3   OH232512   1.571   5.325   4.139 -0.0791  0.0234 -0.2850
 3674TIP3    H132513   1.603   5.293   4.055 -1.4419 -1.5790 -0.2247
 3674TIP3    H232514   1.476   5.334   4.126 -0.6949 -2.7330  1.8081
 3675TIP3   OH232515   2.454   5.593   5.206  0.0633 -0.5108  0.0002
 3675TIP3    H132516   2.410   5.510   5.188  0.1173 -0.4726 -0.3164
 3675TIP3    H232517   2.515   5.573   5.277  3.2647 -1.8349 -2.9768
 3676TIP3   OH232518   3.602   1.634  14.604  0.1010  0.1889 -0.0476
 3676TIP3    H132519   3.518   1.618  14.648  1.1826  0.2949  2.0943
 3676TIP3    H232520   3.602   1.727  14.586 -0.9202 -0.0735 -1.5176
 3677TIP3   OH232521   6.546   0.746   2.604 -0.1335  0.8118  0.6761
 3677TIP3    H132522   6.545   0.818   2.541 -0.4976  1.6041  1.5674
 3677TIP3    H232523   6.639   0.730   2.621 -0.0478  0.9963  0.3873
 3678TIP3   OH232524   0.896   4.866   1.826  0.2112  0.3586 -0.1150
 3678TIP3    H132525   0.832   4.933   1.802 -0.3828 -0.3339 -0.4888
 3678TIP3    H232526   0.948   4.906   1.896 -0.4678  1.0178  0.0125
 3679TIP3   OH232527   2.276   2.579  15.083 -0.0954  0.5870  0.1300
 3679TIP3    H132528   2.262   2.492  15.119 -1.9142  0.5489 -0.5884
 3679TIP3    H232529   2.306   2.564  14.994  0.6647  0.6865  0.3708
 3680TIP3   OH232530   2.212   6.246   6.930 -0.1761  0.3841 -0.4236
 3680TIP3    H132531   2.164   6.199   6.999  3.0814 -1.6703  0.5321
 3680TIP3    H232532   2.193   6.197   6.850 -2.2299  1.5193 -0.6842
 3681TIP3   OH232533   0.315   6.598   4.840  0.4375 -0.4168  0.1094
 3681TIP3    H132534   0.409   6.583   4.837  0.1401 -2.7331  0.8300
 3681TIP3    H232535   0.295   6.610   4.933 -0.1332 -1.2831  0.1104
 3682TIP3   OH232536   6.698   4.672   5.268  0.3123  0.0104  0.4168
 3682TIP3    H132537   6.618   4.719   5.291  1.0629  0.2223  2.7203
 3682TIP3    H232538   6.767   4.716   5.318  1.5446 -1.4509  0.0347
 3683TIP3   OH232539   3.768   1.250  10.324 -0.1669  0.3049 -0.1718
 3683TIP3    H132540   3.717   1.222  10.400  0.5713  0.8546  0.5355
 3683TIP3    H232541   3.804   1.335  10.349 -2.2339  1.8551 -2.2322
 3684TIP3   OH232542   0.240   2.425   4.330 -0.4405  0.0649  0.3726
 3684TIP3    H132543   0.228   2.384   4.245 -1.9517  0.8115  0.2174
 3684TIP3    H232544   0.327   2.397   4.358  0.1151 -0.1074 -1.4631
 3685TIP3   OH232545   5.852   4.255  13.797  0.6443 -0.0025  0.0340
 3685TIP3    H132546   5.946   4.245  13.808  0.7308  1.2472  0.5217
 3685TIP3    H232547   5.839   4.259  13.702  1.3805  2.2972 -0.0033
 3686TIP3   OH232548   0.913   3.859  12.914  0.2663 -0.2610  0.2295
 3686TIP3    H132549   0.832   3.882  12.869  0.9702 -1.0897 -1.5122
 3686TIP3    H232550   0.947   3.784  12.865  1.0275 -1.2453  2.2008
 3687TIP3   OH232551   0.066   5.981   3.155  0.3088  0.8218 -0.3583
 3687TIP3    H132552   0.024   5.898   3.178  2.1504 -0.4767 -1.6066
 3687TIP3    H232553  -0.004   6.046   3.165 -1.5760 -1.0660 -0.8701
 3688TIP3   OH232554   2.909   2.232  11.862  0.6514 -1.2132  0.3538
 3688TIP3    H132555   2.891   2.267  11.949 -0.0994 -0.0120 -0.2762
 3688TIP3    H232556   2.929   2.139  11.878  2.4419 -0.5865  2.0026
 3689TIP3   OH232557   5.041   4.847   1.683 -0.3298  0.8059 -0.7482
 3689TIP3    H132558   5.132   4.824   1.661  0.1858  1.2333  0.8795
 3689TIP3    H232559   4.990   4.773   1.650  0.8004 -0.3068 -0.0840
 3690TIP3   OH232560   5.845   5.983   4.594  0.3495  0.0078  0.1503
 3690TIP3    H132561   5.777   5.951   4.653 -0.8311  1.0977 -0.5889
 3690TIP3    H232562   5.814   5.959   4.507  1.5323 -0.6049 -0.1037
 3691TIP3   OH232563   2.916   5.081  17.028 -0.1594 -0.5058 -0.2596
 3691TIP3    H132564   2.989   5.027  17.058  0.8392 -0.0724 -1.8231
 3691TIP3    H232565   2.838   5.028  17.044  0.6448 -1.6534 -0.0926
 3692TIP3   OH232566   1.783   6.208   3.326  0.4488  0.3765  0.0443
 3692TIP3    H132567   1.712   6.146   3.313  1.1194 -0.4978  0.4214
 3692TIP3    H232568   1.831   6.209   3.243  1.4232 -0.9173  0.5589
 3693TIP3   OH232569   6.598   0.176  12.027 -0.3634 -0.5843  0.1892
 3693TIP3    H132570   6.690   0.169  12.000 -0.7162 -0.0403 -1.1657
 3693TIP3    H232571   6.580   0.270  12.025 -0.7980 -0.6452  1.0150
 3694TIP3   OH232572   2.758   3.441   3.663  0.3348  0.4077  0.3512
 3694TIP3    H132573   2.741   3.522   3.614 -1.8598 -0.2985 -0.1016
 3694TIP3    H232574   2.766   3.470   3.754 -0.4426  1.1670  0.1941
 3695TIP3   OH232575   3.010   3.991   3.270  0.2801  0.2060  0.0823
 3695TIP3    H132576   3.042   4.081   3.272 -0.3530  0.4803 -1.3306
 3695TIP3    H232577   3.044   3.951   3.350 -0.5788  2.0906  1.4096
 3696TIP3   OH232578   3.683   4.363  13.290  0.3022 -0.2154  0.0815
 3696TIP3    H132579   3.726   4.443  13.321 -0.6791  0.4257 -0.2023
 3696TIP3    H232580   3.690   4.368  13.194  0.2361 -0.4747  0.0633
 3697TIP3   OH232581   5.221   3.039   5.666 -0.1303  0.1315 -0.3489
 3697TIP3    H132582   5.133   3.075   5.669  0.0533  0.4328  3.1824
 3697TIP3    H232583   5.219   2.976   5.593 -3.6472 -0.9144  0.5563
 3698TIP3   OH232584   1.692   4.272   2.957 -0.0229 -0.1461  0.3687
 3698TIP3    H132585   1.680   4.367   2.944  0.2162 -0.2566 -0.6939
 3698TIP3    H232586   1.652   4.255   3.043 -0.2312  0.8854  0.4921
 3699TIP3   OH232587   6.699   3.275   5.694  0.1404 -0.1245  0.7231
 3699TIP3    H132588   6.627   3.252   5.752 -1.7919  1.3425 -1.0235
 3699TIP3    H232589   6.717   3.196   5.644 -2.1197  0.2284 -0.7198
 3700TIP3   OH232590   1.366   2.826  15.916 -0.5115  0.5115 -0.4449
 3700TIP3    H132591   1.379   2.904  15.970 -2.1285  0.7216 -0.3385
 3700TIP3    H232592   1.452   2.784  15.913 -0.3828  0.5524  2.1863
 3701TIP3   OH232593   6.721   2.631   2.623 -0.7696 -0.7767  0.0086
 3701TIP3    H132594   6.672   2.572   2.566 -0.1527 -0.0355 -1.3155
 3701TIP3    H232595   6.798   2.656   2.572  0.0868 -0.5157  1.3806
 3702TIP3   OH232596   3.302   2.777  15.994 -0.0275  0.1936 -0.5683
 3702TIP3    H132597   3.289   2.821  15.910  1.3627 -0.0463 -0.9171
 3702TIP3    H232598   3.394   2.751  15.994 -0.2774 -0.7478  0.5817
 3703TIP3   OH232599   0.780   3.299   3.727  0.9295 -0.3441  0.2948
 3703TIP3    H132600   0.710   3.235   3.739  0.6253 -0.0715 -0.0030
 3703TIP3    H232601   0.745   3.381   3.763  1.5571 -0.4954  1.2497
 3704TIP3   OH232602   1.084   3.688  15.797 -0.1250 -0.0584 -0.1237
 3704TIP3    H132603   1.054   3.678  15.888  0.5201  1.0649  0.2173
 3704TIP3    H232604   1.092   3.598  15.765 -0.7066 -0.4552  0.8141
 3705TIP3   OH232605   3.781   2.946  16.076 -0.3030  0.0158  0.2464
 3705TIP3    H132606   3.714   2.912  16.018  1.1806 -2.4413 -0.1377
 3705TIP3    H232607   3.836   3.002  16.021 -0.2102 -0.5105 -0.1958
 3706TIP3   OH232608   0.922   3.138   3.584 -0.4668 -0.2849 -0.2481
 3706TIP3    H132609   0.877   3.193   3.648  2.5985 -0.0317  1.7742
 3706TIP3    H232610   0.876   3.054   3.589 -0.2523 -0.2851  2.3573
 3707TIP3   OH232611   6.002   5.441  14.818  0.1892 -0.1821 -0.1009
 3707TIP3    H132612   6.080   5.477  14.777  2.0321 -1.7426  1.9571
 3707TIP3    H232613   6.006   5.347  14.802 -0.7294 -0.4132  0.9195
 3708TIP3   OH232614   2.968   3.113   4.458 -0.2467 -0.0514 -0.4156
 3708TIP3    H132615   2.952   3.023   4.430  1.1865 -0.3905 -0.1504
 3708TIP3    H232616   2.920   3.166   4.395 -0.3037 -0.9591 -1.1535
 3709TIP3   OH232617   1.544   5.140  12.010  0.1357  0.0257  0.4708
 3709TIP3    H132618   1.512   5.168  11.924 -0.6618 -1.8044  0.1497
 3709TIP3    H232619   1.639   5.134  11.998 -0.2002 -3.5828 -1.4043
 3710TIP3   OH232620   0.079   2.695  17.117  0.0436 -0.2171  0.0193
 3710TIP3    H132621   0.102   2.700  17.025 -0.4207 -0.0768 -0.0880
 3710TIP3    H232622   0.086   2.602  17.139 -0.3213 -0.3150 -0.2792
 3711TIP3   OH232623   2.688   5.625   2.252  0.8159  0.4048 -0.4682
 3711TIP3    H132624   2.727   5.699   2.298  2.5396 -0.4545 -0.5093
 3711TIP3    H232625   2.670   5.561   2.320 -0.6212  0.8063 -0.4419
 3712TIP3   OH232626   5.432   5.964   3.644  0.2447 -0.0882  0.1801
 3712TIP3    H132627   5.340   5.981   3.623  0.8751  0.6860 -2.0962
 3712TIP3    H232628   5.450   5.879   3.603  0.7671  0.1680 -0.1262
 3713TIP3   OH232629   5.969   0.323   1.534 -0.0491 -0.1835 -0.6129
 3713TIP3    H132630   6.011   0.397   1.579  1.0960 -0.0641 -1.8480
 3713TIP3    H232631   5.972   0.347   1.442 -3.8873  0.3149 -0.6594
 3714TIP3   OH232632   1.980   4.960   2.325  0.6737  0.8380  0.0314
 3714TIP3    H132633   1.975   5.039   2.378  1.9155  0.6205  0.4872
 3714TIP3    H232634   1.896   4.917   2.338  0.4438  1.4869  0.7209
 3715TIP3   OH232635   5.223   3.695   4.544  0.4362  0.1200 -0.7766
 3715TIP3    H132636   5.210   3.623   4.482 -0.2303  0.4229 -0.9977
 3715TIP3    H232637   5.317   3.713   4.541  0.5569 -0.5373 -0.9508
 3716TIP3   OH232638   0.369   5.867   2.103 -0.1004  0.2802  0.2502
 3716TIP3    H132639   0.368   5.948   2.154 -1.6442  1.1894 -1.1812
 3716TIP3    H232640   0.302   5.812   2.144  0.6104 -0.0945  0.9212
 3717TIP3   OH232641   4.346   0.126   1.332 -0.3301  0.0602  0.1051
 3717TIP3    H132642   4.302   0.052   1.375  1.7355 -1.3603 -0.1556
 3717TIP3    H232643   4.414   0.152   1.394 -0.1487  0.8513 -0.4225
 3718TIP3   OH232644   4.006   1.592  12.356  0.1684 -0.2147 -0.3665
 3718TIP3    H132645   3.973   1.680  12.375  0.6286 -0.3306  0.9834
 3718TIP3    H232646   3.927   1.538  12.346 -0.0815 -0.0756  0.8459
 3719TIP3   OH232647   0.501   4.572  14.123  0.0540 -0.0113  0.1663
 3719TIP3    H132648   0.495   4.496  14.180 -2.7743  0.8723  1.1252
 3719TIP3    H232649   0.476   4.646  14.178  0.0953  1.2493 -1.4552
 3720TIP3   OH232650   6.740   3.599  17.016  0.3461 -0.2790 -0.3294
 3720TIP3    H132651   6.651   3.613  17.051  0.1557 -2.9605  0.4223
 3720TIP3    H232652   6.734   3.627  16.925 -0.6327  1.7254  0.3043
 3721TIP3   OH232653   6.743   5.504   5.417 -0.2513  0.0222 -0.0589
 3721TIP3    H132654   6.764   5.464   5.332 -0.8766 -0.9325  0.2148
 3721TIP3    H232655   6.688   5.438   5.461  1.7143 -0.3476  1.9091
 3722TIP3   OH232656   1.966   2.952  13.636  0.0839 -0.3841 -0.1777
 3722TIP3    H132657   1.881   2.993  13.653 -0.2511 -1.3318  0.4237
 3722TIP3    H232658   1.945   2.864  13.606  0.8391 -0.4553 -0.4990
 3723TIP3   OH232659   6.706   5.868   2.953  0.0276 -0.2352 -0.5311
 3723TIP3    H132660   6.691   5.849   3.046  1.0956 -0.5198 -0.4076
 3723TIP3    H232661   6.781   5.928   2.953  0.4612 -0.7694 -1.2365
 3724TIP3   OH232662   4.772   5.471  16.716  0.3740 -0.4939  0.2628
 3724TIP3    H132663   4.713   5.406  16.678  1.1029 -1.3164  0.4998
 3724TIP3    H232664   4.859   5.432  16.705  0.9515  1.0788 -0.8593
 3725TIP3   OH232665   5.626   6.567   3.315 -0.0233 -0.3570  0.1780
 3725TIP3    H132666   5.590   6.620   3.244  0.0100 -1.1315 -0.4231
 3725TIP3    H232667   5.715   6.600   3.326 -0.2153  0.1437  0.2407
 3726TIP3   OH232668   1.812   1.640  16.578 -0.1827  0.1167 -0.0607
 3726TIP3    H132669   1.784   1.551  16.558 -0.6007  0.6027 -1.7471
 3726TIP3    H232670   1.908   1.637  16.573 -0.2081 -0.1883 -0.3367
 3727TIP3   OH232671   2.370   6.083  13.515  0.3976 -0.6099 -0.0556
 3727TIP3    H132672   2.309   6.089  13.589 -0.5054 -0.6199 -0.7902
 3727TIP3    H232673   2.407   6.171  13.508  1.1806 -0.8349  0.9703
 3728TIP3   OH232674   2.476   5.767  13.712 -0.2703  0.8610 -0.1397
 3728TIP3    H132675   2.397   5.718  13.688  1.3650 -2.1012  0.1675
 3728TIP3    H232676   2.447   5.829  13.778 -2.1327 -1.1400  1.0114
 3729TIP3   OH232677   1.450   1.058  16.278 -0.4498  0.3511  0.1276
 3729TIP3    H132678   1.525   1.109  16.249 -0.0138  0.9612  2.2092
 3729TIP3    H232679   1.374   1.104  16.244  0.0208  1.3090  0.3704
 3730TIP3   OH232680   4.691   0.403   2.523 -0.0758 -0.0003 -0.0238
 3730TIP3    H132681   4.671   0.484   2.476  2.8146  1.7236  1.5736
 3730TIP3    H232682   4.786   0.406   2.536 -0.2944 -2.3185  2.4525
 3731TIP3   OH232683   6.307   2.289   4.432  0.1055 -0.6396 -0.5701
 3731TIP3    H132684   6.366   2.364   4.428  1.2607 -1.4439  1.0446
 3731TIP3    H232685   6.228   2.319   4.387  0.5290  1.5553  0.0722
 3732TIP3   OH232686   1.286   3.141  14.114  1.0396 -0.1501  0.1162
 3732TIP3    H132687   1.290   3.214  14.052 -0.9092  0.2270  0.3795
 3732TIP3    H232688   1.301   3.063  14.060 -2.2299  0.0353 -1.2142
 3733TIP3   OH232689   2.629   0.647   6.154 -0.4334 -0.0093 -0.1008
 3733TIP3    H132690   2.616   0.723   6.210  0.3555  0.6730 -0.8428
 3733TIP3    H232691   2.657   0.578   6.214  0.2762  0.6814  0.3773
 3734TIP3   OH232692   3.990   3.066  15.922 -0.4775  0.1157 -0.1899
 3734TIP3    H132693   4.049   3.075  15.997  1.1756 -1.6512 -1.2215
 3734TIP3    H232694   3.986   3.153  15.884  0.2444  0.5870  0.7909
 3735TIP3   OH232695   2.909   0.024   0.681  0.8317  0.1224  0.2347
 3735TIP3    H132696   2.976   0.037   0.748  0.4522  0.7208  0.5058
 3735TIP3    H232697   2.955  -0.019   0.609  1.0666 -1.2416  1.1831
 3736TIP3   OH232698   4.541   0.608  16.158 -0.2046  0.6258  0.0260
 3736TIP3    H132699   4.620   0.591  16.107  0.2840  0.8812  0.6788
 3736TIP3    H232700   4.572   0.614  16.249 -1.2349 -1.0742  0.5179
 3737TIP3   OH232701   0.543   6.210  15.738 -0.3024  0.4609  0.0366
 3737TIP3    H132702   0.519   6.239  15.650 -1.3090  0.6811  0.3785
 3737TIP3    H232703   0.505   6.276  15.796 -3.0124 -1.7410  0.8595
 3738TIP3   OH232704   4.985   1.091   6.078 -0.0223 -0.3685  0.6810
 3738TIP3    H132705   5.005   1.049   6.162 -1.6647  0.0146  1.2784
 3738TIP3    H232706   4.927   1.164   6.101 -0.5760 -0.3257 -0.8026
 3739TIP3   OH232707   5.662   3.073  11.716  0.2366 -0.4414 -0.1262
 3739TIP3    H132708   5.654   3.144  11.780  1.6916 -0.7999  0.4836
 3739TIP3    H232709   5.646   3.114  11.632 -2.1420 -0.0381  0.4869
 3740TIP3   OH232710   1.633   4.112  16.291  0.1777  0.4329  0.5261
 3740TIP3    H132711   1.718   4.145  16.261 -0.0687  1.3525  0.8233
 3740TIP3    H232712   1.646   4.017  16.298  1.0090  0.5007  0.0198
 3741TIP3   OH232713   2.845   0.137  13.597 -0.5450  0.0240  0.4216
 3741TIP3    H132714   2.843   0.082  13.519 -0.5492 -0.5448  0.8238
 3741TIP3    H232715   2.778   0.099  13.654 -2.4698  2.0609 -0.3944
 3742TIP3   OH232716   0.471   5.035  14.399 -0.2685  0.0144  0.1434
 3742TIP3    H132717   0.527   5.040  14.476 -0.3380  2.0291  0.0981
 3742TIP3    H232718   0.406   5.104  14.413  0.9572  1.7969 -2.6759
 3743TIP3   OH232719   3.665   6.497  16.320 -0.3889 -0.2771  0.1710
 3743TIP3    H132720   3.710   6.552  16.256 -0.4102  0.3126  0.6589
 3743TIP3    H232721   3.581   6.476  16.280 -1.6807  2.6220  1.2590
 3744TIP3   OH232722   0.561   3.230  11.643  1.1836  0.2141 -0.4329
 3744TIP3    H132723   0.650   3.212  11.612  0.7572  0.0649 -1.5946
 3744TIP3    H232724   0.533   3.306  11.592  1.0410  0.9553  0.7223
 3745TIP3   OH232725   3.511   5.481  13.481  0.3018  0.6469 -0.2851
 3745TIP3    H132726   3.423   5.447  13.499 -0.2232  2.0115 -0.2001
 3745TIP3    H232727   3.568   5.405  13.488 -0.6421  0.0783  1.3829
 3746TIP3   OH232728   1.888   1.341   5.057  0.6387  0.6417 -0.2253
 3746TIP3    H132729   1.938   1.351   5.138  0.8502  0.6275 -0.3506
 3746TIP3    H232730   1.820   1.408   5.062  0.3568  0.3185  0.1796
 3747TIP3   OH232731   5.045   5.872   1.634 -0.4778 -0.8128 -0.3194
 3747TIP3    H132732   5.129   5.880   1.589 -0.0984  0.6389  0.5766
 3747TIP3    H232733   5.003   5.957   1.621  0.5943  0.5072  3.8113
 3748TIP3   OH232734   4.623   2.975  14.863  0.1898  0.4892 -0.1328
 3748TIP3    H132735   4.652   3.058  14.825 -0.6343 -0.1539 -2.2119
 3748TIP3    H232736   4.668   2.971  14.947  1.6718  2.1848 -0.8026
 3749TIP3   OH232737   0.013   3.994  14.509 -0.1616  0.1341  0.3666
 3749TIP3    H132738   0.088   4.020  14.456  0.3725  1.0031  1.5293
 3749TIP3    H232739   0.049   3.980  14.596 -1.3976  0.9298  1.0266
 3750TIP3   OH232740   1.205   1.551   0.820 -0.2803  0.0273 -0.1387
 3750TIP3    H132741   1.175   1.585   0.904 -2.5805 -1.2055 -0.4103
 3750TIP3    H232742   1.170   1.612   0.756 -1.0887 -0.6342 -0.3554
 3751TIP3   OH232743   4.778   5.294   1.785  0.0159 -0.1397  0.2901
 3751TIP3    H132744   4.757   5.220   1.728 -0.0465 -0.4817  0.7547
 3751TIP3    H232745   4.712   5.291   1.854 -0.7550  1.0964 -0.3677
 3752TIP3   OH232746   1.178   1.453  10.964 -0.1798 -0.2097 -0.8405
 3752TIP3    H132747   1.242   1.499  10.910  1.6738  0.8927  2.1856
 3752TIP3    H232748   1.098   1.504  10.954  1.0997  2.0686  0.2520
 3753TIP3   OH232749   1.202   2.596  14.273  1.1057  0.0578  0.2011
 3753TIP3    H132750   1.119   2.633  14.304  1.0217 -0.3803  0.4982
 3753TIP3    H232751   1.222   2.526  14.335  0.1655 -1.8491 -1.5680
 3754TIP3   OH232752   2.462   3.735   5.121  0.4514  0.0101 -0.2492
 3754TIP3    H132753   2.410   3.806   5.083 -2.2044 -1.2912  0.8432
 3754TIP3    H232754   2.415   3.655   5.096 -0.1163 -1.0135  3.7029
 3755TIP3   OH232755   5.652   0.445  14.098  0.1454 -0.1354  0.7371
 3755TIP3    H132756   5.707   0.369  14.080 -0.8386 -0.5907 -0.3591
 3755TIP3    H232757   5.583   0.441  14.032 -0.3533  1.2741  1.1690
 3756TIP3   OH232758   1.013   2.346  13.808 -0.5294 -0.2955 -0.1023
 3756TIP3    H132759   0.940   2.295  13.842 -0.1644 -1.0844 -0.4668
 3756TIP3    H232760   1.053   2.386  13.885 -1.5577  0.4312  0.0559
 3757TIP3   OH232761   5.359   3.455  13.121  0.1856 -0.2363 -0.1078
 3757TIP3    H132762   5.419   3.509  13.172  0.1044  0.1891 -0.4598
 3757TIP3    H232763   5.365   3.490  13.032 -3.3041  2.1563  0.5194
 3758TIP3   OH232764   4.244   0.347  12.783  0.2106 -0.1662  0.5843
 3758TIP3    H132765   4.226   0.253  12.796 -3.3926  0.7261  2.8046
 3758TIP3    H232766   4.292   0.372  12.862 -0.1650  0.1990  0.6925
 3759TIP3   OH232767   5.154   5.417  13.414 -1.0866 -0.1152  0.0457
 3759TIP3    H132768   5.196   5.437  13.497 -0.2853  0.1795 -0.4238
 3759TIP3    H232769   5.068   5.458  13.420 -0.1281  1.9961 -0.2095
 3760TIP3   OH232770   0.413   5.428   1.562 -0.7513  0.0569 -0.9909
 3760TIP3    H132771   0.350   5.455   1.629  1.1840  0.0458  0.9235
 3760TIP3    H232772   0.394   5.483   1.487 -1.8649  1.3266  0.1887
 3761TIP3   OH232773   4.716   2.428  10.974 -0.2329  0.1469 -0.4823
 3761TIP3    H132774   4.656   2.383  10.914 -1.0951 -0.0662  0.5324
 3761TIP3    H232775   4.738   2.362  11.041 -2.4984  1.5602  1.7203
 3762TIP3   OH232776   6.558   6.744  14.103  0.0692 -0.5001 -0.1363
 3762TIP3    H132777   6.643   6.787  14.102  0.6650 -1.6204  0.3465
 3762TIP3    H232778   6.547   6.709  14.015 -0.7429  1.2330 -0.7387
 3763TIP3   OH232779   4.403   0.474   1.407  0.0799  0.2113 -0.3590
 3763TIP3    H132780   4.464   0.527   1.355 -0.7336 -0.4301 -1.9925
 3763TIP3    H232781   4.450   0.392   1.423  0.4944  0.5732  0.2869
 3764TIP3   OH232782   5.070   2.263   0.584  0.0368 -0.2165  0.1956
 3764TIP3    H132783   5.031   2.344   0.618 -1.2148 -0.8418  0.2755
 3764TIP3    H232784   5.140   2.242   0.645  0.0254  0.5151  0.4694
 3765TIP3   OH232785   0.331   5.227   5.476  0.4783  0.5586 -0.0090
 3765TIP3    H132786   0.290   5.238   5.390  0.3057  1.4497  0.1889
 3765TIP3    H232787   0.425   5.227   5.459  0.4131 -1.3950 -0.4543
 3766TIP3   OH232788   1.840   4.352   1.895 -0.1607  0.4052  0.0568
 3766TIP3    H132789   1.788   4.306   1.960  0.2357 -0.7011 -0.4023
 3766TIP3    H232790   1.777   4.405   1.846 -0.7070 -0.1532  0.1588
 3767TIP3   OH232791   6.394   0.809   0.671 -0.1522 -0.8220 -0.0918
 3767TIP3    H132792   6.482   0.787   0.701  0.3955  2.4734  0.9175
 3767TIP3    H232793   6.336   0.778   0.740  0.2359 -2.3350 -0.4186
 3768TIP3   OH232794   0.717   0.771  16.542  0.1451  0.2124 -0.6731
 3768TIP3    H132795   0.673   0.804  16.464 -0.1772  2.4180  0.4093
 3768TIP3    H232796   0.737   0.849  16.594  0.5243 -1.1792  1.3620
 3769TIP3   OH232797   4.500   2.574  13.598  0.6995  0.1010  0.4320
 3769TIP3    H132798   4.536   2.578  13.686  1.5019 -0.0543  0.1104
 3769TIP3    H232799   4.508   2.482  13.572 -0.3819 -0.0366  0.5414
 3770TIP3   OH232800   4.092   0.104   5.718 -0.3282  0.0980  0.0817
 3770TIP3    H132801   4.050   0.025   5.687 -0.0093 -0.2862  0.6130
 3770TIP3    H232802   4.075   0.169   5.650 -0.3480 -0.4987 -0.4849
 3771TIP3   OH232803   0.262   5.472   3.534  0.2191  0.1986  0.2944
 3771TIP3    H132804   0.242   5.383   3.562 -3.3624  0.5688 -0.9209
 3771TIP3    H232805   0.276   5.464   3.440 -0.4417  0.9802  0.1325
 3772TIP3   OH232806   6.797   0.640  11.069 -0.4528 -0.1514  0.1796
 3772TIP3    H132807   6.841   0.713  11.113 -0.8565  0.7452 -0.8678
 3772TIP3    H232808   6.863   0.570  11.067  0.6686  0.9048 -0.6739
 3773TIP3   OH232809   2.539   4.951  11.446 -0.3448 -0.3720 -0.2551
 3773TIP3    H132810   2.604   4.903  11.394 -0.7797 -2.2489  0.8877
 3773TIP3    H232811   2.562   5.043  11.432  2.1129 -0.9605 -0.4689
 3774TIP3   OH232812   4.961   5.112  12.121 -0.6203  0.0865  0.0040
 3774TIP3    H132813   4.983   5.036  12.175  0.1693  0.2777 -0.0386
 3774TIP3    H232814   4.909   5.169  12.178 -0.9573 -0.3475  0.1307
 3775TIP3   OH232815   4.538   1.815   1.403 -0.3130 -0.6786 -0.2780
 3775TIP3    H132816   4.545   1.788   1.494  1.0500 -1.5548 -0.6409
 3775TIP3    H232817   4.456   1.776   1.373 -1.0003 -0.0041  0.6903
 3776TIP3   OH232818   6.461   5.057   5.071  0.0650 -0.3377  0.2692
 3776TIP3    H132819   6.542   5.011   5.089  0.1203 -0.6629 -0.7809
 3776TIP3    H232820   6.419   5.007   5.001 -0.5898  0.3554  0.1522
 3777TIP3   OH232821   0.300   0.389   5.284 -0.8832  0.8215  0.0439
 3777TIP3    H132822   0.365   0.387   5.354 -1.9787  0.2937  1.0700
 3777TIP3    H232823   0.340   0.443   5.216  0.1105  1.5563  1.1737
 3778TIP3   OH232824   4.168   1.599  11.414  0.2635  0.0517  0.0167
 3778TIP3    H132825   4.169   1.512  11.375  0.8023  0.4372 -0.8246
 3778TIP3    H232826   4.203   1.657  11.347  0.7280  0.7926  0.8811
 3779TIP3   OH232827   4.083   3.152   1.144 -0.0401 -0.2517 -0.0799
 3779TIP3    H132828   4.006   3.188   1.189  0.0862  1.3134 -1.0925
 3779TIP3    H232829   4.139   3.120   1.215 -1.6664 -1.5773  0.6760
 3780TIP3   OH232830   1.407   1.205  10.435 -0.1624 -0.3400 -0.4021
 3780TIP3    H132831   1.487   1.204  10.489  0.0431 -1.0790 -0.7058
 3780TIP3    H232832   1.436   1.171  10.350 -0.7884 -0.5257 -0.5364
 3781TIP3   OH232833   5.632   2.946   4.159 -0.3610 -0.0013  0.1394
 3781TIP3    H132834   5.628   2.996   4.077  0.7201 -1.6479 -0.9428
 3781TIP3    H232835   5.684   2.868   4.138  2.1767  0.8020  3.0839
 3782TIP3   OH232836   4.923   3.130  17.266  0.2750 -0.2289  0.4225
 3782TIP3    H132837   4.875   3.206  17.232 -0.5066  0.0026  1.9830
 3782TIP3    H232838   4.890   3.056  17.216  0.7881  0.4160 -0.8828
 3783TIP3   OH232839   3.561   2.248   0.844 -0.3489  0.5354 -1.1541
 3783TIP3    H132840   3.469   2.227   0.824 -0.7668  1.2988 -0.0643
 3783TIP3    H232841   3.599   2.271   0.760 -1.4624  1.3689 -1.4367
 3784TIP3   OH232842   4.268   3.458   3.384  0.5201  0.2745 -0.4066
 3784TIP3    H132843   4.346   3.513   3.390 -0.7326  1.8348  2.8545
 3784TIP3    H232844   4.285   3.385   3.444  0.9300 -1.3674 -2.4523
 3785TIP3   OH232845   4.955   2.882  14.003 -0.0203  0.1657 -0.1746
 3785TIP3    H132846   4.972   2.789  14.011 -0.7402  0.2612  3.3717
 3785TIP3    H232847   5.037   2.919  13.972  1.3783 -1.2513  1.7408
 3786TIP3   OH232848   4.126   4.600  16.407 -0.4223 -0.2391  0.0508
 3786TIP3    H132849   4.032   4.591  16.392 -0.4084 -1.3943  0.6202
 3786TIP3    H232850   4.157   4.652  16.333 -1.5794  0.5277  0.0957
 3787TIP3   OH232851   4.472   3.316   5.891  0.6149 -0.2734 -0.1142
 3787TIP3    H132852   4.559   3.285   5.864  0.4736 -1.3736  0.6412
 3787TIP3    H232853   4.477   3.411   5.885  1.9753 -0.3166  0.2178
 3788TIP3   OH232854   5.257   1.544   1.056  0.6792  0.3619  0.1840
 3788TIP3    H132855   5.202   1.620   1.039  1.2977  0.9426  0.7663
 3788TIP3    H232856   5.203   1.488   1.113  0.4388  0.6205  0.2126
 3789TIP3   OH232857   5.877   0.417   1.984 -0.0387  0.6225 -0.4841
 3789TIP3    H132858   5.882   0.450   2.074 -1.0027 -0.5277 -0.0033
 3789TIP3    H232859   5.904   0.325   1.991  1.0073  0.8376 -1.5592
 3790TIP3   OH232860   4.190   3.533   1.665  0.0806 -0.0682 -0.1040
 3790TIP3    H132861   4.147   3.563   1.584 -1.1480 -1.8031 -0.1175
 3790TIP3    H232862   4.120   3.494   1.716  0.8864  0.8865  1.7694
 3791TIP3   OH232863   5.693   5.300  13.669 -0.2119  0.1465  1.0063
 3791TIP3    H132864   5.635   5.320  13.743 -0.0242  1.9329  0.7010
 3791TIP3    H232865   5.645   5.329  13.592  1.2841  2.1809  0.7982
 3792TIP3   OH232866   2.821   4.371   2.056  0.2951 -0.4914 -0.3124
 3792TIP3    H132867   2.751   4.410   2.109  0.1566  0.1073 -0.9243
 3792TIP3    H232868   2.782   4.292   2.019  0.6995 -1.4531  1.2546
 3793TIP3   OH232869   4.055   5.407   2.614 -0.2044  0.0610  0.6213
 3793TIP3    H132870   4.146   5.408   2.644 -0.0705  0.4850  0.1912
 3793TIP3    H232871   4.048   5.328   2.560 -0.9562 -1.8233  3.3537
 3794TIP3   OH232872   4.095   2.108  13.624 -0.4836  0.0565 -0.2661
 3794TIP3    H132873   4.050   2.183  13.663  1.0478 -0.1227  1.9748
 3794TIP3    H232874   4.103   2.045  13.696  1.7870 -0.6014 -1.0433
 3795TIP3   OH232875   0.309   3.964  11.908 -0.8647 -0.3265  0.2715
 3795TIP3    H132876   0.251   4.019  11.855  0.2781  2.7245  2.0330
 3795TIP3    H232877   0.254   3.891  11.936 -2.5196  0.0354 -1.9173
 3796TIP3   OH232878   0.563   6.492  17.025 -1.1199  0.6635 -0.3807
 3796TIP3    H132879   0.657   6.506  17.040 -1.2074  1.1026 -0.2338
 3796TIP3    H232880   0.554   6.397  17.014 -0.3754  0.8038 -2.3742
 3797TIP3   OH232881   6.407   1.862   3.173 -0.1411  0.0225 -0.2119
 3797TIP3    H132882   6.463   1.922   3.221 -1.4682  1.5493 -0.5539
 3797TIP3    H232883   6.330   1.851   3.228 -1.6539  1.7408 -1.9129
 3798TIP3   OH232884   0.388   1.979   3.969  0.1079 -0.0532  0.1787
 3798TIP3    H132885   0.374   1.902   3.915 -1.4250  0.7051 -0.5496
 3798TIP3    H232886   0.421   2.045   3.908  2.6135 -0.4624  1.0254
 3799TIP3   OH232887   5.739   2.543  14.714  0.4527 -0.2764 -0.2482
 3799TIP3    H132888   5.815   2.574  14.764 -0.2401  0.2086  0.5289
 3799TIP3    H232889   5.667   2.597  14.746  0.2157  0.9016 -2.6706
 3800TIP3   OH232890   3.838   2.400  11.454 -0.0759  0.2567  0.2652
 3800TIP3    H132891   3.817   2.312  11.486  0.0675 -0.3273 -1.1853
 3800TIP3    H232892   3.830   2.393  11.359  0.7877  1.5908  0.0810
 3801TIP3   OH232893   1.672   4.549   1.151  0.2564 -0.0091 -0.4100
 3801TIP3    H132894   1.698   4.463   1.183  0.8629  0.2116 -0.2939
 3801TIP3    H232895   1.679   4.606   1.228  0.1019  0.1941 -0.5450
 3802TIP3   OH232896   5.435   4.390  14.230  0.3764  0.0004  0.2120
 3802TIP3    H132897   5.377   4.326  14.189 -0.7277  0.9583  0.2588
 3802TIP3    H232898   5.389   4.473  14.221  1.0410  0.5355  1.6128
 3803TIP3   OH232899   1.187   6.751   1.266  0.3407  0.1952  0.2714
 3803TIP3    H132900   1.166   6.672   1.314  0.1684 -1.1021 -1.8794
 3803TIP3    H232901   1.283   6.757   1.268  0.4014 -0.5689 -0.3420
 3804TIP3   OH232902   0.241   4.869   3.975  0.1977 -0.1906  0.4351
 3804TIP3    H132903   0.161   4.915   3.949 -1.9849 -3.2153  1.5848
 3804TIP3    H232904   0.311   4.930   3.952 -2.4303  2.8005 -0.0611
 3805TIP3   OH232905   6.718   0.722   5.710  0.6814 -0.0469  0.1107
 3805TIP3    H132906   6.754   0.776   5.780  1.2972 -1.3486  0.8185
 3805TIP3    H232907   6.791   0.709   5.650  0.4211  0.2468 -0.2742
 3806TIP3   OH232908   2.527   3.625   4.064  0.0957  0.1012  0.1709
 3806TIP3    H132909   2.604   3.569   4.066  1.4766  1.7693 -2.2242
 3806TIP3    H232910   2.468   3.583   4.001 -0.9810 -1.1720  1.9992
 3807TIP3   OH232911   6.288   3.352   5.740  0.3383 -0.5451  0.0522
 3807TIP3    H132912   6.345   3.305   5.801 -0.5954 -0.2535  1.1666
 3807TIP3    H232913   6.202   3.314   5.755 -0.0852  0.2648 -0.3452
 3808TIP3   OH232914   0.684   0.268  13.521 -0.3893  0.4038 -0.0220
 3808TIP3    H132915   0.714   0.264  13.430  1.5970 -0.1542  0.6272
 3808TIP3    H232916   0.696   0.179  13.554 -4.4977 -0.3279 -0.2065
 3809TIP3   OH232917   5.969   1.476  11.703  0.1875  0.1911 -0.2826
 3809TIP3    H132918   6.030   1.425  11.756 -1.0924 -1.1234 -0.0347
 3809TIP3    H232919   5.989   1.452  11.613  0.5142  0.3166 -0.2449
 3810TIP3   OH232920   3.359   4.241   4.360  0.8609 -0.3161  0.5341
 3810TIP3    H132921   3.264   4.248   4.374  0.5641 -1.0999 -0.9526
 3810TIP3    H232922   3.392   4.197   4.438 -0.3202 -2.0436  0.0967
 3811TIP3   OH232923   1.442   5.183   5.133 -0.0546  0.1324  0.3807
 3811TIP3    H132924   1.470   5.131   5.208  3.2616  0.5572 -0.4851
 3811TIP3    H232925   1.440   5.273   5.166 -0.4365  0.0996  0.4491
 3812TIP3   OH232926   1.618   0.771  14.824  0.3027 -0.4817  0.1243
 3812TIP3    H132927   1.626   0.801  14.734 -0.8027 -0.5736 -0.0077
 3812TIP3    H232928   1.639   0.678  14.821 -1.4861 -0.8769 -0.3323
 3813TIP3   OH232929   3.143   3.889   1.828  0.0394 -0.3925  0.4107
 3813TIP3    H132930   3.222   3.863   1.782  0.5444  1.5538  0.1227
 3813TIP3    H232931   3.071   3.863   1.770  0.6206  0.9368 -0.9493
 3814TIP3   OH232932   3.843   5.774   3.363 -0.6350 -0.1646  0.6080
 3814TIP3    H132933   3.769   5.746   3.417 -1.0725  0.2767  0.2511
 3814TIP3    H232934   3.842   5.870   3.369 -1.1969 -0.0576 -0.8139
 3815TIP3   OH232935   5.278   4.726   2.807  0.7252 -0.0566  0.6908
 3815TIP3    H132936   5.317   4.688   2.728  1.3493 -0.7490  1.3296
 3815TIP3    H232937   5.265   4.818   2.785 -1.7043 -0.7816 -1.2398
 3816TIP3   OH232938   3.117   5.581  17.053 -0.2228 -0.5350  0.3672
 3816TIP3    H132939   3.071   5.567  17.136 -0.5077 -0.1433  0.2759
 3816TIP3    H232940   3.051   5.562  16.985 -0.3369  0.2990  0.2392
 3817TIP3   OH232941   1.784   0.382   0.478  0.2160  0.5621  0.1205
 3817TIP3    H132942   1.864   0.418   0.516 -0.2719  2.2898 -0.4216
 3817TIP3    H232943   1.780   0.421   0.391 -0.0640 -1.2649 -0.7080
 3818TIP3   OH232944   0.695   1.850   1.938  0.0468  0.5413  0.2797
 3818TIP3    H132945   0.694   1.757   1.957  0.9436  0.3728 -0.4468
 3818TIP3    H232946   0.611   1.867   1.895 -0.4340  0.2272  1.0854
 3819TIP3   OH232947   1.529   2.781   5.905 -0.2314  0.2947 -0.2997
 3819TIP3    H132948   1.510   2.751   5.994 -1.7767  1.3367 -0.2435
 3819TIP3    H232949   1.517   2.704   5.850 -0.7833  0.0092  0.2151
 3820TIP3   OH232950   2.541   6.458  15.338 -0.6151 -0.3256 -0.1489
 3820TIP3    H132951   2.489   6.447  15.258 -0.3729  1.6080 -0.5740
 3820TIP3    H232952   2.494   6.524  15.389 -0.2065 -0.7935  0.8579
 3821TIP3   OH232953   1.202   3.549  12.792 -0.0139  0.0358 -0.9328
 3821TIP3    H132954   1.107   3.561  12.782 -0.4248  1.0717  3.2754
 3821TIP3    H232955   1.237   3.638  12.789  0.2482  0.0705  2.0372
 3822TIP3   OH232956   6.003   3.267   3.150 -0.0961  0.2318  0.2330
 3822TIP3    H132957   5.978   3.345   3.101  0.0687 -0.2922 -0.6891
 3822TIP3    H232958   6.070   3.225   3.097  0.0608 -0.3616  0.8899
 3823TIP3   OH232959   4.763   0.402  15.437 -0.2174  0.7668 -0.3816
 3823TIP3    H132960   4.697   0.470  15.451 -0.3037  0.5884  0.0762
 3823TIP3    H232961   4.818   0.404  15.516  1.0636  1.7300 -1.2712
 3824TIP3   OH232962   0.557   4.885   1.859  0.5460 -0.0931 -0.1573
 3824TIP3    H132963   0.595   4.912   1.942  0.1374  0.2423 -0.0779
 3824TIP3    H232964   0.515   4.964   1.825 -1.2934 -0.7744  0.4324
 3825TIP3   OH232965   6.368   6.535   3.910 -0.3024 -0.0056  0.2492
 3825TIP3    H132966   6.312   6.494   3.976 -0.8464 -1.0570 -0.8562
 3825TIP3    H232967   6.353   6.629   3.921 -1.8144 -0.2582  0.3691
 3826TIP3   OH232968   1.408   2.585  15.559 -0.0053  0.2342  0.4929
 3826TIP3    H132969   1.427   2.534  15.481  1.2891  0.6183  0.5346
 3826TIP3    H232970   1.454   2.539  15.630  0.6210  1.0734  0.6439
 3827TIP3   OH232971   0.911   1.674  13.766 -0.5537 -0.5967 -0.5581
 3827TIP3    H132972   0.837   1.618  13.788 -0.8383 -0.8537 -2.1070
 3827TIP3    H232973   0.942   1.640  13.682  0.2102  0.6152 -0.7697
 3828TIP3   OH232974   5.382   0.783  12.999 -0.2961 -0.0305  0.1124
 3828TIP3    H132975   5.347   0.787  12.910  0.9180  1.8870 -0.3282
 3828TIP3    H232976   5.339   0.856  13.045  0.6099  0.2807  0.4881
 3829TIP3   OH232977   2.417   0.644  16.948  0.0172  0.2898 -0.0599
 3829TIP3    H132978   2.505   0.681  16.949 -0.0600  0.4584  0.8992
 3829TIP3    H232979   2.413   0.589  17.027 -0.4209 -0.4600 -0.5943
 3830TIP3   OH232980   3.031   3.192   4.165  0.1427  0.8855 -0.0330
 3830TIP3    H132981   3.099   3.213   4.229 -0.5118 -2.0404  1.7605
 3830TIP3    H232982   2.949   3.211   4.210 -0.2856  0.6741 -0.7143
 3831TIP3   OH232983   1.351   2.803  16.247  0.3161  0.4227  0.0420
 3831TIP3    H132984   1.388   2.758  16.323  0.0307  1.1733  0.6306
 3831TIP3    H232985   1.422   2.860  16.217  0.4445  0.0924 -0.2951
 3832TIP3   OH232986   2.541   2.403  13.741  0.0742 -0.2239 -0.1681
 3832TIP3    H132987   2.566   2.378  13.830 -0.1332  0.3013  0.0417
 3832TIP3    H232988   2.501   2.490  13.751  0.2234 -0.0804 -0.7962
 3833TIP3   OH232989   1.842   5.321   2.643 -0.1505 -0.0389 -0.2070
 3833TIP3    H132990   1.931   5.333   2.678  0.4167 -1.3005 -1.2008
 3833TIP3    H232991   1.838   5.377   2.566 -0.4129  0.4450  0.1531
 3834TIP3   OH232992   1.371   1.229   2.744  0.6173  0.4503 -1.0687
 3834TIP3    H132993   1.311   1.168   2.701  0.5654  0.4444 -0.9866
 3834TIP3    H232994   1.448   1.176   2.766  0.8126  0.5417 -1.5217
 3835TIP3   OH232995   2.780   2.675  17.111  0.0671 -0.6520  0.6705
 3835TIP3    H132996   2.690   2.643  17.118  0.5341 -2.1645 -0.1631
 3835TIP3    H232997   2.772   2.770  17.122 -1.6508 -0.7598  0.4432
 3836TIP3   OH232998   2.040   2.814   3.065 -0.5422  0.1268  0.1320
 3836TIP3    H132999   1.991   2.739   3.099  0.5228  0.1433  1.7724
 3836TIP3    H233000   2.028   2.882   3.131  0.6328  0.5360 -0.0654
 3837TIP3   OH233001   6.530   6.714  16.255 -0.3502  0.0560  0.0960
 3837TIP3    H133002   6.521   6.780  16.323 -0.2124  0.5117 -0.3234
 3837TIP3    H233003   6.535   6.764  16.174  0.6681 -0.4199 -0.1496
 3838TIP3   OH233004   6.444   1.775  11.658  0.5041 -0.0845  0.4148
 3838TIP3    H133005   6.501   1.713  11.703  0.9652  0.7366  0.9725
 3838TIP3    H233006   6.438   1.742  11.568  0.7847 -0.9024  0.6932
 3839TIP3   OH233007   4.420   2.069   2.922  0.0775 -0.2811  0.8049
 3839TIP3    H133008   4.437   2.155   2.885  3.6247 -0.8606  0.8455
 3839TIP3    H233009   4.371   2.086   3.002  0.2273  1.6455  0.5040
 3840TIP3   OH233010   1.973   0.091   6.276  0.4077 -0.5537 -0.7123
 3840TIP3    H133011   1.909   0.055   6.215  1.0110 -2.8616 -0.0233
 3840TIP3    H233012   2.007   0.169   6.232 -0.4358 -1.2000 -2.5435
 3841TIP3   OH233013   0.392   0.656  16.251  0.4408  0.0884  0.0569
 3841TIP3    H133014   0.479   0.634  16.283  1.1387 -0.3939 -2.0688
 3841TIP3    H233015   0.409   0.711  16.174 -1.0825 -1.7120 -1.5932
 3842TIP3   OH233016   1.393   4.216   1.861  0.0758 -0.1582  0.0020
 3842TIP3    H133017   1.459   4.277   1.826 -0.1361  1.1586  1.8709
 3842TIP3    H233018   1.314   4.234   1.810  0.4903 -0.0780 -0.6158
 3843TIP3   OH233019   4.535   0.983   5.604  0.3143 -0.6398 -0.9117
 3843TIP3    H133020   4.623   0.978   5.642  0.6755 -1.0172 -1.7756
 3843TIP3    H233021   4.500   1.066   5.636 -0.1632 -1.8367  1.8164
 3844TIP3   OH233022   0.955   4.420  15.129  0.6879 -0.1571 -0.1148
 3844TIP3    H133023   0.904   4.342  15.155 -1.5240  0.6553 -1.8622
 3844TIP3    H233024   0.907   4.493  15.166  0.1308  0.6826 -2.4101
 3845TIP3   OH233025   3.789   0.124  16.553  0.0727 -0.3151 -0.3061
 3845TIP3    H133026   3.847   0.200  16.564 -1.5635  1.2039 -1.8391
 3845TIP3    H233027   3.720   0.137  16.617 -0.1416 -0.5810 -0.4849
 3846TIP3   OH233028   3.493   0.190  15.612 -0.1096  0.0781  0.0108
 3846TIP3    H133029   3.435   0.125  15.653  1.1070 -0.6221  0.6615
 3846TIP3    H233030   3.445   0.219  15.535  0.1253 -3.0558 -1.4082
 3847TIP3   OH233031   3.559   5.226  11.535  0.1433 -0.3617  0.0114
 3847TIP3    H133032   3.613   5.228  11.456  0.6451 -1.7771  0.2996
 3847TIP3    H233033   3.538   5.318  11.552 -0.1245 -0.0497 -1.8578
 3848TIP3   OH233034   5.277   1.038  15.950 -0.2821 -0.6312  0.2027
 3848TIP3    H133035   5.343   1.005  16.010 -0.6307 -0.9004  0.4449
 3848TIP3    H233036   5.291   1.133  15.947 -0.6665 -0.5357  1.2013
 3849TIP3   OH233037   3.811   3.829  11.242 -0.3841  0.3574 -0.2363
 3849TIP3    H133038   3.829   3.767  11.313  1.0964  1.1831  0.1234
 3849TIP3    H233039   3.894   3.834  11.194 -1.2534  0.1355 -1.7737
 3850TIP3   OH233040   5.754   1.898   5.473  0.3189  0.7364  0.1714
 3850TIP3    H133041   5.814   1.908   5.547 -0.1115  3.0938  0.2344
 3850TIP3    H233042   5.705   1.980   5.470 -1.1171 -0.1362 -1.4705
 3851TIP3   OH233043   2.604   6.755   0.697 -0.3200 -0.2435  0.2418
 3851TIP3    H133044   2.678   6.802   0.658 -0.0849 -0.2833  0.6356
 3851TIP3    H233045   2.604   6.782   0.789 -1.1726  0.2303  0.1084
 3852TIP3   OH233046   2.862   2.941  13.753 -0.3960 -0.4569 -0.1251
 3852TIP3    H133047   2.943   2.902  13.787 -0.6955 -0.2070  0.8790
 3852TIP3    H233048   2.792   2.893  13.797 -0.7695  0.8775  0.7383
 3853TIP3   OH233049   4.965   5.186   3.568 -0.4336 -0.1212  0.2355
 3853TIP3    H133050   4.976   5.092   3.579 -1.4296 -0.3385 -0.6031
 3853TIP3    H233051   4.887   5.207   3.619 -0.4549  0.1882  0.0750
 3854TIP3   OH233052   2.244   4.159  13.913  0.2772 -0.0946 -0.2005
 3854TIP3    H133053   2.332   4.183  13.941  0.0210 -0.8387  1.3367
 3854TIP3    H233054   2.228   4.075  13.956 -1.8102  0.8363  0.9124
 3855TIP3   OH233055   5.810   2.603  12.562 -0.7206  0.0027  0.6050
 3855TIP3    H133056   5.785   2.689  12.529  0.9900  1.4440  2.8939
 3855TIP3    H233057   5.730   2.552  12.560 -1.4324  1.1041 -2.3303
 3856TIP3   OH233058   6.503   6.116  13.443  0.1275 -0.5832  0.6465
 3856TIP3    H133059   6.481   6.186  13.381  0.7197 -0.0794  1.0074
 3856TIP3    H233060   6.440   6.046  13.423 -0.4297  0.0299  0.2539
 3857TIP3   OH233061   6.061   1.581   3.711  0.1929  0.4268  0.7336
 3857TIP3    H133062   6.007   1.569   3.789 -1.0399 -0.5429 -0.2429
 3857TIP3    H233063   6.035   1.666   3.677 -2.4448 -0.9881 -0.9958
 3858TIP3   OH233064   6.013   0.873  14.845 -0.2730  0.1318  0.4689
 3858TIP3    H133065   5.929   0.876  14.891 -0.2544 -1.1194  0.6232
 3858TIP3    H233066   6.025   0.780  14.826  0.6839  0.4105 -0.2869
 3859TIP3   OH233067   4.568   0.064   2.987  0.0543 -0.7337 -0.0197
 3859TIP3    H133068   4.568  -0.022   2.947 -0.8563 -0.5235 -0.4749
 3859TIP3    H233069   4.618   0.119   2.926  0.8270 -0.9762  0.3786
 3860TIP3   OH233070   4.198   0.648  14.266 -0.5888 -0.6655 -0.1321
 3860TIP3    H133071   4.270   0.586  14.259 -0.2240 -0.1560 -1.0986
 3860TIP3    H233072   4.123   0.603  14.226 -0.2373 -0.3754 -1.1506
 3861TIP3   OH233073   0.989   1.158   4.778 -0.2222  0.2814  0.0265
 3861TIP3    H133074   0.997   1.177   4.871 -1.5001 -1.6425  0.5769
 3861TIP3    H233075   0.922   1.219   4.747  1.5149  2.1982 -0.0801
 3862TIP3   OH233076   6.651   3.547  11.774  0.2191  0.4921  0.6779
 3862TIP3    H133077   6.618   3.568  11.687 -1.1788 -2.1901  0.4993
 3862TIP3    H233078   6.705   3.622  11.798  2.3528  0.4034 -3.3675
 3863TIP3   OH233079   3.251   2.429  15.860 -0.7034  0.6320  0.0108
 3863TIP3    H133080   3.338   2.391  15.867 -0.0796  1.8181 -1.0657
 3863TIP3    H233081   3.207   2.376  15.794 -1.0708 -0.4320  1.0850
 3864TIP3   OH233082   1.004   4.121   6.685 -0.4744  0.5601  0.2012
 3864TIP3    H133083   0.973   4.036   6.715  0.2847  0.2410  0.0856
 3864TIP3    H233084   0.929   4.160   6.640 -1.6287  1.0594  2.5284
 3865TIP3   OH233085   3.849   0.599   2.795  0.4670 -0.4030 -0.0235
 3865TIP3    H133086   3.920   0.661   2.818  1.0703 -0.9489 -0.4011
 3865TIP3    H233087   3.800   0.589   2.876  0.8527 -0.0510  0.2604
 3866TIP3   OH233088   4.661   2.872  11.094  0.2586  0.3386 -0.1755
 3866TIP3    H133089   4.722   2.908  11.030  1.0016 -1.0862 -0.2916
 3866TIP3    H233090   4.593   2.830  11.040 -0.4713  1.3223 -0.0389
 3867TIP3   OH233091   5.821   5.028  16.189 -0.2326  0.0576 -0.1472
 3867TIP3    H133092   5.801   5.098  16.128  1.8432  0.4911 -0.3343
 3867TIP3    H233093   5.860   5.071  16.265 -0.3387 -0.7517  0.3874
 3868TIP3   OH233094   6.742   4.943   0.445 -0.7305  0.1162  0.0189
 3868TIP3    H133095   6.647   4.929   0.437 -0.7131  0.1728 -0.2917
 3868TIP3    H233096   6.780   4.856   0.435 -0.7786  0.0243  0.6271
 3869TIP3   OH233097   6.381   4.051  13.983  0.4291 -0.2940 -0.1598
 3869TIP3    H133098   6.307   4.055  14.043  0.5901 -0.7521  0.0708
 3869TIP3    H233099   6.398   3.957  13.972 -0.5737 -0.2786 -2.1156
 3870TIP3   OH233100   2.298   6.205  10.650 -0.0805 -0.3997  0.6036
 3870TIP3    H133101   2.267   6.245  10.731 -2.8824  0.6703 -0.9300
 3870TIP3    H233102   2.353   6.272  10.610  0.7596 -0.6796  1.2630
 3871TIP3   OH233103   2.401   4.330  14.247 -0.2058  0.0860  0.2286
 3871TIP3    H133104   2.328   4.390  14.261  0.6259  1.3440 -0.6797
 3871TIP3    H233105   2.379   4.252  14.298 -1.7294  0.8147  0.7021
 3872TIP3   OH233106   3.370   4.600  12.359  0.3577 -0.1593 -0.1196
 3872TIP3    H133107   3.418   4.632  12.282  0.9763 -1.2253 -0.1794
 3872TIP3    H233108   3.436   4.595  12.428 -0.0521  0.1038  0.2971
 3873TIP3   OH233109   2.977   3.300  11.498 -0.0576  0.0075  0.3490
 3873TIP3    H133110   2.982   3.376  11.440  1.5049  0.4830  1.0755
 3873TIP3    H233111   3.033   3.234  11.457 -0.4436 -0.3253  0.3523
 3874TIP3   OH233112   4.620   1.544   3.433 -0.4030  0.1623 -0.5154
 3874TIP3    H133113   4.602   1.513   3.345  0.5882  0.3187 -0.7861
 3874TIP3    H233114   4.714   1.564   3.432 -0.6061  1.1999  0.2465
 3875TIP3   OH233115   0.003   1.898  13.045 -0.1338 -0.8480  0.3219
 3875TIP3    H133116  -0.008   1.824  13.105  0.0512  0.5133  2.0759
 3875TIP3    H233117  -0.037   1.971  13.090  1.1714  0.4942 -0.6487
 3876TIP3   OH233118   6.315   3.533   5.459  0.8683  0.0528 -0.1462
 3876TIP3    H133119   6.409   3.542   5.476  0.1595  1.1391  3.7778
 3876TIP3    H233120   6.279   3.503   5.543 -2.0939 -1.8235 -2.0271
 3877TIP3   OH233121   3.034   1.982   2.370  0.2680  0.1819 -0.7206
 3877TIP3    H133122   3.025   1.943   2.456 -1.1719 -0.9667 -1.3683
 3877TIP3    H233123   3.128   1.985   2.354  0.4546 -1.6049 -0.0193
 3878TIP3   OH233124   5.171   1.905  14.839 -0.1564  0.1197 -0.3900
 3878TIP3    H133125   5.134   1.988  14.808  0.4043  0.0935 -1.1433
 3878TIP3    H233126   5.202   1.861  14.759 -1.6578 -1.4212 -0.1530
 3879TIP3   OH233127   1.731   4.672  14.329 -0.1231  0.2851  1.0031
 3879TIP3    H133128   1.738   4.730  14.253  0.4504 -0.2274  0.6592
 3879TIP3    H233129   1.663   4.711  14.383 -0.0541  1.0305  0.5518
 3880TIP3   OH233130   2.907   3.530  14.177  0.0559 -0.4880 -0.3130
 3880TIP3    H133131   2.954   3.562  14.255  0.7266 -0.1921 -0.8290
 3880TIP3    H233132   2.818   3.563  14.188 -0.0773 -1.1791  0.7556
 3881TIP3   OH233133   5.306   1.482  16.131 -0.3961  0.5681  0.1488
 3881TIP3    H133134   5.350   1.565  16.147 -0.6326  0.2176  2.9543
 3881TIP3    H233135   5.214   1.504  16.120 -0.4390  0.6876  0.7598
 3882TIP3   OH233136   5.302   5.831   4.476  0.4412 -0.6156  0.0053
 3882TIP3    H133137   5.328   5.751   4.431 -2.6566 -0.9229 -1.3892
 3882TIP3    H233138   5.285   5.804   4.566  1.0194 -1.2130 -0.0674
 3883TIP3   OH233139   4.261   1.064  14.879  0.6143  0.2209 -0.1024
 3883TIP3    H133140   4.318   1.006  14.930  2.0724  2.3173  0.6935
 3883TIP3    H233141   4.309   1.079  14.797 -0.2599 -0.5364 -0.7696
 3884TIP3   OH233142   6.285   4.334   5.449  0.1421 -0.2593 -0.4682
 3884TIP3    H133143   6.248   4.278   5.381  0.1259 -1.4582  0.5105
 3884TIP3    H233144   6.338   4.398   5.401  2.3472 -2.7715 -1.4716
 3885TIP3   OH233145   0.849   0.162  17.127 -0.2253 -0.3065  0.3362
 3885TIP3    H133146   0.850   0.254  17.103  0.7456 -0.4355 -0.1545
 3885TIP3    H233147   0.931   0.127  17.092 -0.2518 -1.1978  1.1265
 3886TIP3   OH233148   5.963   2.258   0.254  0.0135 -0.3838 -0.2846
 3886TIP3    H133149   5.966   2.329   0.317  2.2188 -0.6577 -0.0287
 3886TIP3    H233150   6.011   2.291   0.178  1.0649 -1.5614 -0.1626
 3887TIP3   OH233151   2.394   1.936   5.272 -0.3450  0.1011  0.2227
 3887TIP3    H133152   2.334   1.903   5.339 -0.8291 -0.1088 -0.3004
 3887TIP3    H233153   2.481   1.916   5.305 -0.6172 -1.2886  0.1386
 3888TIP3   OH233154   1.111   2.770   1.949  0.0735 -0.4063 -0.1267
 3888TIP3    H133155   1.066   2.814   2.021  1.4776 -0.5352  0.8465
 3888TIP3    H233156   1.171   2.709   1.992  1.2183 -0.1934 -1.3832
 3889TIP3   OH233157   0.819   5.301   1.919  0.1239 -0.2405  0.3900
 3889TIP3    H133158   0.866   5.367   1.868  0.9134  0.5152  2.0505
 3889TIP3    H233159   0.727   5.316   1.899  0.3055  1.3150  0.6828
 3890TIP3   OH233160   5.912   1.510  11.262  0.0727  0.3270 -0.2310
 3890TIP3    H133161   5.946   1.557  11.186  1.9996 -0.5030  0.0766
 3890TIP3    H233162   5.894   1.578  11.326 -0.2406  0.9143 -0.9381
 3891TIP3   OH233163   4.360   5.775  10.364  0.0991 -0.4381 -0.4912
 3891TIP3    H133164   4.431   5.776  10.428  0.6541 -0.5014 -1.1012
 3891TIP3    H233165   4.369   5.858  10.317 -0.8763  0.0242  0.1404
 3892TIP3   OH233166   0.120   2.831  13.533  0.0971 -0.3669  0.1286
 3892TIP3    H133167   0.134   2.878  13.615 -1.5961 -0.8466  0.7164
 3892TIP3    H233168   0.090   2.898  13.472  0.5382 -0.1617  0.1346
 3893TIP3   OH233169   5.244   1.650   3.770  0.6443 -0.6158  0.5693
 3893TIP3    H133170   5.295   1.674   3.692  0.3149  2.0452  1.1283
 3893TIP3    H233171   5.165   1.704   3.764 -1.0430 -2.9586  0.9638
 3894TIP3   OH233172   1.509   6.260   2.264  0.9474  0.2501  0.4889
 3894TIP3    H133173   1.519   6.196   2.194 -0.6354 -0.2642  0.7084
 3894TIP3    H233174   1.562   6.335   2.237  1.7317 -0.6231 -0.4161
 3895TIP3   OH233175   6.321   3.156   1.786 -0.4118 -0.4374  0.1488
 3895TIP3    H133176   6.323   3.106   1.704 -1.7043 -0.3322  0.0330
 3895TIP3    H233177   6.255   3.224   1.770 -2.7780 -2.1320  2.2295
 3896TIP3   OH233178   5.862   2.431  10.736 -0.3873 -0.3625  0.0956
 3896TIP3    H133179   5.853   2.487  10.659  1.1242 -1.7294 -1.1269
 3896TIP3    H233180   5.822   2.348  10.709 -0.2346 -0.7115  0.9390
 3897TIP3   OH233181   6.270   5.366  16.408  0.1068 -0.2428  0.2044
 3897TIP3    H133182   6.193   5.410  16.371  0.1957 -0.5074 -0.3026
 3897TIP3    H233183   6.336   5.370  16.338  0.4946 -0.1704  0.5743
 3898TIP3   OH233184   5.517   4.783   1.980 -0.5356 -0.0273  0.0041
 3898TIP3    H133185   5.572   4.839   1.925 -1.4966 -1.6332 -2.6681
 3898TIP3    H233186   5.578   4.719   2.018 -0.1591 -0.0594 -0.6579
 3899TIP3   OH233187   3.590   6.256   2.838  0.0501 -0.0621 -0.0677
 3899TIP3    H133188   3.617   6.267   2.747  2.4267  0.7255  0.6905
 3899TIP3    H233189   3.570   6.344   2.868 -1.5218 -0.4197 -0.0542
 3900TIP3   OH233190   0.249   5.378  10.864  0.2523  0.3535 -0.0054
 3900TIP3    H133191   0.320   5.407  10.921 -0.2289 -0.3903  0.9911
 3900TIP3    H233192   0.273   5.410  10.777  1.5751  0.5122  0.4084
 3901TIP3   OH233193   0.616   2.399   2.990  0.0325 -0.1855 -0.0950
 3901TIP3    H133194   0.582   2.485   2.965 -0.6696 -0.9120 -1.6603
 3901TIP3    H233195   0.694   2.387   2.935 -0.4603 -0.9965 -0.6233
 3902TIP3   OH233196   4.174   1.765  11.023  0.2393 -0.1567  0.4332
 3902TIP3    H133197   4.230   1.709  11.077  1.3143  0.9589  0.5229
 3902TIP3    H233198   4.171   1.722  10.938 -1.1757 -1.7445  1.2629
 3903TIP3   OH233199   1.788   1.817  16.771 -0.5054 -0.5927 -0.4378
 3903TIP3    H133200   1.875   1.848  16.746 -0.9546  1.0871  0.0087
 3903TIP3    H233201   1.779   1.733  16.727  1.6259 -1.1264  0.0826
 3904TIP3   OH233202   4.425   0.356  12.590 -0.2873  0.0670  0.5888
 3904TIP3    H133203   4.511   0.393  12.612 -0.0969  0.4824 -0.7833
 3904TIP3    H233204   4.368   0.383  12.663  0.5117  0.6433  1.0115
 3905TIP3   OH233205   5.126   6.391   0.125  0.4269 -0.2023  0.4998
 3905TIP3    H133206   5.046   6.425   0.164  0.8525  1.1791  0.1996
 3905TIP3    H233207   5.129   6.432   0.038  0.8157 -1.2198  0.0295
 3906TIP3   OH233208   0.839   3.793   1.462 -0.0295  0.4472 -0.0481
 3906TIP3    H133209   0.855   3.720   1.403  0.2222  0.7767 -0.3875
 3906TIP3    H233210   0.834   3.753   1.549  0.1578  0.0345 -0.2273
 3907TIP3   OH233211   3.920   6.031  15.931  0.4299  0.2479 -0.2066
 3907TIP3    H133212   3.917   6.053  16.024  1.9211 -1.0576  0.1782
 3907TIP3    H233213   3.957   6.110  15.889 -1.4885  1.3321  0.1107
 3908TIP3   OH233214   5.050   1.462   3.704  0.0643 -0.1159 -0.1315
 3908TIP3    H133215   4.996   1.490   3.779 -0.8544 -0.6332 -0.5844
 3908TIP3    H233216   5.129   1.516   3.710 -0.6037  0.8303  0.4197
 3909TIP3   OH233217   2.908   5.964   6.048 -0.9397 -0.6574  0.2291
 3909TIP3    H133218   2.977   5.908   6.014 -0.2539  1.1414 -1.4262
 3909TIP3    H233219   2.920   5.961   6.143  0.8704 -1.0599  0.0044
 3910TIP3   OH233220   2.054   4.055  13.332  0.3591  0.6386 -0.5791
 3910TIP3    H133221   2.144   4.025  13.346  0.0913  0.5973  1.2337
 3910TIP3    H233222   2.023   4.006  13.256  2.2069  1.4091 -1.8602
 3911TIP3   OH233223   0.094   1.983  10.969 -0.3686 -0.1225 -0.4603
 3911TIP3    H133224   0.013   1.948  11.005 -1.0951  1.3598 -0.6270
 3911TIP3    H233225   0.095   1.953  10.878 -0.2601 -0.9202 -0.2039
 3912TIP3   OH233226   0.814   1.953   1.081  0.1103 -0.1107 -0.0211
 3912TIP3    H133227   0.842   1.861   1.074 -0.8740 -0.4666  0.5980
 3912TIP3    H233228   0.888   1.997   1.122 -0.7968 -1.3753  3.1678
 3913TIP3   OH233229   6.572   2.981   3.378  0.1999  0.2753 -0.3738
 3913TIP3    H133230   6.589   3.075   3.383  0.9566  0.3058 -2.7694
 3913TIP3    H233231   6.655   2.940   3.401  0.7466  0.2578 -2.3296
 3914TIP3   OH233232   6.215   3.019  12.760  0.0377 -0.5882  0.1694
 3914TIP3    H133233   6.192   2.957  12.691 -2.6894 -1.3233  1.6502
 3914TIP3    H233234   6.172   3.101  12.733  0.8284 -0.2648 -0.1087
 3915TIP3   OH233235   4.305   6.370  16.900 -0.4996 -0.5192 -0.8464
 3915TIP3    H133236   4.237   6.314  16.938 -0.2347 -0.9313 -0.9632
 3915TIP3    H233237   4.387   6.331  16.931 -0.3546  1.3071  1.1482
 3916TIP3   OH233238   2.956   4.929  13.183 -0.1226 -0.4413  0.3281
 3916TIP3    H133239   2.897   4.857  13.162  0.4903 -0.5277 -1.1522
 3916TIP3    H233240   2.909   4.981  13.248 -1.2206 -1.2958  0.2328
 3917TIP3   OH233241   6.618   1.014   1.683 -0.3890 -0.2236  0.2311
 3917TIP3    H133242   6.683   1.037   1.617 -2.1585 -0.8363 -1.7976
 3917TIP3    H233243   6.566   1.094   1.694 -1.0480 -0.5767 -0.2737
 3918TIP3   OH233244   5.529   5.968  14.295  0.2080 -0.2193 -0.6754
 3918TIP3    H133245   5.562   5.978  14.205  1.0007 -1.8409 -0.5957
 3918TIP3    H233246   5.603   5.995  14.350  0.6975 -1.8440 -0.5071
 3919TIP3   OH233247   5.786   0.408   0.673 -0.0033  0.1994 -0.0172
 3919TIP3    H133248   5.765   0.478   0.611  0.9874 -0.2657 -0.8855
 3919TIP3    H233249   5.787   0.328   0.620  0.9585 -0.1936  0.5777
 3920TIP3   OH233250   2.076   0.684  13.719 -0.3128  0.0582 -0.1426
 3920TIP3    H133251   2.073   0.593  13.747 -1.2806  0.2914  0.5344
 3920TIP3    H233252   2.133   0.727  13.783  0.6866 -0.2062 -0.8563
 3921TIP3   OH233253   0.082   4.518   0.216  0.1804  0.2899 -0.1158
 3921TIP3    H133254   0.068   4.502   0.123 -0.4205  0.2136 -0.0171
 3921TIP3    H233255   0.003   4.484   0.259 -0.8095  2.7767  0.1699
 3922TIP3   OH233256   6.300   6.050   0.809 -0.2079  0.0265 -0.6584
 3922TIP3    H133257   6.252   6.130   0.791  0.9853  0.8270 -0.3572
 3922TIP3    H233258   6.368   6.076   0.871  0.6032 -1.0882 -1.0560
 3923TIP3   OH233259   1.802   2.790  13.014  0.0460  0.3734  0.0810
 3923TIP3    H133260   1.859   2.802  13.090 -1.3090  0.3571  1.1171
 3923TIP3    H233261   1.855   2.820  12.940  1.3271  0.5480  1.0439
 3924TIP3   OH233262   0.281   5.535  13.963  0.0980  0.3688 -0.2478
 3924TIP3    H133263   0.366   5.521  13.920 -0.2328  1.1259 -1.1583
 3924TIP3    H233264   0.277   5.630  13.977  0.0497  0.1752  1.1548
 3925TIP3   OH233265   4.481   5.200   4.085  0.6199  0.4530 -0.2165
 3925TIP3    H133266   4.541   5.170   4.016  0.8974  0.3902  0.0540
 3925TIP3    H233267   4.436   5.120   4.114  0.2969  0.5201 -0.5149
 3926TIP3   OH233268   4.800   1.772   5.656  0.0324 -0.0574 -0.2869
 3926TIP3    H133269   4.875   1.804   5.706  0.7442 -0.7430 -0.8843
 3926TIP3    H233270   4.756   1.711   5.714  1.5862 -1.8306 -0.9027
 3927TIP3   OH233271   4.169   0.785  13.046 -0.3225 -0.7244 -0.1444
 3927TIP3    H133272   4.117   0.736  12.982 -0.4936 -0.4852 -0.1909
 3927TIP3    H233273   4.114   0.859  13.069 -0.4118 -0.9997  0.5464
 3928TIP3   OH233274   3.052   3.255  13.145 -0.1108  0.5390 -0.5045
 3928TIP3    H133275   3.020   3.336  13.106  0.0582  0.8461  0.0048
 3928TIP3    H233276   3.102   3.213  13.075 -0.1262  0.9089 -0.7391
 3929TIP3   OH233277   6.351   6.187  11.561  0.2413 -0.5289  0.4542
 3929TIP3    H133278   6.384   6.239  11.488 -0.2806 -1.1624 -0.2437
 3929TIP3    H233279   6.295   6.247  11.610  0.5009 -0.1300  0.2560
 3930TIP3   OH233280   1.473   1.770  12.762  0.3107  0.1610 -0.4749
 3930TIP3    H133281   1.380   1.754  12.780  0.2837 -0.8244 -1.4764
 3930TIP3    H233282   1.474   1.815  12.678  0.7106  0.6066 -0.2299
 3931TIP3   OH233283   2.913   1.613  14.127 -0.8802 -0.3956  0.7255
 3931TIP3    H133284   2.992   1.606  14.182  0.2252 -1.1431 -0.9246
 3931TIP3    H233285   2.844   1.638  14.188  1.3441  3.9366  1.6726
 3932TIP3   OH233286   5.320   2.105   2.882  0.4671  0.3954  0.9749
 3932TIP3    H133287   5.294   2.016   2.901  0.7938  0.1360  0.2408
 3932TIP3    H233288   5.405   2.115   2.926 -0.8292  1.2340  3.3412
 3933TIP3   OH233289   5.176   3.607   1.054 -0.4985  0.1470  0.3113
 3933TIP3    H133290   5.250   3.593   0.994 -0.2796 -1.8712  1.0210
 3933TIP3    H233291   5.125   3.678   1.013  1.4317  1.0787 -0.5470
 3934TIP3   OH233292   0.378   2.315  13.888  0.2399 -0.3785  0.5708
 3934TIP3    H133293   0.374   2.275  13.975  1.7572  0.0700  0.8535
 3934TIP3    H233294   0.417   2.248  13.832  0.5912 -0.1433  0.5366
 3935TIP3   OH233295   5.410   5.038   3.536 -0.1160  0.6969 -0.0674
 3935TIP3    H133296   5.329   5.013   3.491 -0.2472  0.5078  0.2732
 3935TIP3    H233297   5.382   5.099   3.603 -0.3881 -1.6963  2.0748
 3936TIP3   OH233298   5.555   2.150  11.805 -0.0897  0.1527  0.1450
 3936TIP3    H133299   5.587   2.234  11.837 -0.0650  1.2020 -2.5223
 3936TIP3    H233300   5.461   2.163  11.793  0.1363  0.2456 -1.5835
 3937TIP3   OH233301   2.109   2.033  16.281 -0.0330 -0.0572 -0.0273
 3937TIP3    H133302   2.042   1.965  16.291  0.0769 -0.3665 -1.3210
 3937TIP3    H233303   2.122   2.041  16.186  0.0457  1.6935  0.1165
 3938TIP3   OH233304   2.039   3.848  13.158 -0.5132  0.0153 -0.1736
 3938TIP3    H133305   2.084   3.793  13.094  0.9533 -1.1225  1.7823
 3938TIP3    H233306   1.955   3.806  13.172  0.4494 -1.5580  1.0239
 3939TIP3   OH233307   5.232   2.437  16.807 -0.0717 -0.1642  0.4347
 3939TIP3    H133308   5.200   2.363  16.858  0.0717  0.4624  1.4368
 3939TIP3    H233309   5.221   2.513  16.864  0.7876  0.4389 -0.1788
 3940TIP3   OH233310   2.361   0.876   1.681 -0.1418 -0.4545 -0.0572
 3940TIP3    H133311   2.277   0.832   1.694 -1.2049  1.2980 -0.8245
 3940TIP3    H233312   2.358   0.908   1.591  0.6432  1.0676  0.4339
 3941TIP3   OH233313   2.510   4.426  16.214  0.0224 -0.1882 -0.2447
 3941TIP3    H133314   2.511   4.446  16.308 -0.2524 -1.9841  0.1623
 3941TIP3    H233315   2.601   4.404  16.193 -0.4377 -2.7571  0.2972
 3942TIP3   OH233316   5.396   5.525   3.335 -0.8145 -0.1042 -0.2194
 3942TIP3    H133317   5.328   5.515   3.402 -1.4808  0.9959 -0.7364
 3942TIP3    H233318   5.348   5.539   3.254  0.0224 -0.3459 -0.7603
 3943TIP3   OH233319   1.766   4.009  12.081 -0.1176  0.2571  0.0417
 3943TIP3    H133320   1.841   4.065  12.102 -1.2196  1.3020  1.2554
 3943TIP3    H233321   1.772   3.996  11.986 -0.0045  2.6599 -0.3092
 3944TIP3   OH233322   1.491   5.229   0.168  0.3221  0.4558 -0.1206
 3944TIP3    H133323   1.571   5.257   0.212  0.4488  0.0798 -0.1083
 3944TIP3    H233324   1.451   5.310   0.136 -1.2133  1.0732  3.0963
 3945TIP3   OH233325   3.753   3.530   3.694  0.2516  0.1511  0.1522
 3945TIP3    H133326   3.743   3.465   3.624  0.2651  0.4260 -0.1026
 3945TIP3    H233327   3.813   3.595   3.658 -0.4198  0.7435  0.0982
 3946TIP3   OH233328   5.301   6.686   0.354  0.2353 -0.3991 -0.2662
 3946TIP3    H133329   5.366   6.652   0.415 -2.1582  1.1742  3.3119
 3946TIP3    H233330   5.217   6.662   0.392 -1.3423  1.2314 -2.6049
 3947TIP3   OH233331   0.575   5.307   3.242 -0.5650 -0.0322  0.0393
 3947TIP3    H133332   0.613   5.227   3.204  0.0616 -0.2463  1.0875
 3947TIP3    H233333   0.566   5.366   3.168 -1.5987 -1.2812 -0.8682
 3948TIP3   OH233334   4.509   2.469  13.094 -0.1172 -0.1560 -0.2191
 3948TIP3    H133335   4.506   2.415  13.173 -0.1003 -0.4457 -0.4157
 3948TIP3    H233336   4.602   2.482  13.077 -0.1045 -0.8566 -0.7076
 3949TIP3   OH233337   1.304   0.132   2.346 -0.1966 -0.5789 -0.3140
 3949TIP3    H133338   1.392   0.108   2.317 -0.0174 -0.6215  0.2711
 3949TIP3    H233339   1.274   0.195   2.280  0.9208  0.7166  0.4081
 3950TIP3   OH233340   4.057   5.047   3.456 -0.0524 -0.1417 -0.4466
 3950TIP3    H133341   3.969   5.084   3.447 -0.4320 -0.3622  2.0514
 3950TIP3    H233342   4.056   5.004   3.541  2.2973 -0.7057 -0.6737
 3951TIP3   OH233343   2.616   4.471   4.590  0.4933  0.1106 -0.3349
 3951TIP3    H133344   2.623   4.436   4.501  1.6398  1.1017 -0.6452
 3951TIP3    H233345   2.535   4.523   4.589  0.4908  0.0996 -0.7995
 3952TIP3   OH233346   2.007   4.751  11.616  0.0221  0.0070 -0.4456
 3952TIP3    H133347   2.072   4.767  11.685  0.9601 -0.7188 -1.1504
 3952TIP3    H233348   2.047   4.788  11.537 -1.2945  1.3484 -0.5041
 3953TIP3   OH233349   0.489   4.157   3.734 -0.1323 -0.0348 -0.0436
 3953TIP3    H133350   0.486   4.250   3.753  0.8914 -0.1975  0.9606
 3953TIP3    H233351   0.582   4.137   3.725 -0.2840 -1.1167  0.6433
 3954TIP3   OH233352   2.485   1.718   1.589 -0.1852  0.3055  0.1229
 3954TIP3    H133353   2.487   1.814   1.593  0.3611  0.2898  0.2626
 3954TIP3    H233354   2.531   1.690   1.668  3.3474 -0.0590 -1.9563
 3955TIP3   OH233355   6.512   1.347  15.763  0.0974  0.0906  0.3793
 3955TIP3    H133356   6.488   1.422  15.708  1.1730  0.5922  0.5890
 3955TIP3    H233357   6.433   1.329  15.814 -0.4402  0.5374 -0.2731
 3956TIP3   OH233358   2.954   5.941   6.301  0.3078 -0.0704  0.1329
 3956TIP3    H133359   2.896   5.922   6.375  1.7045 -3.6329  0.3857
 3956TIP3    H233360   3.041   5.948   6.340  0.7707  0.0680 -0.9100
 3957TIP3   OH233361   0.552   6.255   2.647 -0.2075 -0.0410 -0.4186
 3957TIP3    H133362   0.474   6.303   2.619  0.2458  0.5574 -0.6361
 3957TIP3    H233363   0.519   6.166   2.664 -0.6223 -0.2259 -2.0935
 3958TIP3   OH233364   3.187   5.405   4.969 -0.6833 -0.6012  0.6322
 3958TIP3    H133365   3.127   5.337   5.002 -3.7832  1.4277 -0.5909
 3958TIP3    H233366   3.130   5.477   4.944  2.0493  0.4452 -3.0834
 3959TIP3   OH233367   6.537   4.090  15.239  0.1120  0.2947 -0.0520
 3959TIP3    H133368   6.588   4.089  15.320 -0.7238  0.8841  0.4835
 3959TIP3    H233369   6.512   4.181  15.228 -1.3332 -0.0922 -0.0066
 3960TIP3   OH233370   4.845   6.720  15.403  0.1940 -0.2797  0.1787
 3960TIP3    H133371   4.877   6.690  15.488  2.4678 -0.3330 -0.6790
 3960TIP3    H233372   4.783   6.789  15.424 -2.1355 -2.8213  2.0286
 3961TIP3   OH233373   0.932   3.354  17.035 -0.2132 -0.0041  0.5673
 3961TIP3    H133374   0.918   3.446  17.061 -1.2437  0.3774 -1.2389
 3961TIP3    H233375   0.845   3.323  17.009  0.6516 -0.4710 -1.9739
 3962TIP3   OH233376   4.019   4.542  15.737 -0.3430 -0.1482  0.1730
 3962TIP3    H133377   4.110   4.552  15.708 -0.4481 -0.0925 -0.1326
 3962TIP3    H233378   3.975   4.499  15.665 -0.8795  1.0945 -0.2493
 3963TIP3   OH233379   1.044   6.464   3.676 -0.7974  0.3628  0.8069
 3963TIP3    H133380   1.064   6.400   3.608 -0.0205  1.4548  0.0013
 3963TIP3    H233381   0.949   6.455   3.690 -1.0119  0.3439 -0.6186
 3964TIP3   OH233382   5.394   2.843  11.896 -0.1539 -0.3992  0.3971
 3964TIP3    H133383   5.299   2.853  11.893 -0.2153 -0.7125  1.3008
 3964TIP3    H233384   5.428   2.932  11.906 -0.3812 -0.3532  0.7484
 3965TIP3   OH233385   5.272   0.011  17.179 -0.2112 -0.7597  0.2784
 3965TIP3    H133386   5.324   0.041  17.253 -0.2376 -0.7138  0.2770
 3965TIP3    H233387   5.259  -0.082  17.194  1.3586 -1.1384 -0.6037
 3966TIP3   OH233388   4.721   6.016  13.897 -0.2853  0.6816 -0.1831
 3966TIP3    H133389   4.719   5.941  13.838  2.0817  0.7183 -0.3810
 3966TIP3    H233390   4.782   6.078  13.855 -1.8051  2.5087  0.2224
 3967TIP3   OH233391   3.798   6.171   4.199 -0.2800 -0.0093  0.6386
 3967TIP3    H133392   3.863   6.202   4.261  0.2274 -0.9540  0.5827
 3967TIP3    H233393   3.737   6.120   4.251  0.0046 -0.5913  0.4048
 3968TIP3   OH233394   2.313   2.170   6.118 -0.0716  0.2225 -0.4064
 3968TIP3    H133395   2.369   2.142   6.191 -0.0452  0.9932 -0.1161
 3968TIP3    H233396   2.236   2.113   6.123  0.9206 -1.2009 -1.1357
 3969TIP3   OH233397   4.374   3.566   0.243 -0.4436  0.4354  0.1720
 3969TIP3    H133398   4.442   3.582   0.308  0.1351  1.7663 -0.7528
 3969TIP3    H233399   4.418   3.521   0.172 -0.2352  2.4442 -0.9906
 3970TIP3   OH233400   6.252   0.846   0.098  0.2252  0.4697 -0.5911
 3970TIP3    H133401   6.321   0.868   0.035  1.3493 -0.2296  0.3702
 3970TIP3    H233402   6.295   0.855   0.183 -0.7797 -0.3174  0.0025
 3971TIP3   OH233403   0.725   6.263   1.967 -0.1038  0.0036  0.0331
 3971TIP3    H133404   0.796   6.327   1.974 -0.6002  0.5026  0.5604
 3971TIP3    H233405   0.762   6.182   2.001 -0.0383  0.4659  1.0607
 3972TIP3   OH233406   2.643   0.831  13.087 -0.6168 -0.0914 -0.3300
 3972TIP3    H133407   2.654   0.924  13.104 -1.7800  0.2455 -1.4559
 3972TIP3    H233408   2.720   0.807  13.035 -2.4540  1.1706 -3.7282
 3973TIP3   OH233409   3.060   5.110  12.726  0.2544  0.1289 -0.0381
 3973TIP3    H133410   2.991   5.122  12.792 -1.7077 -0.7038 -1.9147
 3973TIP3    H233411   3.014   5.097  12.644  2.6376 -2.3945 -1.0436
 3974TIP3   OH233412   6.674   2.275   5.543  0.2543  0.2183  0.1608
 3974TIP3    H133413   6.679   2.189   5.584  0.4900 -0.8977 -2.1278
 3974TIP3    H233414   6.607   2.265   5.475 -1.0517  2.3721  1.0728
 3975TIP3   OH233415   6.208   3.583  11.223 -0.7259  0.0481  0.1517
 3975TIP3    H133416   6.204   3.558  11.315 -2.3997  1.9847  0.6243
 3975TIP3    H233417   6.124   3.556  11.187  0.0098 -0.9107 -0.8901
 3976TIP3   OH233418   0.314   5.865  15.744  0.5786  0.2717 -0.4753
 3976TIP3    H133419   0.368   5.920  15.801 -0.1387  0.2994  0.1905
 3976TIP3    H233420   0.305   5.916  15.663  1.8692  0.0933 -0.7537
 3977TIP3   OH233421   3.460   6.003   2.541 -0.5243  0.1222  0.1545
 3977TIP3    H133422   3.408   6.037   2.614 -0.5264 -0.9671  0.6739
 3977TIP3    H233423   3.550   6.025   2.563 -0.5880  0.3853  0.1530
 3978TIP3   OH233424   4.632   4.713   0.275 -0.0938  0.3064 -0.3743
 3978TIP3    H133425   4.632   4.628   0.231  1.4313 -0.2916  0.7069
 3978TIP3    H233426   4.684   4.769   0.218  0.5730 -0.0439 -0.1229
 3979TIP3   OH233427   6.098   1.616   6.258  0.5614  0.4466 -0.0589
 3979TIP3    H133428   6.066   1.529   6.234 -1.3329  1.2621 -0.6046
 3979TIP3    H233429   6.049   1.638   6.337  1.4485  0.7849  0.3978
 3980TIP3   OH233430   1.436   1.797   2.440  0.0983  0.3036  0.0123
 3980TIP3    H133431   1.488   1.765   2.367  0.3601  0.8327 -0.0368
 3980TIP3    H233432   1.494   1.858   2.486 -0.2249  0.3340  0.3866
 3981TIP3   OH233433   4.010   5.880  14.131 -0.3819  0.3249 -0.0957
 3981TIP3    H133434   4.085   5.939  14.124 -0.7487  0.8380  0.3018
 3981TIP3    H233435   3.978   5.871  14.041 -0.3620  0.7864 -0.1496
 3982TIP3   OH233436   3.868   3.649   2.460  0.3382  0.0078  0.1198
 3982TIP3    H133437   3.849   3.574   2.403  0.1083 -0.3053  0.6084
 3982TIP3    H233438   3.873   3.723   2.400  0.0760 -0.3167 -0.3113
 3983TIP3   OH233439   5.599   2.394   5.857 -0.0912 -0.2960  0.2488
 3983TIP3    H133440   5.623   2.486   5.856  0.4142 -0.4262 -0.9224
 3983TIP3    H233441   5.545   2.384   5.935  0.3496  0.8579  0.7172
 3984TIP3   OH233442   1.764   5.270  10.561 -0.1470 -0.0900 -0.6273
 3984TIP3    H133443   1.838   5.278  10.501 -0.3595 -1.3299 -1.0654
 3984TIP3    H233444   1.803   5.244  10.644  0.0972  1.1329 -0.3557
 3985TIP3   OH233445   6.017   6.508   5.601  1.0018  0.0784  0.2700
 3985TIP3    H133446   6.054   6.587   5.562 -1.0922  0.5821 -0.7156
 3985TIP3    H233447   6.083   6.441   5.584  1.8260  1.1208 -0.7842
 3986TIP3   OH233448   1.181   0.811   0.298 -0.6536  0.2161 -0.1922
 3986TIP3    H133449   1.270   0.843   0.285 -0.8083  0.2941 -1.0628
 3986TIP3    H233450   1.159   0.765   0.217 -1.2940 -0.0674  0.1345
 3987TIP3   OH233451   6.187   0.377   0.485  0.0892 -0.1764 -0.4767
 3987TIP3    H133452   6.129   0.447   0.516 -1.1786 -1.4541  0.0881
 3987TIP3    H233453   6.136   0.297   0.496  2.1013 -1.3766  0.3653
 3988TIP3   OH233454   1.769   2.972   3.589 -0.3833  0.5128 -0.3894
 3988TIP3    H133455   1.857   2.949   3.620 -0.5333  0.9370  0.3562
 3988TIP3    H233456   1.762   3.066   3.604 -1.3651  0.2961  0.5379
 3989TIP3   OH233457   4.958   2.945  12.536 -0.2137 -0.1545 -0.2324
 3989TIP3    H133458   4.997   3.005  12.473  4.0144 -2.0575  0.3999
 3989TIP3    H233459   4.978   2.858  12.502  1.7977 -1.2196  3.3942
 3990TIP3   OH233460   0.360   3.305  16.910  0.0132 -0.4245  0.3977
 3990TIP3    H133461   0.347   3.328  16.818  0.6123  0.9609  0.6581
 3990TIP3    H233462   0.316   3.374  16.959  0.3026 -0.7787  1.1659
 3991TIP3   OH233463   5.425   3.566   1.308 -0.4290  0.6095 -0.0173
 3991TIP3    H133464   5.359   3.567   1.377 -1.5749  1.9019 -1.1040
 3991TIP3    H233465   5.428   3.656   1.275  0.9016  0.2640 -0.9072
 3992TIP3   OH233466   2.634   2.711  12.967 -0.1914  0.4841  0.7446
 3992TIP3    H133467   2.602   2.799  12.987  0.5218  0.5933  1.4505
 3992TIP3    H233468   2.555   2.657  12.962 -0.5898  1.0474  0.9344
 3993TIP3   OH233469   6.343   4.943   0.013  0.3122  0.0649 -0.3569
 3993TIP3    H133470   6.266   4.886   0.015 -1.3061  2.1723 -0.5412
 3993TIP3    H233471   6.351   4.976   0.103  1.1923 -0.3887 -0.2647
 3994TIP3   OH233472   3.892   5.624  11.634 -0.1971  0.4491  0.2737
 3994TIP3    H133473   3.944   5.635  11.555 -0.1731  0.3902  0.2810
 3994TIP3    H233474   3.945   5.661  11.704 -1.1622  2.5564 -0.0702
 3995TIP3   OH233475   6.040   4.265  11.130  0.0636 -0.1085 -0.1044
 3995TIP3    H133476   6.091   4.273  11.049  0.5381 -0.8676  0.1181
 3995TIP3    H233477   5.967   4.326  11.118 -1.3161 -2.1108 -2.2246
 3996TIP3   OH233478   0.029   5.496  11.974 -0.0475  0.3046 -0.3019
 3996TIP3    H133479  -0.007   5.512  11.887 -1.4265 -1.4899 -0.0920
 3996TIP3    H233480   0.023   5.401  11.985  4.1910 -0.0328  0.0045
 3997TIP3   OH233481   1.453   0.056  16.350  0.1148  0.0968  0.9582
 3997TIP3    H133482   1.425  -0.026  16.391  1.2428  0.2344  2.0278
 3997TIP3    H233483   1.522   0.090  16.407  1.1456  0.7291 -0.6142
 3998TIP3   OH233484   4.126   3.074   4.521  0.2666 -0.3705 -0.6537
 3998TIP3    H133485   4.090   2.988   4.542  1.9377 -1.4202 -1.9217
 3998TIP3    H233486   4.197   3.086   4.585  0.4669 -0.2408 -0.8998
 3999TIP3   OH233487   0.386   4.716   5.809 -0.1428  0.3358  0.0979
 3999TIP3    H133488   0.373   4.804   5.773  1.4598  0.3453 -0.4763
 3999TIP3    H233489   0.385   4.658   5.733 -0.9905 -0.1462  0.4572
 4000TIP3   OH233490   6.797   2.175  16.290  0.3473  0.8058 -0.2900
 4000TIP3    H133491   6.876   2.200  16.242  1.3533 -0.1668  0.8114
 4000TIP3    H233492   6.738   2.140  16.223  1.6283 -0.2721 -0.8743
 4001TIP3   OH233493   5.042   6.569   3.375  0.0814  0.2769  0.5441
 4001TIP3    H133494   5.002   6.534   3.295 -1.6501  2.5623  0.3494
 4001TIP3    H233495   5.042   6.495   3.436 -2.2238 -0.4627 -0.2823
 4002TIP3   OH233496   6.501   6.335   5.458  0.5249  0.3232 -0.1984
 4002TIP3    H133497   6.423   6.300   5.502  0.1444 -0.8187 -1.7325
 4002TIP3    H233498   6.473   6.421   5.426  0.0489  0.1379 -0.2947
 4003TIP3   OH233499   0.191   5.278  15.422  0.1240  0.1046  0.0808
 4003TIP3    H133500   0.166   5.337  15.493  0.2255 -1.0950  1.1406
 4003TIP3    H233501   0.267   5.320  15.381 -0.8599  1.5392 -0.2767
 4004TIP3   OH233502   4.998   1.277   2.703 -0.2439  0.5474  0.1346
 4004TIP3    H133503   5.034   1.203   2.653 -1.7596 -0.2277  0.1420
 4004TIP3    H233504   4.961   1.335   2.637  1.7715  1.7616  0.0713
 4005TIP3   OH233505   2.537   5.512  12.824  0.3221  0.2218  0.5607
 4005TIP3    H133506   2.494   5.494  12.740 -0.1642 -0.2401  0.9123
 4005TIP3    H233507   2.466   5.518  12.887  0.7650 -0.5074  1.1344
 4006TIP3   OH233508   4.818   0.955  12.771 -0.0700 -0.0629  0.6120
 4006TIP3    H133509   4.770   0.954  12.853  0.4634  1.1947  0.9646
 4006TIP3    H233510   4.761   0.911  12.708  0.2074 -2.4861  2.0173
 4007TIP3   OH233511   6.100   0.925   1.568 -0.2401  0.4716 -0.0032
 4007TIP3    H133512   6.013   0.921   1.608  0.3491  1.5244  1.4127
 4007TIP3    H233513   6.161   0.931   1.642  1.2153 -2.5555 -0.8764
 4008TIP3   OH233514   2.856   6.160  15.859 -0.3632  0.5952  0.6281
 4008TIP3    H133515   2.839   6.199  15.773  0.0303 -0.2538  0.1541
 4008TIP3    H233516   2.948   6.133  15.856 -0.2575  0.8365  1.4327
 4009TIP3   OH233517   1.138   1.733   2.394  0.2035 -0.1709 -0.3854
 4009TIP3    H133518   1.135   1.643   2.360 -0.5678 -0.4081  0.2960
 4009TIP3    H233519   1.178   1.784   2.323 -4.9687  0.0952 -3.3167
 4010TIP3   OH233520   0.804   2.405  14.420 -0.2612 -0.1700  0.0526
 4010TIP3    H133521   0.840   2.415  14.332  2.4055 -0.0955  1.1007
 4010TIP3    H233522   0.878   2.377  14.474 -1.8246 -0.1918  2.2895
 4011TIP3   OH233523   0.321   2.006  13.518 -0.3862 -0.0673  0.0852
 4011TIP3    H133524   0.283   1.952  13.587  1.6918 -0.4434  0.9789
 4011TIP3    H233525   0.279   1.976  13.438  1.3109 -3.6255  0.4412
 4012TIP3   OH233526   4.634   0.875   2.214 -0.2088 -0.6503  0.3177
 4012TIP3    H133527   4.559   0.843   2.164  1.3728 -1.2153 -1.7634
 4012TIP3    H233528   4.607   0.961   2.246 -0.9434  0.1479 -2.3331
 4013TIP3   OH233529   5.270   1.836  11.527 -0.2504 -0.1388 -0.6598
 4013TIP3    H133530   5.182   1.872  11.543 -1.1892 -2.3831 -0.6192
 4013TIP3    H233531   5.272   1.755  11.578  1.9177 -0.0426 -0.5612
 4014TIP3   OH233532   4.052   0.088   6.519  0.6089  0.0567  0.3376
 4014TIP3    H133533   3.985   0.042   6.469  0.2541  0.0381  0.8230
 4014TIP3    H233534   4.050   0.177   6.484 -0.1126  0.2220  0.7709
 4015TIP3   OH233535   0.156   1.602  10.923 -0.3870  0.5555  0.2085
 4015TIP3    H133536   0.219   1.614  10.852 -0.6284 -1.7113 -0.4311
 4015TIP3    H233537   0.077   1.569  10.880 -0.2861 -1.5688  1.5808
 4016TIP3   OH233538   5.632   5.170  17.083 -0.2459 -0.3153  0.1475
 4016TIP3    H133539   5.643   5.123  17.166  1.1785 -0.4818 -0.1157
 4016TIP3    H233540   5.539   5.161  17.063 -0.5812 -0.3658  1.6691
 4017TIP3   OH233541   4.767   3.800   3.473 -0.6505  0.2259 -0.3547
 4017TIP3    H133542   4.861   3.785   3.468 -0.7304 -1.1956  1.8097
 4017TIP3    H233543   4.758   3.872   3.536 -0.8927  2.4256 -2.7856
 4018TIP3   OH233544   4.812   4.238   0.055 -0.4272 -0.4239  0.0509
 4018TIP3    H133545   4.732   4.279   0.024 -0.2058 -0.4042 -0.5098
 4018TIP3    H233546   4.881   4.303   0.038  0.2097 -1.7078 -2.5769
 4019TIP3   OH233547   1.527   6.096  14.363 -0.2184 -0.1922  0.0413
 4019TIP3    H133548   1.466   6.084  14.291  0.6162 -0.0481 -0.7052
 4019TIP3    H233549   1.614   6.089  14.323  0.2661 -0.8704  1.1633
 4020TIP3   OH233550   5.621   0.868  15.088  0.2893  0.4795  0.1630
 4020TIP3    H133551   5.570   0.794  15.056  1.6802 -0.1913 -0.5222
 4020TIP3    H233552   5.711   0.836  15.090  0.7736  1.8507  0.7731
 4021TIP3   OH233553   1.080   0.953   0.777 -0.2771  0.4012 -0.3576
 4021TIP3    H133554   1.024   0.967   0.700 -0.6900 -0.4628 -0.2284
 4021TIP3    H233555   1.052   1.019   0.840  0.6995  1.7118 -1.2942
 4022TIP3   OH233556   4.613   4.491  16.853 -0.5418 -0.4256 -0.3979
 4022TIP3    H133557   4.578   4.463  16.768  0.5767 -0.4805 -0.8486
 4022TIP3    H233558   4.652   4.412  16.890  0.1681 -0.0940 -0.4365
 4023TIP3   OH233559   4.358   3.096  15.291 -0.5079  0.2894  0.1515
 4023TIP3    H133560   4.362   3.128  15.201 -0.2305  0.4180  0.2089
 4023TIP3    H233561   4.293   3.151  15.334  0.1494  0.9410  0.3169
 4024TIP3   OH233562   4.965   1.950  16.603  0.4326 -0.4033  0.5156
 4024TIP3    H133563   5.051   1.918  16.575  0.5944  0.2529  0.2510
 4024TIP3    H233564   4.979   1.983  16.691  0.8606  1.3008 -0.1604
 4025TIP3   OH233565   1.447   4.197  15.075 -0.2012  0.1230 -0.2813
 4025TIP3    H133566   1.470   4.283  15.111  1.6288 -0.4158 -0.1554
 4025TIP3    H233567   1.373   4.215  15.017 -1.7512  1.3591  1.9686
 4026TIP3   OH233568   4.129   4.597   3.306  0.4492  0.1623  0.9217
 4026TIP3    H133569   4.210   4.591   3.255  0.4556 -0.7399  1.0282
 4026TIP3    H233570   4.110   4.691   3.311  1.0490  0.3237  0.2027
 4027TIP3   OH233571   1.607   1.978  10.603 -0.1400 -0.0540  0.6062
 4027TIP3    H133572   1.541   1.911  10.620 -0.4356  0.2154  0.5367
 4027TIP3    H233573   1.585   2.049  10.663 -0.7926  0.6285 -0.4189
 4028TIP3   OH233574   3.320   0.802   3.561  0.1619  0.8741  0.3743
 4028TIP3    H133575   3.289   0.891   3.579 -0.5898  1.1389 -2.0991
 4028TIP3    H233576   3.251   0.746   3.597  0.5316  1.2598  1.7456
 4029TIP3   OH233577   0.243   0.180   2.419 -0.1484 -0.2693 -0.1088
 4029TIP3    H133578   0.257   0.261   2.467 -0.5669 -0.8406  0.9806
 4029TIP3    H233579   0.215   0.116   2.485  0.3730 -1.3612 -0.9135
 4030TIP3   OH233580   2.662   2.008  16.462 -0.2437  0.4027 -0.4769
 4030TIP3    H133581   2.687   2.098  16.439 -2.0135  0.9201 -0.5081
 4030TIP3    H233582   2.587   1.990  16.405 -0.1514 -0.9502 -0.1666
 4031TIP3   OH233583   0.006   6.399  14.545  0.3096 -0.0177 -0.0132
 4031TIP3    H133584   0.093   6.359  14.540  0.0727 -0.5516  0.1074
 4031TIP3    H233585  -0.003   6.426  14.636  0.0058 -0.7331  0.1657
 4032TIP3   OH233586   1.955   5.414  13.927  0.1154 -0.5573  0.3185
 4032TIP3    H133587   1.922   5.408  14.017 -0.2595 -0.9483  0.1630
 4032TIP3    H233588   1.986   5.325  13.907  3.6692  0.4102  1.3472
 4033TIP3   OH233589   0.880   1.691  10.620  0.2175 -0.0578  0.0347
 4033TIP3    H133590   0.912   1.696  10.530 -1.3196 -1.9765 -0.6408
 4033TIP3    H233591   0.791   1.726  10.616  0.2029  0.0108  0.8581
 4034TIP3   OH233592   4.889   5.963   0.111 -0.4907  0.2059 -0.1748
 4034TIP3    H133593   4.841   5.997   0.186  1.9215  0.8065  1.1641
 4034TIP3    H233594   4.975   6.005   0.117  0.7685 -2.0605 -1.5282
 4035TIP3   OH233595   5.441   0.323   5.849  0.3450 -0.2080 -0.5549
 4035TIP3    H133596   5.437   0.290   5.938 -0.2115  0.2468 -0.4099
 4035TIP3    H233597   5.352   0.353   5.830  0.3712 -0.6244 -1.3863
 4036TIP3   OH233598   1.918   2.250  15.325  0.3438  0.5902  0.9209
 4036TIP3    H133599   1.827   2.249  15.296  0.1632  0.3849  1.4866
 4036TIP3    H233600   1.937   2.343  15.339  0.5820  0.7291 -0.3121
 4037TIP3   OH233601   2.033   3.634  12.082  0.1055  0.1860 -0.2824
 4037TIP3    H133602   2.099   3.636  12.151  0.6927  1.1772 -0.8626
 4037TIP3    H233603   1.954   3.602  12.126  0.9930 -1.1417  0.3837
 4038TIP3   OH233604   4.437   6.045   5.200 -0.3182  0.3997  0.3049
 4038TIP3    H133605   4.388   6.004   5.130 -1.6169  3.6676 -0.8101
 4038TIP3    H233606   4.521   5.999   5.201 -0.8890 -0.7728 -2.2938
 4039TIP3   OH233607   0.849   5.042  13.597 -0.0924 -0.2028 -0.4540
 4039TIP3    H133608   0.889   5.116  13.553  0.3495 -0.9142 -1.2628
 4039TIP3    H233609   0.756   5.064  13.603  0.5170  1.9550  2.3885
 4040TIP3   OH233610   0.989   4.663  14.905 -0.2757 -0.1259  0.1540
 4040TIP3    H133611   1.011   4.676  14.998 -1.8182  1.5568  0.3187
 4040TIP3    H233612   0.899   4.630  14.906 -0.7461  1.0759 -0.7617
 4041TIP3   OH233613   0.129   0.084   2.650 -0.2683  0.3316 -0.1453
 4041TIP3    H133614   0.033   0.087   2.641 -0.2581 -0.0344 -0.4058
 4041TIP3    H233615   0.146   0.118   2.737 -0.7789 -1.4779  0.6765
 4042TIP3   OH233616   0.262   1.530   5.715 -0.6536  0.2570  0.0688
 4042TIP3    H133617   0.227   1.442   5.731 -1.4022  1.0036  2.6641
 4042TIP3    H233618   0.184   1.584   5.702 -0.2102  0.7303 -0.6616
 4043TIP3   OH233619   6.429   4.378  16.865 -0.5226  0.1823  0.3693
 4043TIP3    H133620   6.403   4.467  16.887  0.2224  0.2163  1.1399
 4043TIP3    H233621   6.396   4.325  16.937  2.1643  0.3279  1.7697
 4044TIP3   OH233622   6.422   3.335  11.327 -0.2868 -0.1877  0.3100
 4044TIP3    H133623   6.511   3.330  11.362 -0.3793  2.0328  0.9020
 4044TIP3    H233624   6.428   3.394  11.252 -1.1870 -0.3440  0.1092
 4045TIP3   OH233625   6.536   2.520   3.862  0.1685 -0.3079 -0.4480
 4045TIP3    H133626   6.516   2.496   3.952  1.6316 -0.0869 -0.0467
 4045TIP3    H233627   6.462   2.572   3.833  0.5565  1.2260  1.2666
 4046TIP3   OH233628   2.402   2.768  15.347 -0.3228  0.2712  1.0382
 4046TIP3    H133629   2.481   2.819  15.369 -0.3861  0.7041  0.2903
 4046TIP3    H233630   2.419   2.681  15.381  0.3371  0.4622  1.2017
 4047TIP3   OH233631   2.921   2.390   3.396  0.0841 -0.0655 -0.8931
 4047TIP3    H133632   2.927   2.372   3.302 -1.1327  0.9760 -1.1712
 4047TIP3    H233633   3.010   2.416   3.421  0.7110 -1.5565 -1.4845
 4048TIP3   OH233634   5.581   2.830  13.624  0.3589  0.3593 -0.0695
 4048TIP3    H133635   5.501   2.858  13.669 -0.6948  1.3530 -2.4512
 4048TIP3    H233636   5.651   2.847  13.687 -1.0368  1.8059  1.1597
 4049TIP3   OH233637   0.716   3.210  14.283  0.1686  0.2122  0.0451
 4049TIP3    H133638   0.697   3.137  14.224 -0.9994 -0.3869  1.1440
 4049TIP3    H233639   0.807   3.232  14.265  0.1918 -0.7716 -1.1087
 4050TIP3   OH233640   3.921   6.021  14.366  0.2252 -0.6244  0.8709
 4050TIP3    H133641   3.917   6.113  14.343 -0.6782 -0.7847  0.4034
 4050TIP3    H233642   3.972   5.981  14.296  1.7195 -0.2774  1.7274
 4051TIP3   OH233643   1.782   2.465  13.496  0.3076 -0.7236 -0.8477
 4051TIP3    H133644   1.690   2.447  13.518  0.8022 -0.9609  1.1512
 4051TIP3    H233645   1.829   2.387  13.525  1.2050 -0.4397 -1.5093
 4052TIP3   OH233646   4.314   1.705  13.604  0.2604  0.0188  0.2624
 4052TIP3    H133647   4.221   1.717  13.623  0.5856  2.6923  0.3915
 4052TIP3    H233648   4.352   1.792  13.618  2.7173 -0.9647 -0.1357
 4053TIP3   OH233649   3.113   4.773  15.972  0.6948 -0.0601 -0.0034
 4053TIP3    H133650   3.068   4.855  15.953 -1.4331 -1.1958  0.0320
 4053TIP3    H233651   3.193   4.800  16.018  0.8440  2.0679 -1.4400
 4054TIP3   OH233652   6.661   1.850  15.305  0.0155  0.3139  0.8925
 4054TIP3    H133653   6.752   1.860  15.334  0.3747  1.6404 -0.5853
 4054TIP3    H233654   6.623   1.787  15.366  2.3564 -1.4601  0.6303
 4055TIP3   OH233655   0.837   5.477   0.264  0.1139  0.0430  0.0634
 4055TIP3    H133656   0.853   5.392   0.306 -0.5221  0.4524  1.1496
 4055TIP3    H233657   0.744   5.494   0.279  0.9025  2.4704  2.7776
 4056TIP3   OH233658   0.887   5.990  12.312  0.9713 -0.1263 -0.6418
 4056TIP3    H133659   0.957   5.959  12.254  2.2724  2.2493 -0.4197
 4056TIP3    H233660   0.843   6.058  12.262 -0.6204 -0.9787 -0.4191
 4057TIP3   OH233661   1.700   1.452   3.464  0.7154  0.6964  0.2967
 4057TIP3    H133662   1.731   1.377   3.415  1.4181  2.7926 -2.6342
 4057TIP3    H233663   1.745   1.447   3.548  2.5997 -0.8355 -0.7696
 4058TIP3   OH233664   4.506   2.179   0.376 -0.1258  0.0770  0.0572
 4058TIP3    H133665   4.480   2.205   0.288 -0.7278 -0.3507  0.1033
 4058TIP3    H233666   4.485   2.085   0.381 -1.2790  0.3640  1.0739
 4059TIP3   OH233667   3.914   4.405   3.168  0.5620 -0.5864 -0.3939
 4059TIP3    H133668   3.976   4.467   3.208 -0.7884  1.8261 -1.9375
 4059TIP3    H233669   3.871   4.455   3.099 -2.9306 -2.2704  0.4569
 4060TIP3   OH233670   5.349   6.327  16.954 -0.4283  0.0703 -0.1029
 4060TIP3    H133671   5.301   6.394  16.905  0.1770  1.1737  0.7870
 4060TIP3    H233672   5.361   6.365  17.040 -1.2239 -1.7372  0.8340
 4061TIP3   OH233673   5.685   3.827  10.721  0.1301 -0.1936  0.3931
 4061TIP3    H133674   5.621   3.871  10.777 -0.2474 -0.7411  0.3967
 4061TIP3    H233675   5.767   3.875  10.736 -0.1217  0.0819  0.9104
 4062TIP3   OH233676   0.460   5.761  14.704  0.3682  0.8712 -0.5425
 4062TIP3    H133677   0.472   5.699  14.776  0.1791  0.6878 -0.6687
 4062TIP3    H233678   0.458   5.847  14.747  0.8384  0.8093 -0.3895
 4063TIP3   OH233679   2.502   5.834   0.977  0.2900  0.0440  1.4638
 4063TIP3    H133680   2.529   5.882   0.899 -1.4192 -1.5148 -0.1491
 4063TIP3    H233681   2.573   5.848   1.040  2.5673 -0.1511 -0.9834
 4064TIP3   OH233682   2.560   5.714   4.943 -0.3996 -0.0227 -0.2316
 4064TIP3    H133683   2.651   5.685   4.954  0.6172  2.8989 -0.6454
 4064TIP3    H233684   2.514   5.677   5.019  1.1600 -1.3539  0.0894
 4065TIP3   OH233685   3.841   0.278  17.202 -0.6906 -0.5847 -0.8628
 4065TIP3    H133686   3.886   0.356  17.170 -1.0231  0.1601  0.4315
 4065TIP3    H233687   3.776   0.312  17.264  0.3709 -1.9894  1.0880
 4066TIP3   OH233688   1.546   2.376   5.285  0.0064  1.0604 -0.2985
 4066TIP3    H133689   1.571   2.400   5.374 -1.6438  1.8452 -0.0329
 4066TIP3    H233690   1.528   2.282   5.290 -0.7665  1.2304  0.3838
 4067TIP3   OH233691   0.671   2.075   5.654 -0.0089 -0.0207 -0.4116
 4067TIP3    H133692   0.757   2.043   5.682 -0.2448 -0.8285 -0.6083
 4067TIP3    H233693   0.621   1.996   5.634 -1.2216  0.3840  0.9377
 4068TIP3   OH233694   2.805   6.111   1.767  0.1293 -0.1894  0.1402
 4068TIP3    H133695   2.885   6.058   1.764 -0.2379 -0.6700 -1.6616
 4068TIP3    H233696   2.737   6.050   1.797 -0.1191 -0.5353 -1.0938
 4069TIP3   OH233697   0.333   1.558   2.191  0.4707  0.9524  0.5096
 4069TIP3    H133698   0.382   1.640   2.201  0.8559  0.5169  2.5379
 4069TIP3    H233699   0.398   1.490   2.210 -0.2996  0.2653  0.6803
 4070TIP3   OH233700   2.182   0.734  16.811  0.1576  0.6552  0.1472
 4070TIP3    H133701   2.250   0.692  16.865  0.1397  1.2931  0.6764
 4070TIP3    H233702   2.226   0.757  16.730 -0.0035 -1.0121 -0.4309
 4071TIP3   OH233703   1.491   1.983   3.327 -0.5086 -0.2109 -0.0211
 4071TIP3    H133704   1.574   2.031   3.323  0.0567 -0.9228  2.1971
 4071TIP3    H233705   1.517   1.891   3.336 -1.5055 -0.4238  0.8726
 4072TIP3   OH233706   2.449   2.511  10.834  0.2496 -0.0529 -0.1141
 4072TIP3    H133707   2.480   2.433  10.788  0.7778 -0.0540  0.2408
 4072TIP3    H233708   2.355   2.513  10.817  0.3399 -0.4082 -0.6614
 4073TIP3   OH233709   0.428   2.123  16.514  0.6347  0.0323 -0.2968
 4073TIP3    H133710   0.359   2.160  16.569  0.2150 -1.2217  0.0266
 4073TIP3    H233711   0.485   2.197  16.493  0.3234  0.6750  1.1229
 4074TIP3   OH233712   5.989   2.122  10.775  0.3385  0.2472  0.2647
 4074TIP3    H133713   5.941   2.056  10.727  0.7365  0.3885 -0.3308
 4074TIP3    H233714   6.080   2.112  10.747  0.3188  1.3926 -0.2343
 4075TIP3   OH233715   5.058   3.620   0.734 -0.0563 -0.6227  0.7834
 4075TIP3    H133716   5.083   3.551   0.673  2.0072  0.1769  0.6982
 4075TIP3    H233717   5.020   3.573   0.808 -0.9244 -1.7019 -0.3300
 4076TIP3   OH233718   6.654   3.205   1.713 -0.0264 -0.1751  0.6083
 4076TIP3    H133719   6.713   3.268   1.753 -0.6568  1.1728 -0.5438
 4076TIP3    H233720   6.658   3.128   1.770  1.8658  0.3567  1.2221
 4077TIP3   OH233721   1.946   1.107  14.835  0.0946  0.0541  0.0731
 4077TIP3    H133722   1.898   1.025  14.825  0.8076 -0.6270  2.0199
 4077TIP3    H233723   1.902   1.169  14.776  0.1854 -1.9718 -2.1829
 4078TIP3   OH233724   1.912   0.234   5.881  0.6400  0.6401  0.0180
 4078TIP3    H133725   1.822   0.252   5.852  0.9991 -0.0620 -1.5711
 4078TIP3    H233726   1.913   0.139   5.896  1.4560  0.4716 -1.1313
 4079TIP3   OH233727   5.196   1.462   3.264 -0.1186  0.5493 -0.0855
 4079TIP3    H133728   5.148   1.379   3.256  2.0771 -0.8169  0.6828
 4079TIP3    H233729   5.161   1.502   3.343 -0.3336 -0.2046  0.2065
 4080TIP3   OH233730   5.420   0.689  14.428 -0.3137 -0.1423 -0.0064
 4080TIP3    H133731   5.406   0.638  14.347  0.8251 -0.7849  0.1888
 4080TIP3    H233732   5.515   0.695  14.436 -0.4286  0.1031  1.1807
 4081TIP3   OH233733   1.586   0.491  15.470  0.4077  0.0199 -0.2581
 4081TIP3    H133734   1.514   0.477  15.531 -0.8291  0.3377 -1.6192
 4081TIP3    H233735   1.548   0.544  15.399  2.3178  1.3697 -0.3231
 4082TIP3   OH233736   4.763   2.363  14.811 -0.3129  0.0594  0.2431
 4082TIP3    H133737   4.807   2.440  14.846 -0.0410 -0.6893  1.5510
 4082TIP3    H233738   4.691   2.346  14.872 -0.9589 -0.1593 -0.5642
 4083TIP3   OH233739   6.662   0.156  13.390  0.3105  0.2267 -0.0187
 4083TIP3    H133740   6.685   0.225  13.328  1.1357  0.3244  0.3931
 4083TIP3    H233741   6.740   0.145  13.444  0.8128 -2.2203 -1.1645
 4084TIP3   OH233742   1.202   1.590   6.759 -0.2381 -0.3444 -0.0151
 4084TIP3    H133743   1.287   1.563   6.793  0.5865  0.5043 -1.3643
 4084TIP3    H233744   1.189   1.536   6.681 -0.8594 -0.3427  0.0814
 4085TIP3   OH233745   0.668   1.231  11.287  0.2876 -0.2708 -0.5379
 4085TIP3    H133746   0.686   1.224  11.193 -0.0671  0.5205 -0.6663
 4085TIP3    H233747   0.577   1.260  11.291 -0.4325 -2.5124  0.0709
 4086TIP3   OH233748   0.673   2.879  14.057 -0.2630  0.0276  0.0474
 4086TIP3    H133749   0.765   2.871  14.082 -0.3549 -2.6996 -0.3218
 4086TIP3    H233750   0.671   2.951  13.994  1.4114  0.9229  0.9908
 4087TIP3   OH233751   3.169   0.665  11.597  0.0936 -0.2798  0.2190
 4087TIP3    H133752   3.174   0.676  11.502 -3.2477  1.9184  0.2394
 4087TIP3    H233753   3.220   0.586  11.614 -1.2894 -2.1452 -3.6828
 4088TIP3   OH233754   0.652   2.842   3.983  0.0896 -0.1498  0.0541
 4088TIP3    H133755   0.644   2.779   3.911  1.4864  1.5773 -1.6746
 4088TIP3    H233756   0.562   2.859   4.011 -0.5199 -0.3138 -1.7688
 4089TIP3   OH233757   4.921   1.722  13.133 -0.4447  0.1923  0.4508
 4089TIP3    H133758   4.859   1.650  13.127 -1.5636  1.1663  0.0299
 4089TIP3    H233759   4.889   1.774  13.207  0.5375  0.0936  0.9566
 4090TIP3   OH233760   6.517   2.403  14.731 -0.3753  0.0418 -0.1835
 4090TIP3    H133761   6.596   2.396  14.678  0.2299 -0.2518  0.7560
 4090TIP3    H233762   6.491   2.313  14.748 -2.0297  0.1025 -2.1090
 4091TIP3   OH233763   2.016   5.305  15.813  0.2075  0.0531  0.4323
 4091TIP3    H133764   1.948   5.330  15.876  0.1104  0.9661 -0.0282
 4091TIP3    H233765   2.030   5.384  15.761  0.4869 -0.6150 -0.5073
 4092TIP3   OH233766   1.836   0.062   0.287 -0.8392  0.0121 -0.1191
 4092TIP3    H133767   1.882   0.012   0.355  0.1580  1.4541  0.3035
 4092TIP3    H233768   1.866   0.152   0.299 -1.0493  0.3845 -2.1514
 4093TIP3   OH233769   4.194   5.806  12.386 -0.2698  1.1023  0.2889
 4093TIP3    H133770   4.124   5.746  12.411 -0.3550  1.5741  1.2102
 4093TIP3    H233771   4.173   5.832  12.297 -0.1182 -0.3917 -0.2056
 4094TIP3   OH233772   4.288   3.377   1.337  0.5365 -0.1046  0.2650
 4094TIP3    H133773   4.243   3.292   1.338  0.8934 -0.3370 -1.7865
 4094TIP3    H233774   4.222   3.439   1.369  0.0130 -1.0219  1.0137
 4095TIP3   OH233775   6.510   6.729   6.228 -0.2712 -0.0999  0.2594
 4095TIP3    H133776   6.421   6.762   6.242 -0.6111 -1.3382  1.1987
 4095TIP3    H233777   6.499   6.633   6.228  1.1326 -0.2702  0.9872
 4096TIP3   OH233778   3.040   3.284  15.075 -0.1227  0.0164  0.2565
 4096TIP3    H133779   3.030   3.336  14.995  1.4671  0.1200  0.1223
 4096TIP3    H233780   3.125   3.310  15.110  1.1092 -3.1571 -0.2803
 4097TIP3   OH233781   1.472   0.160  15.548 -0.2941  0.2011  0.1132
 4097TIP3    H133782   1.562   0.180  15.574 -0.3104 -0.8255  0.9852
 4097TIP3    H233783   1.418   0.196  15.618 -0.4187 -1.3293  0.8114
 4098TIP3   OH233784   1.233   3.269  16.118 -0.4758  0.3293  0.0145
 4098TIP3    H133785   1.286   3.264  16.039  3.5067  0.4046  2.5504
 4098TIP3    H233786   1.206   3.179  16.135  2.6012 -0.4538  1.0599
 4099TIP3   OH233787   0.225   3.323  11.440 -0.2735 -0.3795  0.1687
 4099TIP3    H133788   0.267   3.382  11.502  1.4017 -1.3560  0.0051
 4099TIP3    H233789   0.166   3.270  11.493 -1.7256  1.3445  0.3243
 4100TIP3   OH233790   4.677   5.184  16.284 -0.0556  0.0994  0.8340
 4100TIP3    H133791   4.615   5.242  16.329  2.0244  3.1071  0.0124
 4100TIP3    H233792   4.741   5.244  16.246  0.7990 -2.6330 -2.2260
 4101TIP3   OH233793   2.876   4.751   2.669  0.2583 -0.0620  0.2528
 4101TIP3    H133794   2.802   4.727   2.725 -0.6677 -0.0202 -0.9251
 4101TIP3    H233795   2.895   4.671   2.620  0.1688  0.2820 -0.3482
 4102TIP3   OH233796   5.544   5.975   1.187 -1.0409  0.3710 -0.2616
 4102TIP3    H133797   5.613   5.982   1.254 -0.9726 -0.1126 -0.2787
 4102TIP3    H233798   5.545   6.059   1.142 -1.3775  0.8672  0.6347
 4103TIP3   OH233799   1.419   3.219   2.443 -0.7367 -0.1375 -0.3872
 4103TIP3    H133800   1.392   3.128   2.455 -1.8504  0.1794 -0.4959
 4103TIP3    H233801   1.457   3.221   2.355  0.0751 -0.6781 -0.0596
 4104TIP3   OH233802   1.514   6.591  15.961  0.4158  0.1645 -0.3275
 4104TIP3    H133803   1.600   6.552  15.979  1.4530  2.4503 -0.1627
 4104TIP3    H233804   1.453   6.518  15.967  2.1938 -1.2690  0.8526
 4105TIP3   OH233805   3.886   6.050  16.214 -0.3554 -0.5123 -0.0090
 4105TIP3    H133806   3.974   6.066  16.249 -0.0080 -1.3177 -0.5007
 4105TIP3    H233807   3.829   6.103  16.269  0.3898 -0.3414  0.6134
 4106TIP3   OH233808   5.347   3.445  11.549  0.0509 -0.6838 -0.4641
 4106TIP3    H133809   5.322   3.535  11.570  0.1278 -1.6243  4.2474
 4106TIP3    H233810   5.267   3.404  11.519 -1.1184 -0.2488  1.9516
 4107TIP3   OH233811   3.454   2.240   0.387 -0.0083  0.1178 -0.9392
 4107TIP3    H133812   3.389   2.172   0.370 -0.2321  0.2877 -0.7647
 4107TIP3    H233813   3.414   2.320   0.354 -0.1422  0.3277 -0.2783
 4108TIP3   OH233814   4.138   1.149   4.633 -0.0609  0.1504 -0.5672
 4108TIP3    H133815   4.070   1.204   4.595  0.0612  0.6363 -0.0978
 4108TIP3    H233816   4.120   1.061   4.600 -0.6158  0.3681 -0.8435
 4109TIP3   OH233817   6.358   6.430   3.290 -0.5153 -0.2597  0.1485
 4109TIP3    H133818   6.295   6.363   3.262  0.6357 -2.2694  2.1971
 4109TIP3    H233819   6.426   6.381   3.337  1.9082  2.0287 -0.8854
 4110TIP3   OH233820   4.878   2.740   0.705  0.3474 -0.2310  0.3241
 4110TIP3    H133821   4.943   2.746   0.636 -0.3073 -1.2642 -0.3978
 4110TIP3    H233822   4.873   2.828   0.741  2.1274 -0.1334  0.3852
 4111TIP3   OH233823   0.642   1.848   6.173  0.1475 -0.0771 -0.3276
 4111TIP3    H133824   0.606   1.857   6.261 -1.4522  1.4046 -1.1043
 4111TIP3    H233825   0.684   1.932   6.155 -0.6698  0.1081 -1.4539
 4112TIP3   OH233826   0.149   6.740   1.977  0.4113  0.7478 -0.3793
 4112TIP3    H133827   0.234   6.776   2.001 -0.3219  2.6607 -0.5309
 4112TIP3    H233828   0.089   6.776   2.042 -0.4717  0.3499 -0.9691
 4113TIP3   OH233829   1.195   6.599  12.776  0.5017  0.1337 -0.7410
 4113TIP3    H133830   1.259   6.530  12.755 -0.1686 -0.8195  0.2759
 4113TIP3    H233831   1.127   6.590  12.708 -0.8822 -1.9289  0.8508
 4114TIP3   OH233832   3.685   4.480   0.690  0.0218 -0.0882  0.0928
 4114TIP3    H133833   3.703   4.574   0.701 -0.5220  0.0031  0.1992
 4114TIP3    H233834   3.609   4.464   0.746 -0.0085 -0.5523 -0.0848
 4115TIP3   OH233835   1.149   2.176   2.082 -0.2643  0.4794  0.2129
 4115TIP3    H133836   1.229   2.224   2.062  0.0400 -0.4916 -0.9287
 4115TIP3    H233837   1.105   2.166   1.997 -0.2845 -1.3054  0.4194
 4116TIP3   OH233838   2.733   4.371   3.785 -0.3566  0.4017  0.2259
 4116TIP3    H133839   2.707   4.321   3.708 -1.4024  2.6344 -0.8930
 4116TIP3    H233840   2.660   4.360   3.846 -0.1995 -0.1331  0.3199
 4117TIP3   OH233841   0.302   0.719  15.829 -0.2059 -0.7774  0.0360
 4117TIP3    H133842   0.264   0.751  15.911  2.9612  2.3936  0.4101
 4117TIP3    H233843   0.261   0.771  15.761  1.7092  1.1181  0.2551
 4118TIP3   OH233844   0.722   2.635   2.688 -0.1609 -0.7584  0.0161
 4118TIP3    H133845   0.637   2.616   2.730 -0.0933 -0.8011  0.1334
 4118TIP3    H233846   0.754   2.713   2.733  0.1499 -1.0987  0.3948
 4119TIP3   OH233847   0.276   1.556  13.482 -0.3547 -0.2204 -0.1696
 4119TIP3    H133848   0.245   1.482  13.534  0.8321 -0.5376  0.0986
 4119TIP3    H233849   0.307   1.620  13.547  1.2636 -0.6766 -0.4694
 4120TIP3   OH233850   2.428   6.005   6.205 -0.6501  0.5798 -0.0533
 4120TIP3    H133851   2.438   5.982   6.113  2.1705  0.3353  0.2633
 4120TIP3    H233852   2.437   5.921   6.251  3.0264  1.2953  0.7007
 4121TIP3   OH233853   3.676   3.331   4.347  0.2422 -0.5766  0.2658
 4121TIP3    H133854   3.655   3.251   4.396 -2.3784  1.0814  1.9488
 4121TIP3    H233855   3.605   3.339   4.283  1.6616 -0.7118 -1.3718
 4122TIP3   OH233856   3.580   2.755  12.403 -0.4505 -0.0183  0.0225
 4122TIP3    H133857   3.555   2.686  12.464  1.6596 -2.0715 -1.3330
 4122TIP3    H233858   3.498   2.779  12.359 -1.1874 -1.8310  0.3698
 4123TIP3   OH233859   6.063   2.672   5.963 -0.0798  0.3088  0.1327
 4123TIP3    H133860   6.148   2.632   5.944 -0.1796 -0.0953  0.5243
 4123TIP3    H233861   6.020   2.680   5.878  1.1476  2.3391 -0.3052
 4124TIP3   OH233862   0.838   0.316  16.878  0.5378 -0.0710 -0.0082
 4124TIP3    H133863   0.881   0.286  16.798 -1.2237  1.0599 -1.4110
 4124TIP3    H233864   0.894   0.387  16.910  1.2881 -0.5753 -0.1793
 4125TIP3   OH233865   2.724   0.319  11.846  0.1242  0.6248 -0.6268
 4125TIP3    H133866   2.704   0.359  11.931 -2.6627  1.6497 -1.7141
 4125TIP3    H233867   2.801   0.365  11.815  2.3736 -1.0688  2.1744
 4126TIP3   OH233868   3.152   1.694   4.422 -0.1540 -0.2983 -0.7014
 4126TIP3    H133869   3.188   1.606   4.410  1.7490  0.1934  0.9570
 4126TIP3    H233870   3.230   1.751   4.425 -1.1643  1.0414  1.2070
 4127TIP3   OH233871   4.182   5.640  13.795  0.4541 -0.5842 -0.1803
 4127TIP3    H133872   4.136   5.722  13.813 -0.7217 -0.6460 -2.5488
 4127TIP3    H233873   4.183   5.594  13.878  1.9184  2.1996  1.3986
 4128TIP3   OH233874   4.882   4.285  11.598 -0.1522 -0.1865  0.2419
 4128TIP3    H133875   4.951   4.348  11.577  0.5828 -0.8268  0.7014
 4128TIP3    H233876   4.906   4.207  11.548 -0.3557 -0.5218  0.6671
 4129TIP3   OH233877   4.193   0.295   3.976  0.2427  0.6991 -0.4888
 4129TIP3    H133878   4.130   0.353   4.019  0.0409 -0.2400  0.4983
 4129TIP3    H233879   4.272   0.349   3.965 -0.6166  1.7885 -1.4647
 4130TIP3   OH233880   2.059   1.100   0.109  0.1597 -0.4298  0.8101
 4130TIP3    H133881   2.145   1.061   0.120 -0.1032 -0.8621  1.3698
 4130TIP3    H233882   2.063   1.181   0.160  0.0134 -0.7958  1.4102
 4131TIP3   OH233883   5.771   1.918   2.388  0.1103  0.7382 -0.3960
 4131TIP3    H133884   5.698   1.894   2.445 -0.3839 -0.2772 -1.4192
 4131TIP3    H233885   5.849   1.911   2.443 -0.1389 -2.2233 -0.3366
 4132TIP3   OH233886   3.714   0.834   2.236 -0.4263 -0.0835 -0.1998
 4132TIP3    H133887   3.729   0.828   2.330 -0.5525  0.8210 -0.1182
 4132TIP3    H233888   3.624   0.864   2.227 -0.4126 -0.1557 -0.6089
 4133TIP3   OH233889   5.652   1.423  13.905  0.1147  0.3948 -0.1643
 4133TIP3    H133890   5.689   1.342  13.938  1.0642  0.7485 -0.3409
 4133TIP3    H233891   5.572   1.397  13.859  0.7055 -0.4953 -0.6954
 4134TIP3   OH233892   6.061   2.140  16.856  0.1345 -0.3120 -0.7673
 4134TIP3    H133893   5.978   2.094  16.866 -0.1421  0.4199  0.3942
 4134TIP3    H233894   6.038   2.232  16.858  0.9779 -0.1042 -0.4646
 4135TIP3   OH233895   3.027   6.701  13.465 -0.1978 -0.0393  0.2135
 4135TIP3    H133896   2.975   6.691  13.386 -1.6195  1.4306  0.9425
 4135TIP3    H233897   3.050   6.611  13.490 -2.8430 -0.7420  0.1976
 4136TIP3   OH233898   1.824   5.387   2.953 -0.2018 -0.8076 -0.5410
 4136TIP3    H133899   1.747   5.401   3.008  0.9709 -0.0595  0.9520
 4136TIP3    H233900   1.808   5.303   2.911 -2.0031 -0.4849 -0.5479
 4137TIP3   OH233901   2.509   6.807  11.371 -0.5683 -0.0492 -0.1435
 4137TIP3    H133902   2.491   6.714  11.384 -0.3128 -0.2184 -0.9464
 4137TIP3    H233903   2.592   6.822  11.415 -0.7079 -0.1617  0.1566
 4138TIP3   OH233904   1.553   5.502   4.342 -0.0177  0.1250 -0.0782
 4138TIP3    H133905   1.572   5.441   4.271 -0.5126  0.1082 -0.2023
 4138TIP3    H233906   1.505   5.449   4.406 -0.1178  0.2929 -0.0149
 4139TIP3   OH233907   0.559   2.711   4.960  0.4293  0.1931 -0.2748
 4139TIP3    H133908   0.507   2.745   5.033  0.8090  0.3712 -0.0831
 4139TIP3    H233909   0.584   2.623   4.987 -0.9378 -0.4132 -0.9700
 4140TIP3   OH233910   5.803   6.168   3.418 -0.5986  0.0689  0.3166
 4140TIP3    H133911   5.826   6.079   3.392 -0.2196 -0.5167  2.4821
 4140TIP3    H233912   5.827   6.171   3.511 -1.2291  2.2233  0.4140
 4141TIP3   OH233913   3.030   2.758  13.873 -0.2456 -0.2298  0.2056
 4141TIP3    H133914   3.018   2.733  13.964  0.9818 -3.1199 -0.3703
 4141TIP3    H233915   3.120   2.791  13.868 -0.2908 -0.1290  0.0372
 4142TIP3   OH233916   4.774   4.919  16.554  0.1080 -0.5687  0.0908
 4142TIP3    H133917   4.839   4.918  16.483 -0.0069  1.1166 -0.0484
 4142TIP3    H233918   4.794   4.841  16.605  0.6765 -1.4024 -1.3604
 4143TIP3   OH233919   3.344   1.048  11.379 -0.1627  0.3576  0.3522
 4143TIP3    H133920   3.394   1.081  11.305 -1.2581 -1.8840 -1.4354
 4143TIP3    H233921   3.262   1.099  11.377  0.5794  1.6139  1.1999
 4144TIP3   OH233922   2.815   4.207   1.688  0.0309 -0.6933  0.4104
 4144TIP3    H133923   2.745   4.270   1.671  0.1274 -1.1503 -1.8355
 4144TIP3    H233924   2.770   4.132   1.728 -0.5069 -0.2916  0.5563
 4145TIP3   OH233925   3.054   6.060  11.482 -0.0137 -0.1900  0.8405
 4145TIP3    H133926   3.059   6.152  11.509  0.1482 -0.1557  0.6937
 4145TIP3    H233927   3.144   6.037  11.460  0.1646 -0.7716  2.1492
 4146TIP3   OH233928   1.809   6.298   3.055 -0.3128 -0.2473 -0.0799
 4146TIP3    H133929   1.853   6.213   3.048  2.1438  1.0282 -0.5536
 4146TIP3    H233930   1.744   6.297   2.985  0.4863 -1.2800 -0.8179
 4147TIP3   OH233931   6.746   6.624   5.513  0.3498 -0.2111 -0.1206
 4147TIP3    H133932   6.753   6.542   5.562 -0.2031  0.3694  0.9487
 4147TIP3    H233933   6.837   6.646   5.490  0.6816 -0.1682  1.2002
 4148TIP3   OH233934   0.856   6.261  15.108 -0.4904 -0.5776 -0.1954
 4148TIP3    H133935   0.949   6.283  15.112 -0.5438 -0.3079 -0.4050
 4148TIP3    H233936   0.813   6.344  15.089 -0.7298 -0.7929 -0.5999
 4149TIP3   OH233937   1.319   5.572   0.537 -0.4308 -0.5938  0.3295
 4149TIP3    H133938   1.381   5.645   0.545  0.0071 -1.0259  0.8928
 4149TIP3    H233939   1.321   5.549   0.444  0.2019 -0.5624  0.3308
 4150TIP3   OH233940   5.069   6.055   4.608  0.0624  0.0932 -0.1765
 4150TIP3    H133941   5.112   6.010   4.535  0.7282  0.1877  0.1566
 4150TIP3    H233942   5.120   6.135   4.621 -1.2591  1.0893 -0.9309
 4151TIP3   OH233943   3.915   3.750   0.563 -0.3000 -0.2688  0.2830
 4151TIP3    H133944   3.977   3.790   0.625 -0.6812  0.3815  0.2537
 4151TIP3    H233945   3.830   3.755   0.607 -0.1419 -2.3550  0.8723
 4152TIP3   OH233946   2.832   1.646   4.211 -0.4805 -0.4081 -0.4359
 4152TIP3    H133947   2.762   1.602   4.163 -1.0618  1.5178 -1.4092
 4152TIP3    H233948   2.834   1.735   4.175  0.7477  0.3359  1.3852
 4153TIP3   OH233949   3.552   4.684  16.949  0.3656  0.2427 -0.4281
 4153TIP3    H133950   3.526   4.596  16.922  0.3786 -0.0474  0.5077
 4153TIP3    H233951   3.622   4.708  16.888  0.8564 -0.6772 -0.2402
 4154TIP3   OH233952   1.301   5.765  16.907  0.3229 -0.0771  0.5440
 4154TIP3    H133953   1.347   5.762  16.991 -0.0409 -0.0906  0.7439
 4154TIP3    H233954   1.353   5.710  16.849  0.8438  0.3200  0.6234
 4155TIP3   OH233955   3.547   5.719   3.838 -0.6713  0.2203 -0.0482
 4155TIP3    H133956   3.465   5.766   3.820 -0.7426  0.1361  0.0547
 4155TIP3    H233957   3.519   5.638   3.880 -0.5037  0.4158  0.4354
 4156TIP3   OH233958   1.393   3.046  13.811 -0.2461  0.2540 -0.0850
 4156TIP3    H133959   1.424   3.128  13.849 -1.2453 -0.9427  3.5116
 4156TIP3    H233960   1.472   2.992  13.803  0.1186  0.8609 -0.6392
 4157TIP3   OH233961   6.241   6.472   0.377  0.0858 -0.0419  0.7971
 4157TIP3    H133962   6.309   6.500   0.316 -0.5198 -1.2459 -0.4545
 4157TIP3    H233963   6.230   6.547   0.436  0.1119  1.4563 -1.0590
 4158TIP3   OH233964   0.825   5.517  13.383  0.0723 -0.4741  0.3093
 4158TIP3    H133965   0.821   5.586  13.449  1.7966 -0.9290  0.8986
 4158TIP3    H233966   0.902   5.465  13.406  0.1454 -1.2080 -1.4933
 4159TIP3   OH233967   5.725   1.364   5.019 -0.4074 -0.2309  0.0939
 4159TIP3    H133968   5.805   1.411   4.994 -0.1767  0.2471  1.6763
 4159TIP3    H233969   5.752   1.274   5.031  0.2426  0.2357  2.2263
 4160TIP3   OH233970   2.871   5.922  15.622  0.4057 -0.1289 -0.2758
 4160TIP3    H133971   2.815   5.993  15.590 -0.0264 -0.2912  0.1004
 4160TIP3    H233972   2.955   5.964  15.639  0.5074  0.0475 -1.1873
 4161TIP3   OH233973   0.602   1.352  12.959  0.0335 -0.4069 -0.0059
 4161TIP3    H133974   0.525   1.386  12.912 -0.3664 -1.1004  0.1373
 4161TIP3    H233975   0.578   1.262  12.981  0.9358 -0.6559 -0.0500
 4162TIP3   OH233976   5.220   1.500   6.604  0.2972 -0.4584 -0.2095
 4162TIP3    H133977   5.263   1.414   6.607  0.7194 -0.2283  0.3454
 4162TIP3    H233978   5.289   1.561   6.580 -0.5372 -0.6046 -3.1002
 4163TIP3   OH233979   2.614   0.305  11.185  0.7266 -0.4508 -0.0347
 4163TIP3    H133980   2.702   0.268  11.180  0.7424 -0.4929  0.4925
 4163TIP3    H233981   2.621   0.375  11.251  0.2256 -0.8533  0.4474
 4164TIP3   OH233982   3.612   3.793  13.093  0.0873 -0.5850  0.1641
 4164TIP3    H133983   3.638   3.878  13.058 -1.7303  0.3837  1.0685
 4164TIP3    H233984   3.689   3.763  13.141  1.1537 -0.0092 -1.1496
 4165TIP3   OH233985   0.680   1.869  15.962 -0.2679  0.0128  0.5726
 4165TIP3    H133986   0.740   1.814  16.011  1.9071 -0.5064 -2.4780
 4165TIP3    H233987   0.704   1.959  15.986  1.1398 -0.2239  0.1097
 4166TIP3   OH233988   5.202   3.967  12.774  0.2715  0.6863 -0.6864
 4166TIP3    H133989   5.209   3.958  12.679 -0.4268  0.7895 -0.7503
 4166TIP3    H233990   5.196   3.877  12.807 -0.2692  0.6777 -0.8055
 4167TIP3   OH233991   3.745   6.223  10.488  0.5020  0.2031  0.0158
 4167TIP3    H133992   3.711   6.261  10.569 -0.7811 -1.0119  0.0682
 4167TIP3    H233993   3.782   6.297  10.440  0.0594  1.1486  1.1168
 4168TIP3   OH233994   1.975   0.857   3.721  0.3428 -0.4506  0.3187
 4168TIP3    H133995   1.927   0.795   3.666  0.5935  0.4740 -0.9843
 4168TIP3    H233996   1.913   0.883   3.789 -0.6692 -0.0598 -0.7347
 4169TIP3   OH233997   0.161   4.952  12.785  0.0029  0.9365 -0.3521
 4169TIP3    H133998   0.195   4.911  12.705 -1.2899 -0.3990 -0.2385
 4169TIP3    H233999   0.239   4.984  12.830  0.9571 -0.4741 -0.9578
 4170TIP3   OH234000   3.582   1.332  14.866  0.2899 -0.2365  0.1985
 4170TIP3    H134001   3.615   1.410  14.821 -2.4303 -0.1855 -1.8810
 4170TIP3    H234002   3.616   1.259  14.815 -0.5384 -0.2629 -0.3258
 4171TIP3   OH234003   2.595   2.956   4.965 -0.2817 -0.3945  0.0211
 4171TIP3    H134004   2.633   3.010   4.897  0.2357 -0.6674  0.0833
 4171TIP3    H234005   2.561   2.879   4.919  2.1427 -1.6881  0.2928
 4172TIP3   OH234006   2.371   6.063   5.009  0.4943 -0.6695 -0.0119
 4172TIP3    H134007   2.456   6.106   5.010  0.5033 -0.6004 -1.9882
 4172TIP3    H234008   2.371   6.008   5.087  2.3062 -0.6059  0.0551
 4173TIP3   OH234009   1.456   6.346   3.110 -0.4139  0.0074  0.6862
 4173TIP3    H134010   1.492   6.349   3.022  0.7894 -0.1293  1.1589
 4173TIP3    H234011   1.478   6.432   3.148  1.3048 -0.8586  1.6981
 4174TIP3   OH234012   0.984   0.955  13.290 -0.2409 -0.7095 -0.1385
 4174TIP3    H134013   0.944   0.907  13.362 -0.7326  1.3113  0.9608
 4174TIP3    H234014   1.069   0.983  13.324 -0.9178  1.1572  0.0385
 4175TIP3   OH234015   4.686   4.130  12.287 -0.0806 -0.3520  0.4729
 4175TIP3    H134016   4.634   4.093  12.216 -1.3892 -1.4921  1.9681
 4175TIP3    H234017   4.629   4.123  12.364  1.9072 -0.6518  1.9573
 4176TIP3   OH234018   0.916   1.124  15.470  0.5000 -0.4335  0.2597
 4176TIP3    H134019   0.979   1.053  15.487  0.4970 -0.5179 -0.0750
 4176TIP3    H234020   0.831   1.086  15.491  0.8064  0.5764  3.4787
 4177TIP3   OH234021   2.296   3.564   0.111  0.4051  0.0600 -0.0344
 4177TIP3    H134022   2.344   3.512   0.175  0.9758  0.7292  0.0910
 4177TIP3    H234023   2.341   3.549   0.028  0.6491  0.4457  0.0254
 4178TIP3   OH234024   2.202   5.970  14.252  0.1729 -0.1264 -0.0477
 4178TIP3    H134025   2.135   5.922  14.301  1.7753  1.5359  3.9524
 4178TIP3    H234026   2.261   5.902  14.220  0.1308 -1.1193  1.9605
 4179TIP3   OH234027   0.935   1.119  13.936 -0.1908  0.4276 -0.3222
 4179TIP3    H134028   0.905   1.208  13.953  1.9939  1.2309 -0.4863
 4179TIP3    H234029   0.940   1.078  14.022 -2.4809  0.0219 -0.3655
 4180TIP3   OH234030   4.800   4.272  16.132 -0.3169  0.5937  0.4390
 4180TIP3    H134031   4.803   4.267  16.036  0.7411 -3.6756  0.5647
 4180TIP3    H234032   4.885   4.309  16.156 -0.6916  1.9380 -0.2463
 4181TIP3   OH234033   0.716   1.597  12.403 -0.6079 -0.3810 -0.2963
 4181TIP3    H134034   0.739   1.612  12.312 -0.1378  1.2249  0.0753
 4181TIP3    H234035   0.638   1.542  12.399  0.9630 -2.5606 -1.6128
 4182TIP3   OH234036   5.571   6.556   4.931  0.6229 -0.1705  0.1559
 4182TIP3    H134037   5.499   6.610   4.963 -0.1476 -0.3881 -1.1532
 4182TIP3    H234038   5.629   6.545   5.006 -2.0655 -2.2492  2.0061
 4183TIP3   OH234039   6.720   2.995   0.979 -0.4530  0.6242  0.6463
 4183TIP3    H134040   6.718   2.967   0.887 -1.9216  2.0247  0.2312
 4183TIP3    H234041   6.753   2.919   1.026  2.4564  0.6180 -1.2996
 4184TIP3   OH234042   5.137   0.358  10.575 -0.6631 -0.0687  0.6408
 4184TIP3    H134043   5.156   0.272  10.537  1.8745  1.2409 -1.2242
 4184TIP3    H234044   5.064   0.392  10.523  1.0865  0.6143 -1.4504
 4185TIP3   OH234045   2.441   4.564  11.208  0.4679  0.4319 -0.1988
 4185TIP3    H134046   2.468   4.631  11.145  0.6663 -0.1412 -0.7260
 4185TIP3    H234047   2.350   4.546  11.186  1.3327 -1.7769 -2.1413
 4186TIP3   OH234048   0.881   5.244  15.339 -0.1524  0.3504 -0.1629
 4186TIP3    H134049   0.839   5.208  15.417  1.5829 -0.4901  0.4053
 4186TIP3    H234050   0.925   5.323  15.370 -0.5446  0.7355 -0.5764
 4187TIP3   OH234051   2.235   1.546  12.042 -0.4402  0.6025 -0.4232
 4187TIP3    H134052   2.278   1.605  12.104  0.2863 -0.7679  0.4135
 4187TIP3    H234053   2.239   1.592  11.958  1.5228  1.0711 -0.1015
 4188TIP3   OH234054   1.188   4.396   4.198 -0.4646  0.3088 -0.5361
 4188TIP3    H134055   1.119   4.388   4.264 -0.5338  2.6821 -0.2855
 4188TIP3    H234056   1.267   4.417   4.247 -0.5159  2.0840 -1.2022
 4189TIP3   OH234057   6.480   2.968  11.720 -0.2661 -0.4959  0.7977
 4189TIP3    H134058   6.431   3.050  11.719 -1.0413 -0.9583  0.3589
 4189TIP3    H234059   6.431   2.910  11.662 -0.0878 -1.4773  1.6128
 4190TIP3   OH234060   5.473   5.339   6.162 -0.0110  0.4083 -0.1768
 4190TIP3    H134061   5.427   5.256   6.174 -0.2427  0.4377 -0.8547
 4190TIP3    H234062   5.519   5.353   6.245 -0.7170  0.0673  0.2762
 4191TIP3   OH234063   0.950   3.958  11.884  0.2435  0.2855  0.3013
 4191TIP3    H134064   0.963   3.867  11.858 -1.2645 -0.2832  1.4222
 4191TIP3    H234065   1.035   3.986  11.917  0.2522 -1.3793  1.8045
 4192TIP3   OH234066   3.794   6.505  12.660  0.0394 -0.3589 -0.1452
 4192TIP3    H134067   3.706   6.480  12.689  0.9352 -1.6138  1.5433
 4192TIP3    H234068   3.778   6.570  12.591 -2.1825  0.4964  1.1098
 4193TIP3   OH234069   3.088   0.201  14.636 -0.1453 -0.1839 -0.0501
 4193TIP3    H134070   3.183   0.199  14.623 -0.3431 -0.0231 -1.5020
 4193TIP3    H234071   3.074   0.151  14.717  1.0252 -1.5478 -0.6784
 4194TIP3   OH234072   5.359   0.459  13.955 -0.0088  0.5234 -0.1466
 4194TIP3    H134073   5.366   0.446  14.049  1.5142  0.4770 -0.2513
 4194TIP3    H234074   5.279   0.509  13.943 -0.9968 -0.7230  1.0488
 4195TIP3   OH234075   0.701   6.603   4.305  0.0269  0.1062 -0.4481
 4195TIP3    H134076   0.784   6.568   4.338  0.3068  0.9066 -0.3080
 4195TIP3    H234077   0.661   6.645   4.381 -0.5029 -0.2680 -0.5175
 4196TIP3   OH234078   6.713   4.908  17.074 -0.1361  0.4743 -0.4104
 4196TIP3    H134079   6.693   4.923  17.167  1.5609  1.0062 -0.1128
 4196TIP3    H234080   6.806   4.930  17.066 -0.5876  1.7430 -2.5192
 4197TIP3   OH234081   6.777   1.846  11.307  0.2512  0.0762  0.2671
 4197TIP3    H134082   6.861   1.856  11.262  0.7745 -0.5985  1.0836
 4197TIP3    H234083   6.795   1.784  11.378 -1.0026 -0.2878  0.2751
 4198TIP3   OH234084   5.818   1.308   5.345 -0.3362 -0.0229 -0.7781
 4198TIP3    H134085   5.763   1.337   5.417  0.7692 -0.5883  0.3106
 4198TIP3    H234086   5.756   1.281   5.276 -1.3926  0.2300  0.0638
 4199TIP3   OH234087   6.311   3.274  14.476  0.2002 -0.2448 -0.1525
 4199TIP3    H134088   6.371   3.215  14.430  0.1605 -0.0626 -0.4340
 4199TIP3    H234089   6.225   3.256  14.437  0.1729 -0.0642 -0.1746
 4200TIP3   OH234090   1.071   1.175   4.279  0.1446  0.9556  0.6624
 4200TIP3    H134091   1.138   1.141   4.220 -2.3876 -0.6064 -1.4170
 4200TIP3    H234092   1.056   1.265   4.249  0.2579  0.8194  0.1951
 4201TIP3   OH234093   4.177   2.288   1.701 -0.6599  0.0922  0.4138
 4201TIP3    H134094   4.142   2.301   1.613 -1.0500  0.4976  0.6287
 4201TIP3    H234095   4.136   2.206   1.731  0.2076 -0.5515 -0.1430
 4202TIP3   OH234096   0.179   4.607   3.937 -0.2868 -0.0386 -0.3688
 4202TIP3    H134097   0.222   4.692   3.932  0.0882 -0.1147  1.1053
 4202TIP3    H234098   0.087   4.627   3.950  0.1076  0.2035  2.4374
 4203TIP3   OH234099   2.573   2.447  12.267 -0.3880  0.3225 -0.3580
 4203TIP3    H134100   2.488   2.404  12.269  0.7807 -2.0435  0.2280
 4203TIP3    H234101   2.636   2.375  12.265  1.6291  2.0250  0.4717
 4204TIP3   OH234102   5.401   5.145  12.321  0.1402 -0.7561 -0.3210
 4204TIP3    H134103   5.424   5.171  12.232  1.2846  1.7397  0.6701
 4204TIP3    H234104   5.484   5.133  12.365 -0.3869  0.9380  1.2109
 4205TIP3   OH234105   4.222   1.606   2.539  0.2219 -0.3612 -0.2875
 4205TIP3    H134106   4.248   1.690   2.579 -1.3409 -0.3344  0.7197
 4205TIP3    H234107   4.215   1.625   2.446  0.2792  0.5363 -0.1168
 4206TIP3   OH234108   6.378   2.289  14.258 -0.1315 -0.4549 -0.3119
 4206TIP3    H134109   6.287   2.259  14.255  0.0386 -0.9314 -0.7166
 4206TIP3    H234110   6.374   2.381  14.231 -0.4984 -0.4564 -0.2662
 4207TIP3   OH234111   1.347   2.473   3.880 -0.0136 -0.7595 -0.2407
 4207TIP3    H134112   1.345   2.382   3.910 -2.2752 -0.7446 -0.2385
 4207TIP3    H234113   1.375   2.523   3.956 -1.2419 -1.2101  0.5293
 4208TIP3   OH234114   2.127   1.918  13.412 -0.0679 -0.0691 -0.2728
 4208TIP3    H134115   2.099   1.916  13.321  0.7953  0.0614 -0.5474
 4208TIP3    H234116   2.113   2.009  13.440 -4.4326 -1.0333  1.0572
 4209TIP3   OH234117   3.737   1.043   4.909  0.1989 -0.7025  0.3234
 4209TIP3    H134118   3.694   1.128   4.909  1.2192 -0.1537 -1.6813
 4209TIP3    H234119   3.701   0.998   4.986 -1.2451  1.0637  0.7237
 4210TIP3   OH234120   0.709   0.491   1.817  0.5225 -0.2903 -0.1900
 4210TIP3    H134121   0.716   0.413   1.761 -0.2385  0.2191 -1.0105
 4210TIP3    H234122   0.709   0.456   1.906  0.5691 -1.2069 -0.5417
 4211TIP3   OH234123   0.744   3.311  11.898 -0.6333 -0.0211  0.0920
 4211TIP3    H134124   0.825   3.357  11.876 -0.4158  1.5966  3.9014
 4211TIP3    H234125   0.768   3.218  11.894  0.9475  0.3800 -0.3921
 4212TIP3   OH234126   2.430   3.857   0.829 -0.3964 -0.3135 -0.1532
 4212TIP3    H134127   2.337   3.874   0.815 -0.6797 -2.2333 -0.7806
 4212TIP3    H234128   2.432   3.788   0.895  0.4320 -2.6214 -2.4867
 4213TIP3   OH234129   2.920   6.503   2.537 -0.5380 -0.4045  0.4147
 4213TIP3    H134130   2.977   6.477   2.609 -0.9091 -0.9685  0.5050
 4213TIP3    H234131   2.955   6.456   2.461  0.1882  0.6078  0.1052
 4214TIP3   OH234132   2.262   4.128   1.498 -0.6675 -0.3225 -0.3264
 4214TIP3    H134133   2.235   4.137   1.589 -0.4695 -0.0552 -0.2916
 4214TIP3    H234134   2.310   4.045   1.495  1.0575  0.6224  0.2470
 4215TIP3   OH234135   6.230   4.365  12.684 -0.2526  0.2541 -0.1321
 4215TIP3    H134136   6.152   4.313  12.705 -0.6625  0.6500 -0.6756
 4215TIP3    H234137   6.196   4.452  12.664  0.3307  0.4210 -0.4027
 4216TIP3   OH234138   3.939   1.526  10.765 -0.1438 -0.2364 -0.3920
 4216TIP3    H134139   4.034   1.524  10.754 -0.1741  0.9420 -0.9282
 4216TIP3    H234140   3.925   1.500  10.855  0.6837 -0.6063 -0.3609
 4217TIP3   OH234141   6.111   0.595   2.409 -0.6939  0.3833 -0.8607
 4217TIP3    H134142   6.164   0.675   2.411  2.9619 -1.8385 -2.4337
 4217TIP3    H234143   6.152   0.538   2.475  0.3241 -2.1802 -3.5909
 4218TIP3   OH234144   1.385   5.339  15.345  0.2697 -0.4847  0.0697
 4218TIP3    H134145   1.435   5.265  15.311  2.1869  0.1023  1.5440
 4218TIP3    H234146   1.414   5.414  15.292 -0.4824 -0.4918 -0.3579
 4219TIP3   OH234147   4.680   1.592  16.375 -0.0373 -0.2140  0.2073
 4219TIP3    H134148   4.715   1.610  16.287  2.0345  0.0447  1.0569
 4219TIP3    H234149   4.737   1.525  16.410 -1.0622 -0.5532  1.2553
 4220TIP3   OH234150   1.379   3.172   4.783  0.3536 -0.0820  0.1360
 4220TIP3    H134151   1.302   3.224   4.764  0.3134 -0.7342 -1.5119
 4220TIP3    H234152   1.408   3.202   4.869 -1.2914  0.6845  0.4239
 4221TIP3   OH234153   4.949   0.237   5.537  0.2611  0.1031 -0.5284
 4221TIP3    H134154   4.862   0.211   5.569  0.6461 -0.3962  0.1230
 4221TIP3    H234155   4.969   0.173   5.468  0.5436 -0.3983  0.0145
 4222TIP3   OH234156   4.079   5.120   5.106  0.2299  0.4277  0.0680
 4222TIP3    H134157   3.988   5.089   5.110  1.1861 -2.6414 -0.4330
 4222TIP3    H234158   4.122   5.076   5.180  1.2915  1.9845  0.3932
 4223TIP3   OH234159   0.504   5.435   1.188  0.6292  0.3571 -0.3067
 4223TIP3    H134160   0.467   5.455   1.102  0.3618 -0.5750 -0.4114
 4223TIP3    H234161   0.430   5.445   1.248  0.0470 -1.9552 -0.5715
 4224TIP3   OH234162   1.457   1.104   5.336 -0.0318 -0.2243 -0.7019
 4224TIP3    H134163   1.453   1.159   5.257 -1.5908  1.7588  0.6839
 4224TIP3    H234164   1.399   1.030   5.317 -0.5117  0.3198 -1.3834
 4225TIP3   OH234165   4.929   1.660  15.461  0.1432 -0.2168  0.8019
 4225TIP3    H134166   5.017   1.633  15.434  0.0288 -1.5232  1.7002
 4225TIP3    H234167   4.944   1.735  15.519  0.6268 -0.0444  0.4617
 4226TIP3   OH234168   2.577   5.102  16.533  0.4958  0.4544 -0.3935
 4226TIP3    H134169   2.506   5.138  16.586  0.6695  0.3347 -0.0762
 4226TIP3    H234170   2.630   5.052  16.595  2.0846  2.3106 -0.1848
 4227TIP3   OH234171   3.691   4.211  10.403 -0.5339  0.1982  0.3308
 4227TIP3    H134172   3.650   4.213  10.316  1.5469 -2.2931 -0.7815
 4227TIP3    H234173   3.640   4.145  10.451  0.2595 -0.7264 -0.0715
 4228TIP3   OH234174   3.566   0.008   4.595  0.3510 -0.1406  0.0897
 4228TIP3    H134175   3.586   0.007   4.502  0.1098 -0.9492  0.0458
 4228TIP3    H234176   3.547  -0.083   4.617 -0.8710  0.2370  0.6507
 4229TIP3   OH234177   4.967   0.415   2.542  0.1969 -0.7031  0.1170
 4229TIP3    H134178   4.979   0.322   2.527  0.3827 -0.6030 -0.3905
 4229TIP3    H234179   5.035   0.457   2.489 -0.0285 -0.2720  0.1603
 4230TIP3   OH234180   6.062   6.033  11.315 -0.8477  0.2085 -0.1788
 4230TIP3    H134181   6.123   5.988  11.374 -1.3386 -1.3571 -0.8469
 4230TIP3    H234182   6.077   6.126  11.333  1.9985 -0.1154 -0.5747
 4231TIP3   OH234183   1.767   4.523  16.324  1.0645  0.0873 -0.6730
 4231TIP3    H134184   1.691   4.465  16.321  2.0153 -1.3061  0.9866
 4231TIP3    H234185   1.838   4.471  16.285  0.9859  1.7291 -3.1227
 4232TIP3   OH234186   3.814   4.486  15.548 -0.0201 -0.1409 -0.2912
 4232TIP3    H134187   3.820   4.494  15.453 -0.0570  0.2993 -0.2572
 4232TIP3    H234188   3.817   4.576  15.580  1.4796 -0.3642  0.2267
 4233TIP3   OH234189   4.075   2.822   2.078  0.2200  0.3673 -0.2977
 4233TIP3    H134190   4.126   2.818   1.997 -0.1451  0.6702 -0.5430
 4233TIP3    H234191   4.008   2.755   2.068  0.1562  0.4249 -0.2609
 4234TIP3   OH234192   5.945   5.579  10.828  0.3128  0.5193  0.1363
 4234TIP3    H134193   5.860   5.557  10.865 -0.0900  0.5055 -0.7889
 4234TIP3    H234194   5.928   5.657  10.775  0.6299 -0.2212 -1.0570
 4235TIP3   OH234195   1.231   0.792   4.800  0.3320  0.3276 -0.0098
 4235TIP3    H134196   1.268   0.820   4.716  2.9393  2.0449  1.6531
 4235TIP3    H234197   1.216   0.698   4.789  0.8683  0.4733 -2.2940
 4236TIP3   OH234198   5.301   4.995   0.696 -0.0158  0.2216  0.7718
 4236TIP3    H134199   5.353   5.003   0.776  2.7164  2.7688 -1.1472
 4236TIP3    H234200   5.214   5.027   0.719  0.2028 -0.8068  3.1414
 4237TIP3   OH234201   4.135   4.644  16.681 -0.3995  0.3546  0.2066
 4237TIP3    H134202   4.168   4.558  16.706 -2.8790 -0.2478  1.5069
 4237TIP3    H234203   4.120   4.637  16.587  1.0741 -0.0466 -0.0130
 4238TIP3   OH234204   0.405   1.960  14.045 -0.1459 -0.1089 -0.1164
 4238TIP3    H134205   0.465   1.984  13.975  1.1045  1.1683  1.3301
 4238TIP3    H234206   0.462   1.932  14.117 -1.1222  2.8541  1.9325
 4239TIP3   OH234207   4.102   1.893   5.410 -0.2393  0.5359  0.3728
 4239TIP3    H134208   4.090   1.803   5.439 -0.1057  0.0905 -0.9121
 4239TIP3    H234209   4.158   1.886   5.332 -2.3780  1.4972 -1.2994
 4240TIP3   OH234210   1.348   2.089  11.757 -0.1123 -0.1296  0.3680
 4240TIP3    H134211   1.288   2.030  11.804  1.4651 -2.1310 -0.0655
 4240TIP3    H234212   1.414   2.031  11.720  1.3199  1.9161 -0.3459
 4241TIP3   OH234213   6.045   1.730  13.826  0.5800 -0.4223  0.1971
 4241TIP3    H134214   6.132   1.691  13.836  1.3311  1.1078 -0.2102
 4241TIP3    H234215   6.039   1.750  13.733  0.5883  1.2863  0.5564
 4242TIP3   OH234216   1.311   6.392  15.914 -0.0998  0.7469  0.3888
 4242TIP3    H134217   1.328   6.404  15.821  1.6774  0.7101  0.6907
 4242TIP3    H234218   1.230   6.439  15.930 -0.5984  0.4666 -1.2497
 4243TIP3   OH234219   2.498   4.377  14.667  0.0963 -0.3214  0.9894
 4243TIP3    H134220   2.522   4.288  14.696 -1.4238 -1.2069 -0.3899
 4243TIP3    H234221   2.570   4.402  14.608  0.5424 -0.6351  1.3923
 4244TIP3   OH234222   2.637   0.859  15.633 -0.1795  0.1564  0.6285
 4244TIP3    H134223   2.721   0.814  15.646 -0.2287 -0.1385 -0.0552
 4244TIP3    H234224   2.574   0.805  15.681  0.1530  0.8413  1.8471
 4245TIP3   OH234225   0.281   4.537  13.527  0.0710  0.0133  0.3518
 4245TIP3    H134226   0.228   4.589  13.587 -0.1602 -1.3002  1.3092
 4245TIP3    H234227   0.236   4.546  13.443 -0.9629 -0.0508  0.8820
 4246TIP3   OH234228   5.590   1.369   5.544  0.0008  0.3957  0.3264
 4246TIP3    H134229   5.505   1.366   5.501  0.8093  1.2011 -1.3355
 4246TIP3    H234230   5.575   1.421   5.623 -1.6164 -1.6003  1.3790
 4247TIP3   OH234231   3.301   3.262  12.210 -0.2064 -0.6850 -0.0172
 4247TIP3    H134232   3.312   3.310  12.128  0.4508 -1.1278 -0.1932
 4247TIP3    H234233   3.206   3.248  12.217 -0.2422 -0.8638 -0.8198
 4248TIP3   OH234234   5.206   2.698   5.717  0.1842 -0.0394 -1.1337
 4248TIP3    H134235   5.285   2.689   5.771  0.3445  0.1924 -1.3297
 4248TIP3    H234236   5.134   2.691   5.780  0.4089  3.8703 -0.2733
 4249TIP3   OH234237   5.638   1.474  14.371  0.0703 -0.6253 -0.1327
 4249TIP3    H134238   5.573   1.409  14.401 -0.1832  0.3265  1.4551
 4249TIP3    H234239   5.587   1.551  14.349  0.1324 -1.6286 -4.2329
 4250TIP3   OH234240   4.211   0.339   1.204 -0.1701 -0.3702  0.0600
 4250TIP3    H134241   4.263   0.418   1.193 -1.9247  0.3945 -3.6216
 4250TIP3    H234242   4.271   0.275   1.243  3.1020  0.8829 -2.7110
 4251TIP3   OH234243   0.675   0.160   0.043 -0.2670 -0.0526  0.4946
 4251TIP3    H134244   0.725   0.163  -0.039  1.2891 -1.3478  1.3469
 4251TIP3    H234245   0.712   0.230   0.096 -2.1841  1.6569 -0.3790
 4252TIP3   OH234246   2.811   6.179  12.419 -0.2153 -0.3663 -0.3135
 4252TIP3    H134247   2.725   6.209  12.392 -0.7454 -1.6652 -0.1127
 4252TIP3    H234248   2.861   6.172  12.337  0.0840  1.4942 -0.3163
 4253TIP3   OH234249   5.862   6.097  13.097 -0.1106  0.3996  0.4897
 4253TIP3    H134250   5.880   6.108  13.190  0.6525  1.2238  0.2534
 4253TIP3    H234251   5.942   6.061  13.060 -0.8092 -1.0091  0.3430
 4254TIP3   OH234252   5.002   2.666  12.475  0.1032  0.3822  0.1024
 4254TIP3    H134253   4.909   2.652  12.490 -0.1594 -0.3832 -1.9849
 4254TIP3    H234254   5.033   2.582  12.439  1.6421  0.5493  1.0104
 4255TIP3   OH234255   3.153   1.095   5.194  0.1803 -0.7767 -0.0030
 4255TIP3    H134256   3.079   1.151   5.215  0.1987 -0.3374 -1.1020
 4255TIP3    H234257   3.193   1.076   5.279 -0.4498  0.0015  0.4751
 4256TIP3   OH234258   0.311   0.874   0.550  0.0831  0.3854 -0.1741
 4256TIP3    H134259   0.343   0.802   0.604 -1.4916  0.2005  0.5342
 4256TIP3    H234260   0.301   0.947   0.611 -0.5994  0.5174 -0.4410
 4257TIP3   OH234261   4.790   3.654  12.412  0.1717 -0.2322  0.2017
 4257TIP3    H134262   4.772   3.725  12.351 -0.5065 -0.3843  0.2180
 4257TIP3    H234263   4.869   3.612  12.378 -0.1651 -0.2717 -0.5336
 4258TIP3   OH234264   6.291   3.505  11.660 -0.0865 -0.4500  0.0089
 4258TIP3    H134265   6.385   3.489  11.654 -0.4610 -2.4651 -0.8038
 4258TIP3    H234266   6.281   3.598  11.639  1.4441 -0.8408 -2.6734
 4259TIP3   OH234267   3.697   4.493   4.950 -0.3392 -0.2717 -0.1441
 4259TIP3    H134268   3.686   4.481   4.856  2.1201  0.8542 -0.6398
 4259TIP3    H234269   3.789   4.471   4.966 -0.0295  2.0008  1.5133
 4260TIP3   OH234270   5.275   0.746   4.511  0.2672 -1.1029 -0.0132
 4260TIP3    H134271   5.273   0.821   4.571  0.9219 -1.6741  0.7325
 4260TIP3    H234272   5.244   0.782   4.428  1.0102  0.1247  0.2148
 4261TIP3   OH234273   1.278   4.212   3.806 -0.3292 -0.2858 -0.5675
 4261TIP3    H134274   1.326   4.275   3.753 -0.1190 -0.7843 -0.9752
 4261TIP3    H234275   1.208   4.263   3.846  1.0480  0.6492  0.7300
 4262TIP3   OH234276   1.404   3.687   1.931  0.0601  0.4406 -0.8772
 4262TIP3    H134277   1.359   3.766   1.901 -1.3098  0.4095  0.9627
 4262TIP3    H234278   1.482   3.681   1.876 -0.7097  2.1067 -2.2041
 4263TIP3   OH234279   0.068   6.354   6.746  0.0528 -0.1872 -0.0229
 4263TIP3    H134280  -0.010   6.318   6.787  0.5311 -1.5237 -0.2618
 4263TIP3    H234281   0.138   6.341   6.811  0.5001 -0.9053 -0.6495
 4264TIP3   OH234282   3.979   1.577   4.381 -0.5783 -0.5642  0.0585
 4264TIP3    H134283   3.943   1.665   4.368 -1.9061 -1.4605 -2.8825
 4264TIP3    H234284   4.015   1.553   4.295  0.8840 -2.4163  1.1466
 4265TIP3   OH234285   5.256   1.225   5.041  0.2851 -0.2069 -0.2011
 4265TIP3    H134286   5.299   1.243   4.957 -0.2499 -1.2787 -0.7245
 4265TIP3    H234287   5.188   1.292   5.048  1.4381  0.9406  0.2014
 4266TIP3   OH234288   6.155   5.701   3.912 -0.4344 -0.1589 -0.1859
 4266TIP3    H134289   6.175   5.618   3.957 -0.8686 -0.3769 -0.3846
 4266TIP3    H234290   6.062   5.716   3.931 -0.1308  0.7445  0.5857
 4267TIP3   OH234291   4.450   6.284   0.555 -0.3243  0.3991 -0.2344
 4267TIP3    H134292   4.367   6.331   0.555  1.4496  3.7646  1.4049
 4267TIP3    H234293   4.442   6.220   0.626 -1.6390  0.4718 -0.3196
 4268TIP3   OH234294   3.559   3.041  10.984 -0.2161  0.2513 -0.1439
 4268TIP3    H134295   3.481   3.013  11.032  0.1540 -0.5697 -0.0049
 4268TIP3    H234296   3.577   2.969  10.924  0.3940  0.4702 -0.2250
 4269TIP3   OH234297   4.179   5.490   2.001  0.1059 -0.7077 -0.0071
 4269TIP3    H134298   4.159   5.464   1.911  1.1627 -0.8153 -0.2121
 4269TIP3    H234299   4.142   5.578   2.008 -0.5391 -0.9399 -0.3436
 4270TIP3   OH234300   3.048   6.612   4.376 -0.0110 -0.3547 -0.4162
 4270TIP3    H134301   3.076   6.654   4.294  0.8867  0.3647  0.2453
 4270TIP3    H234302   3.107   6.537   4.386  0.3264 -0.0478 -0.0860
 4271TIP3   OH234303   5.206   1.006  12.180  0.1762  0.1701  0.7548
 4271TIP3    H134304   5.211   1.079  12.117  3.0211 -1.0770 -0.5931
 4271TIP3    H234305   5.125   0.961  12.157  1.0055 -0.0962 -1.9155
 4272TIP3   OH234306   3.945   2.644  15.250  0.0287  0.4221 -0.4238
 4272TIP3    H134307   3.947   2.739  15.253  0.6551  0.3569  1.7122
 4272TIP3    H234308   4.014   2.620  15.188  0.1007  1.3249 -0.6907
 4273TIP3   OH234309   0.884   0.504   6.308 -0.4303 -0.4167  1.1047
 4273TIP3    H134310   0.840   0.466   6.384 -0.7134 -0.8638  0.7244
 4273TIP3    H234311   0.821   0.493   6.236  0.8527 -2.3973  0.2268
 4274TIP3   OH234312   5.237   6.297   4.799  0.7707  0.0582  0.1263
 4274TIP3    H134313   5.221   6.298   4.705 -0.3504 -0.8798  0.2955
 4274TIP3    H234314   5.292   6.220   4.813  1.8425  0.8077  0.1094
 4275TIP3   OH234315   6.379   0.628  15.195  0.6748  0.2406 -0.6049
 4275TIP3    H134316   6.368   0.538  15.227  1.2303  0.7242  0.9751
 4275TIP3    H234317   6.372   0.682  15.273  1.1932  1.5270 -1.4383
 4276TIP3   OH234318   2.710   3.978  16.625 -0.2905 -0.5278 -0.4209
 4276TIP3    H134319   2.666   4.038  16.566  0.9867  0.2791 -0.5767
 4276TIP3    H234320   2.802   4.005  16.622 -0.0725 -1.0537  1.2492
 4277TIP3   OH234321   1.413   5.088  11.217 -0.0777 -0.2641 -0.0695
 4277TIP3    H134322   1.324   5.065  11.192 -0.6000  0.6611  0.9407
 4277TIP3    H234323   1.444   5.013  11.267 -0.7639 -0.0107  0.7397
 4278TIP3   OH234324   0.378   5.392  15.223  0.6259  0.5098 -0.1473
 4278TIP3    H134325   0.323   5.378  15.146  2.4269  0.9316 -1.5329
 4278TIP3    H234326   0.421   5.308  15.237 -1.8119 -0.4284  2.1438
 4279TIP3   OH234327   0.120   1.648   2.341  0.0854  0.7613  0.1471
 4279TIP3    H134328   0.207   1.632   2.303  0.8856  1.9429  1.4139
 4279TIP3    H234329   0.111   1.743   2.339 -0.4324  0.7544  1.6226
 4280TIP3   OH234330   6.040   4.481   3.026 -0.1609  0.4743  0.1967
 4280TIP3    H134331   6.096   4.537   2.972  1.5906 -0.3003  1.1877
 4280TIP3    H234332   6.069   4.497   3.116  0.7799 -2.4697  0.4538
 4281TIP3   OH234333   1.561   6.106   3.191 -0.5316 -0.0116 -0.2417
 4281TIP3    H134334   1.505   6.091   3.267  0.4797 -0.6909  0.3819
 4281TIP3    H234335   1.552   6.199   3.171  1.0116  0.6842  2.1614
 4282TIP3   OH234336   2.152   3.743   2.033  0.2967  0.3622  0.1489
 4282TIP3    H134337   2.134   3.834   2.009 -3.3328  0.3376  2.3949
 4282TIP3    H234338   2.218   3.749   2.102  0.3207  1.2723  0.0502
 4283TIP3   OH234339   4.205   1.758  14.346 -0.0392  0.3809 -0.0920
 4283TIP3    H134340   4.125   1.718  14.380  1.3673 -2.1676  0.3091
 4283TIP3    H234341   4.188   1.767  14.252 -1.3152  1.1564  0.1935
 4284TIP3   OH234342   1.470   4.497   5.014  0.4764  0.0609 -0.0308
 4284TIP3    H134343   1.495   4.588   4.994 -0.0250  1.0098  3.2162
 4284TIP3    H234344   1.444   4.500   5.106  1.1656 -3.5609  0.3498
 4285TIP3   OH234345   5.843   4.511  14.350  0.2624  0.0949 -0.2949
 4285TIP3    H134346   5.931   4.538  14.374  0.8672 -0.8155 -1.4388
 4285TIP3    H234347   5.835   4.534  14.257 -1.8817  3.2201  0.5731
 4286TIP3   OH234348   0.631   0.622  13.628  0.1375 -0.0938 -0.2245
 4286TIP3    H134349   0.672   0.579  13.554 -0.2489 -1.4658  0.3258
 4286TIP3    H234350   0.671   0.709  13.632  0.3877 -0.1224 -1.8219
 4287TIP3   OH234351   5.978   1.476   5.616  0.5328  0.0828 -0.5334
 4287TIP3    H134352   6.004   1.543   5.679 -2.5677 -0.6034  1.6027
 4287TIP3    H234353   5.922   1.522   5.554 -0.2559 -0.1889 -0.0266
 4288TIP3   OH234354   3.144   2.809  16.784  0.3460  0.5680 -0.1284
 4288TIP3    H134355   3.176   2.887  16.828 -2.3749  1.8249 -0.2899
 4288TIP3    H234356   3.065   2.785  16.832 -0.2238 -0.6156 -1.6092
 4289TIP3   OH234357   0.204   3.803  16.876  0.4148  0.2514  0.0334
 4289TIP3    H134358   0.213   3.849  16.959 -2.3625 -0.9301  1.0554
 4289TIP3    H234359   0.127   3.842  16.835 -0.5117 -1.7567 -0.2065
 4290TIP3   OH234360   5.998   1.335  15.841 -0.5843  0.1905  0.8549
 4290TIP3    H134361   6.003   1.367  15.751  1.0864 -2.0255  0.1000
 4290TIP3    H234362   5.941   1.258  15.836 -1.5531  0.8266  1.9372
 4291TIP3   OH234363   0.712   0.735   4.265  0.4408 -0.4460  0.0833
 4291TIP3    H134364   0.676   0.685   4.191  0.8656 -1.6133  0.6444
 4291TIP3    H234365   0.800   0.759   4.237  0.2985 -0.1669 -0.1223
 4292TIP3   OH234366   4.091   4.915   3.700  0.1936  0.2995  0.1996
 4292TIP3    H134367   4.101   4.969   3.778  1.6791  0.0169  0.2268
 4292TIP3    H234368   4.020   4.854   3.721 -1.7651  2.4639  0.0193
 4293TIP3   OH234369   1.186   3.859  12.985 -0.2983 -0.1881 -0.3936
 4293TIP3    H134370   1.092   3.854  12.969 -0.6370  1.4469  0.9006
 4293TIP3    H234371   1.226   3.838  12.901 -1.8342 -0.1612 -1.1514
 4294TIP3   OH234372   5.563   3.601   0.529 -0.4112 -0.1035 -0.6120
 4294TIP3    H134373   5.515   3.519   0.519 -0.8972  0.2678 -1.3932
 4294TIP3    H234374   5.501   3.669   0.500 -0.3735  0.6309  0.9713
 4295TIP3   OH234375   3.587   0.174   2.009 -0.4514  0.1626  0.0535
 4295TIP3    H134376   3.520   0.226   1.964  1.3771 -0.1982 -3.1862
 4295TIP3    H234377   3.546   0.088   2.021 -1.5028  0.7068  0.5015
 4296TIP3   OH234378   1.886   6.415   0.712 -0.2867 -0.5386  0.3870
 4296TIP3    H134379   1.889   6.372   0.798  2.0592  0.1997  0.7159
 4296TIP3    H234380   1.936   6.357   0.655 -0.2269 -0.0744 -0.0335
 4297TIP3   OH234381   0.089   5.419   0.142  0.3571 -0.2881 -0.7980
 4297TIP3    H134382   0.034   5.462   0.076 -1.4523 -1.1875  0.0888
 4297TIP3    H234383   0.095   5.329   0.112 -0.2018 -0.6229  0.0739
 4298TIP3   OH234384   2.589   4.669   2.442 -0.1494  0.0891  0.1782
 4298TIP3    H134385   2.601   4.762   2.457  0.1938  0.1792 -0.6318
 4298TIP3    H234386   2.671   4.640   2.402 -0.3243 -0.5212  0.2463
 4299TIP3   OH234387   3.811   3.401   3.008  0.2782 -0.1855  0.0191
 4299TIP3    H134388   3.881   3.369   3.065  0.8011 -2.4140 -1.7874
 4299TIP3    H234389   3.731   3.367   3.048  0.4762 -0.2260  0.3929
 4300TIP3   OH234390   1.552   1.222   5.550 -0.2608 -0.1983 -0.2468
 4300TIP3    H134391   1.629   1.256   5.503 -1.7908  1.9168 -1.2967
 4300TIP3    H234392   1.508   1.167   5.485 -2.4963  2.9005 -1.5090
 4301TIP3   OH234393   2.111   2.297   1.144  0.2872  0.5356 -0.1423
 4301TIP3    H134394   2.021   2.327   1.126 -0.5319 -0.3909  2.2245
 4301TIP3    H234395   2.101   2.236   1.216  2.5326 -1.6336 -1.6085
 4302TIP3   OH234396   4.878   2.013  10.649 -0.0135 -0.2982 -0.1456
 4302TIP3    H134397   4.947   1.966  10.696  0.2747  0.6374  0.3916
 4302TIP3    H234398   4.916   2.030  10.562  0.7233  0.8405  0.3843
 4303TIP3   OH234399   5.743   3.792  16.645 -0.1977  0.0598 -0.2719
 4303TIP3    H134400   5.764   3.713  16.597  1.0031 -0.2865  0.7979
 4303TIP3    H234401   5.827   3.836  16.659 -0.4047 -0.1907  2.0519
 4304TIP3   OH234402   4.874   5.843   4.593  0.0640 -0.0014 -0.6623
 4304TIP3    H134403   4.826   5.926   4.590 -0.8342 -0.4316  0.9841
 4304TIP3    H234404   4.963   5.867   4.618  0.1577  0.6001 -1.5713
 4305TIP3   OH234405   3.635   2.145   6.166 -0.6663 -0.1073 -0.3137
 4305TIP3    H134406   3.663   2.126   6.255 -1.1441 -0.9304 -0.3310
 4305TIP3    H234407   3.593   2.231   6.171  1.8121  1.1575 -0.2859
 4306TIP3   OH234408   5.587   3.249   3.165  0.4318 -0.0488 -0.0317
 4306TIP3    H134409   5.546   3.252   3.252  0.6796  0.5518  0.0702
 4306TIP3    H234410   5.609   3.340   3.147  2.2639 -0.4263  0.1654
 4307TIP3   OH234411   5.544   1.113  15.134  0.2596  0.7230  0.0419
 4307TIP3    H134412   5.548   1.019  15.116  1.2643  1.0461 -1.5515
 4307TIP3    H234413   5.634   1.137  15.157  0.1849  1.4613 -0.4166
 4308TIP3   OH234414   5.669   0.218   1.901 -0.3189 -0.3274  0.7054
 4308TIP3    H134415   5.581   0.236   1.935 -0.6521 -0.8630  0.1343
 4308TIP3    H234416   5.723   0.290   1.935 -1.1768  0.5359  0.2745
 4309TIP3   OH234417   6.146   2.944  12.490 -0.3999 -0.5061 -0.0547
 4309TIP3    H134418   6.157   2.922  12.397  0.5349 -2.6134  0.5034
 4309TIP3    H234419   6.082   2.880  12.522 -0.3429 -0.1102  0.8467
 4310TIP3   OH234420   3.906   0.714  13.300  0.3221  0.4240  0.1354
 4310TIP3    H134421   3.988   0.675  13.329 -0.2690  0.1616  1.5052
 4310TIP3    H234422   3.852   0.641  13.271 -0.1392  0.3754  1.0750
 4311TIP3   OH234423   0.255   2.631   2.129  0.1801 -0.0211 -1.0441
 4311TIP3    H134424   0.160   2.623   2.121  0.1049 -1.1933  0.8025
 4311TIP3    H234425   0.289   2.548   2.096  0.4080 -0.6121  0.6188
 4312TIP3   OH234426   3.007   4.338  14.019  0.0507  0.4475  0.5420
 4312TIP3    H134427   2.923   4.351  14.063 -0.8852  0.1383 -1.1157
 4312TIP3    H234428   3.013   4.244  14.005  0.1862  0.5790 -0.2863
 4313TIP3   OH234429   2.737   2.388  16.738  0.5870 -0.0832  0.1647
 4313TIP3    H134430   2.802   2.341  16.686 -0.5241 -2.0596  0.5381
 4313TIP3    H234431   2.677   2.425  16.674 -0.0583 -1.4485 -0.0293
 4314TIP3   OH234432   1.782   3.291   5.401  0.4213  0.4203 -0.1702
 4314TIP3    H134433   1.764   3.363   5.340  2.1958  0.9953 -0.0168
 4314TIP3    H234434   1.875   3.297   5.420  0.8012 -2.4669 -0.8521
 4315TIP3   OH234435   3.350   1.363   1.853  0.1788 -0.4765 -0.1032
 4315TIP3    H134436   3.300   1.373   1.934  0.6814 -1.5341  0.3421
 4315TIP3    H234437   3.427   1.418   1.865  0.2407 -0.6143  0.1241
 4316TIP3   OH234438   3.844   4.122  13.639  0.2500  0.1536  0.0137
 4316TIP3    H134439   3.828   4.124  13.545  0.6664 -0.0276 -0.0612
 4316TIP3    H234440   3.769   4.168  13.677 -0.2157 -0.2941 -0.3616
 4317TIP3   OH234441   5.406   0.465   1.764  0.3415 -0.3429 -0.2706
 4317TIP3    H134442   5.323   0.449   1.719 -0.1207  1.5342 -0.1088
 4317TIP3    H234443   5.469   0.482   1.694  0.0441  0.6815 -0.2898
 4318TIP3   OH234444   5.959   2.921   0.309  0.4581  0.0190 -0.5856
 4318TIP3    H134445   6.049   2.953   0.316 -0.0790  1.5415 -0.3730
 4318TIP3    H234446   5.912   2.965   0.380 -0.3164 -1.2970 -0.2518
 4319TIP3   OH234447   3.647   3.840   3.513  0.2337 -0.1799 -0.0763
 4319TIP3    H134448   3.715   3.891   3.555 -0.9604  0.3014  1.3234
 4319TIP3    H234449   3.617   3.779   3.580  0.0260 -1.1285 -1.0090
 4320TIP3   OH234450   5.481   2.961   5.738 -0.1185  0.1810  0.1970
 4320TIP3    H134451   5.527   3.014   5.803  0.8199  0.1178 -0.3905
 4320TIP3    H234452   5.389   2.985   5.747  0.0054  0.1719  1.5308
 4321TIP3   OH234453   0.604   1.916   3.446  0.4760 -0.0292 -0.2284
 4321TIP3    H134454   0.630   1.860   3.373  1.1507 -0.7348  0.5359
 4321TIP3    H234455   0.537   1.866   3.493  0.5729  0.1009  0.0537
 4322TIP3   OH234456   5.859   0.250   4.748 -0.6773  0.0134 -0.0451
 4322TIP3    H134457   5.816   0.164   4.755  0.8001 -0.6865  0.8279
 4322TIP3    H234458   5.822   0.301   4.820 -0.0592 -0.5975  0.7267
 4323TIP3   OH234459   3.579   3.916   5.578 -0.5544 -0.0690 -0.1179
 4323TIP3    H134460   3.486   3.890   5.576 -0.1242 -1.6632 -0.3985
 4323TIP3    H234461   3.587   3.970   5.657 -1.3117 -1.6418  1.0722
 4324TIP3   OH234462   3.314   4.051   2.327  0.6859  0.8053  0.3109
 4324TIP3    H134463   3.335   4.001   2.248 -0.6110  0.0421  0.4523
 4324TIP3    H234464   3.323   4.143   2.300  0.7957  0.5376 -0.5655
 4325TIP3   OH234465   4.268   4.246  14.427  0.5802  0.0526  0.0713
 4325TIP3    H134466   4.315   4.307  14.484  3.0963 -0.4491 -1.3766
 4325TIP3    H234467   4.230   4.182  14.486  0.3986  1.3549  1.3929
 4326TIP3   OH234468   0.920   5.475   3.664  0.1340  0.2385 -0.1806
 4326TIP3    H134469   0.826   5.460   3.666  0.0356  0.8708 -0.1261
 4326TIP3    H234470   0.958   5.388   3.675 -0.4425  0.0547  0.3663
 4327TIP3   OH234471   5.896   1.458   3.461 -1.0471  0.2277 -0.4752
 4327TIP3    H134472   5.895   1.488   3.552 -1.0338 -0.9978 -0.0516
 4327TIP3    H234473   5.858   1.370   3.465 -0.2396 -0.1748 -1.5191
 4328TIP3   OH234474   1.792   4.089   5.133  0.3288  0.3804 -0.4780
 4328TIP3    H134475   1.746   4.170   5.113  0.1134  0.8323  1.6736
 4328TIP3    H234476   1.724   4.023   5.137 -0.0060  0.7815  1.2492
 4329TIP3   OH234477   4.339   1.000  17.131  0.1787 -0.2379 -0.8907
 4329TIP3    H134478   4.413   1.004  17.070  1.6116  0.8496  0.8562
 4329TIP3    H234479   4.267   1.043  17.084  1.1589  0.2976 -1.9474
 4330TIP3   OH234480   1.641   0.579   4.966 -0.0864  0.3833 -0.5785
 4330TIP3    H134481   1.637   0.522   4.889 -0.9158  0.1549 -0.3688
 4330TIP3    H234482   1.563   0.633   4.959 -1.7830 -1.6538  1.6622
 4331TIP3   OH234483   6.567   3.840  13.627 -0.1615  0.3409  0.0446
 4331TIP3    H134484   6.561   3.776  13.698 -1.4348  1.3834  0.9078
 4331TIP3    H234485   6.599   3.920  13.669  1.4768  0.2821 -1.0335
 4332TIP3   OH234486   4.586   0.675  14.252  0.6109 -0.1304  0.3771
 4332TIP3    H134487   4.503   0.635  14.278 -0.1032  1.3476  0.4179
 4332TIP3    H234488   4.653   0.617  14.287 -0.4042 -1.1372  0.6644
 4333TIP3   OH234489   5.723   3.587  11.613  0.1973  0.6631 -0.4661
 4333TIP3    H134490   5.714   3.555  11.523 -0.5170  0.2591 -0.2550
 4333TIP3    H234491   5.647   3.644  11.626 -1.3377 -1.5932  0.8425
 4334TIP3   OH234492   3.548   0.637  14.664 -0.3396  0.3085 -0.5343
 4334TIP3    H134493   3.524   0.663  14.575 -0.3137  1.1259 -0.3116
 4334TIP3    H234494   3.544   0.719  14.714 -0.8205 -0.2283  0.3121
 4335TIP3   OH234495   0.258   0.680   2.698  0.1343 -0.0683 -0.3103
 4335TIP3    H134496   0.271   0.742   2.626 -1.6399 -0.7366 -1.2515
 4335TIP3    H234497   0.320   0.708   2.765  1.6503  0.7374 -1.9813
 4336TIP3   OH234498   6.040   2.110  17.203  0.0118  0.0987  0.3584
 4336TIP3    H134499   6.084   2.121  17.119 -0.9027 -3.4632 -0.6857
 4336TIP3    H234500   6.108   2.122  17.268  1.5439 -0.8041 -1.0499
 4337TIP3   OH234501   5.469   3.439   4.562  0.5072  0.3250  0.7434
 4337TIP3    H134502   5.446   3.406   4.649 -2.7480  0.2233 -0.0558
 4337TIP3    H234503   5.471   3.534   4.572 -0.7667  0.3588  0.7584
 4338TIP3   OH234504   2.011   2.018   2.490 -0.3926  0.1180  0.1403
 4338TIP3    H134505   2.012   2.110   2.465 -1.9956  0.7114  2.0991
 4338TIP3    H234506   1.931   1.983   2.451  1.9399 -1.3830 -3.5458
 4339TIP3   OH234507   5.871   2.164   5.261  0.7468 -0.0992  0.5020
 4339TIP3    H134508   5.904   2.245   5.220  0.1556  0.5507  1.2942
 4339TIP3    H234509   5.779   2.183   5.281  0.7977 -0.7134  1.3416
 4340TIP3   OH234510   6.186   5.473   3.358 -0.4345  0.3810 -0.2473
 4340TIP3    H134511   6.165   5.381   3.340 -0.8248  0.8646 -2.3562
 4340TIP3    H234512   6.135   5.494   3.436  0.1360 -1.3626  0.6294
 4341TIP3   OH234513   3.131   2.378  13.332  0.4296  0.3701 -0.4750
 4341TIP3    H134514   3.042   2.345  13.319  0.3934  0.5387 -0.6663
 4341TIP3    H234515   3.125   2.470  13.306  0.9870  0.0339 -1.8483
 4342TIP3   OH234516   1.189   5.551   1.506 -0.5273  0.6655  0.2334
 4342TIP3    H134517   1.167   5.617   1.440  0.2924  2.0735  1.3408
 4342TIP3    H234518   1.108   5.536   1.554 -1.2253 -0.6414 -1.3065
 4343TIP3   OH234519   1.029   1.647   5.465 -0.7867 -0.0420 -0.5047
 4343TIP3    H134520   1.011   1.736   5.436 -0.1323  0.7769  1.5237
 4343TIP3    H234521   1.098   1.616   5.407  0.1819  1.3901 -0.1320
 4344TIP3   OH234522   3.404   5.189   2.865  0.3833 -0.2069  0.0435
 4344TIP3    H134523   3.491   5.157   2.843  1.0524  0.9646  0.8974
 4344TIP3    H234524   3.407   5.283   2.845 -0.3534  0.0338  0.9876
 4345TIP3   OH234525   5.491   5.277   0.837 -0.2201  0.1856  0.5564
 4345TIP3    H134526   5.499   5.264   0.743  3.0920  0.0200  0.8062
 4345TIP3    H234527   5.401   5.249   0.857 -1.2107  0.8658 -2.6014
 4346TIP3   OH234528   4.492   1.983   1.187 -0.0973  0.2391  0.2726
 4346TIP3    H134529   4.533   1.934   1.259 -1.8672 -0.3170  0.9301
 4346TIP3    H234530   4.489   1.921   1.115 -0.5092  0.0215  0.4758
 4347TIP3   OH234531   4.061   3.938  17.167  0.5359 -0.6892  0.2184
 4347TIP3    H134532   4.124   3.981  17.225  0.5123  0.9223 -0.8975
 4347TIP3    H234533   3.978   3.940  17.215  0.4887  0.7503  0.0943
 4348TIP3   OH234534   5.208   2.617   1.522 -0.4658 -0.2624  0.2351
 4348TIP3    H134535   5.215   2.552   1.452  0.9043  0.3768 -0.2388
 4348TIP3    H234536   5.243   2.572   1.599 -2.0910 -1.0085  0.5671
 4349TIP3   OH234537   4.707   3.977   5.138  0.0477 -0.2698  0.3627
 4349TIP3    H134538   4.624   4.022   5.121 -0.5592 -1.5649 -0.1845
 4349TIP3    H234539   4.731   4.005   5.226 -0.2298  1.2420 -0.0257
 4350TIP3   OH234540   6.074   5.567   5.251  0.1129 -0.1479  0.2341
 4350TIP3    H134541   6.160   5.590   5.286 -0.0651  0.1766  0.4609
 4350TIP3    H234542   6.087   5.561   5.156  0.3880 -0.1113  0.2701
 4351TIP3   OH234543   2.556   4.706   5.460 -0.1637 -0.3096 -0.0147
 4351TIP3    H134544   2.487   4.742   5.404 -1.0389 -1.0791  0.5518
 4351TIP3    H234545   2.551   4.758   5.540 -0.3999 -0.6672  0.2057
 4352TIP3   OH234546   0.530   1.637   3.492 -0.8807 -0.0691 -0.6118
 4352TIP3    H134547   0.480   1.670   3.567  0.0276  0.7434 -0.3428
 4352TIP3    H234548   0.471   1.647   3.417 -1.0536  1.0966 -0.3410
 4353TIP3   OH234549   0.426   2.665   4.730 -0.4412 -0.1198  0.1017
 4353TIP3    H134550   0.455   2.698   4.815 -0.4771 -0.0231  0.0764
 4353TIP3    H234551   0.507   2.644   4.684 -0.3495  1.5192 -0.5215
 4354TIP3   OH234552   3.907   1.386  15.859 -0.3719 -0.2811 -0.2253
 4354TIP3    H134553   3.989   1.358  15.898 -0.2010 -0.0709 -0.4286
 4354TIP3    H234554   3.916   1.365  15.766  0.3209  1.7162 -0.6351
 4355TIP3   OH234555   5.013   4.750   5.794 -0.6469 -0.4890  0.7008
 4355TIP3    H134556   4.964   4.833   5.797  0.0232 -0.0660  0.0330
 4355TIP3    H234557   5.086   4.764   5.855  0.2675 -0.0654 -0.4746
 4356TIP3   OH234558   3.709   0.931   3.692 -1.0129 -0.2070 -0.4837
 4356TIP3    H134559   3.746   1.017   3.712 -0.9003 -0.3110 -0.2503
 4356TIP3    H234560   3.784   0.877   3.670 -0.6426 -1.4001  3.4586
 4357TIP3   OH234561   0.063   4.198   2.994  0.1247  0.0783  0.3726
 4357TIP3    H134562   0.010   4.120   2.973  0.3643  0.0293 -0.0664
 4357TIP3    H234563  -0.001   4.269   2.998 -0.2973 -0.3700  2.2039
 4358TIP3   OH234564   2.751   5.319   2.405  0.3836 -0.0858  0.2535
 4358TIP3    H134565   2.803   5.350   2.478 -1.2369  1.8903  0.5946
 4358TIP3    H234566   2.683   5.264   2.445  0.9372 -0.9789 -0.0088
 4359TIP3   OH234567   2.968   2.798  14.658 -0.1009  0.6716  0.5936
 4359TIP3    H134568   2.897   2.756  14.708 -0.1547 -1.5102 -1.2290
 4359TIP3    H234569   2.999   2.729  14.599  2.7614  1.9513  0.5272
 4360TIP3   OH234570   0.300   5.653   5.893 -0.0878 -0.2726 -0.0499
 4360TIP3    H134571   0.262   5.586   5.837 -2.7376  2.7446 -2.0690
 4360TIP3    H234572   0.385   5.673   5.853 -0.3714 -0.7182 -0.8912
 4361TIP3   OH234573   5.036   3.055   1.397 -0.1800 -0.3105  0.2650
 4361TIP3    H134574   5.097   2.997   1.443  2.1127  0.9207 -1.1742
 4361TIP3    H234575   5.087   3.091   1.325 -1.9085  2.6566  0.4746
 4362TIP3   OH234576   6.411   5.756   2.895 -0.0834  0.0138 -0.1226
 4362TIP3    H134577   6.474   5.699   2.850  1.7271  0.8563  1.2406
 4362TIP3    H234578   6.456   5.840   2.902 -1.9405  1.0476 -0.3617
 4363TIP3   OH234579   5.034   4.588  12.181 -0.6886 -0.2078 -0.4920
 4363TIP3    H134580   5.085   4.642  12.120  0.2950  0.3842  0.8492
 4363TIP3    H234581   4.947   4.585  12.143  0.6805 -2.6469 -3.7806
 4364TIP3   OH234582   2.674   4.423  10.964  0.2324  0.2912  0.0497
 4364TIP3    H134583   2.695   4.367  10.889  2.9534  0.1348  0.8467
 4364TIP3    H234584   2.659   4.510  10.927 -0.9133 -0.2903 -0.8874
 4365TIP3   OH234585   4.456   3.431  14.194 -0.1272  0.0515 -0.3438
 4365TIP3    H134586   4.498   3.466  14.272 -0.6947 -2.1275  0.9740
 4365TIP3    H234587   4.459   3.502  14.131  1.6106  1.3665  1.1951
 4366TIP3   OH234588   0.653   2.564   5.813 -0.7242 -0.0590  0.3461
 4366TIP3    H134589   0.561   2.576   5.792 -0.3899  0.6856 -0.7056
 4366TIP3    H234590   0.661   2.471   5.833 -1.1881 -0.6676 -2.1755
 4367TIP3   OH234591   1.417   2.167  12.597  0.7672  0.0095  0.4510
 4367TIP3    H134592   1.421   2.262  12.585 -0.4093 -0.3144 -2.9620
 4367TIP3    H234593   1.326   2.149  12.619  0.2237 -0.5753 -2.0530
 4368TIP3   OH234594   6.388   1.286   5.692 -0.2804  0.5907  0.3958
 4368TIP3    H134595   6.307   1.236   5.686 -0.6194  1.2085 -0.2483
 4368TIP3    H234596   6.378   1.339   5.771 -0.8487  1.2624 -0.1225
 4369TIP3   OH234597   3.371   5.076  12.780 -0.4740  0.0281  0.2865
 4369TIP3    H134598   3.446   5.078  12.839  0.9767  0.5154 -1.5142
 4369TIP3    H234599   3.324   5.157  12.797 -0.0202  0.2010  0.7246
 4370TIP3   OH234600   2.981   6.575  16.395 -0.3433 -0.4863  0.2341
 4370TIP3    H134601   2.908   6.610  16.343 -0.4877 -0.5859  0.3699
 4370TIP3    H234602   2.942   6.506  16.448 -0.3776  0.1897  1.0990
 4371TIP3   OH234603   0.818   6.063  12.052 -0.0848 -0.3198 -0.0785
 4371TIP3    H134604   0.873   6.140  12.044 -0.0316 -0.0150  2.7183
 4371TIP3    H234605   0.879   5.989  12.043  0.3514 -0.0020  0.2386
 4372TIP3   OH234606   0.600   2.607   3.810  0.0078 -0.4063 -0.0447
 4372TIP3    H134607   0.520   2.606   3.757  0.0942  1.1347 -0.2445
 4372TIP3    H234608   0.670   2.622   3.746  0.2133  0.4880  0.3842
 4373TIP3   OH234609   3.726   3.704  14.947  0.9513  0.3485 -0.0400
 4373TIP3    H134610   3.639   3.727  14.978  1.0956 -0.0260  0.6672
 4373TIP3    H234611   3.753   3.631  15.003  1.0214 -0.6726 -1.3685
 4374TIP3   OH234612   0.400   6.679  11.325 -0.0123  0.1409  0.3321
 4374TIP3    H134613   0.407   6.758  11.271 -0.0178 -0.6545 -0.8423
 4374TIP3    H234614   0.472   6.624  11.296 -0.1670 -0.4075  0.9767
 4375TIP3   OH234615   5.581   4.524   3.198 -0.0205  0.1552  0.1707
 4375TIP3    H134616   5.647   4.591   3.215 -0.5671  0.6665  0.2628
 4375TIP3    H234617   5.573   4.476   3.280  0.3859 -0.0466  0.0972
 4376TIP3   OH234618   6.535   2.542   3.581  0.2084  0.2409  0.0218
 4376TIP3    H134619   6.506   2.632   3.565  1.9590  1.0228  1.0513
 4376TIP3    H234620   6.567   2.543   3.671  2.3414 -0.8420 -0.6922
 4377TIP3   OH234621   5.315   2.400   2.962 -0.0288 -0.2732 -0.1078
 4377TIP3    H134622   5.383   2.343   2.999 -1.2082 -0.8049  1.2818
 4377TIP3    H234623   5.250   2.341   2.927 -1.9472  0.1229  2.5954
 4378TIP3   OH234624   2.847   4.540  12.137 -0.3711 -0.0125  0.3705
 4378TIP3    H134625   2.907   4.547  12.211  1.3368  1.8931 -1.1263
 4378TIP3    H234626   2.884   4.598  12.070 -2.7014 -0.4799 -1.4145
 4379TIP3   OH234627   4.864   2.773   0.053  0.2190  0.2617  0.5155
 4379TIP3    H134628   4.839   2.819  -0.027  1.7967  1.6873  0.8199
 4379TIP3    H234629   4.955   2.746   0.038  1.0793  1.9233  2.3913
 4380TIP3   OH234630   0.850   1.366   0.322 -0.1468 -0.2629 -0.2981
 4380TIP3    H134631   0.886   1.340   0.408 -1.4112 -0.0433  0.3072
 4380TIP3    H234632   0.927   1.392   0.271  0.7351 -1.4136  0.4128
 4381TIP3   OH234633   2.665   2.253  15.666  1.0850 -0.0063  0.4011
 4381TIP3    H134634   2.606   2.323  15.694  2.0921  1.2635 -0.6039
 4381TIP3    H234635   2.609   2.194  15.616  0.3866  0.5072  0.5594
 4382TIP3   OH234636   4.795   0.128  16.450 -0.2341  0.1015 -0.0639
 4382TIP3    H134637   4.718   0.154  16.500 -0.3849 -1.3908  0.5205
 4382TIP3    H234638   4.869   0.149  16.506 -0.2554  0.8048 -0.2939
 4383TIP3   OH234639   3.920   0.129  13.486  0.4849 -0.5569 -0.2888
 4383TIP3    H134640   3.865   0.142  13.563 -0.1019 -0.2068 -0.7540
 4383TIP3    H234641   3.954   0.041  13.495 -0.0983 -0.7496  0.0484
 4384TIP3   OH234642   2.135   5.292   5.929  0.0029  0.6111  0.2597
 4384TIP3    H134643   2.082   5.225   5.972  0.7927 -0.3197 -0.1936
 4384TIP3    H234644   2.100   5.374   5.961 -0.7085 -0.0302  1.1559
 4385TIP3   OH234645   5.306   6.764   5.460 -0.7661 -0.3118  0.3025
 4385TIP3    H134646   5.335   6.808   5.540  0.9484 -0.8680 -0.0106
 4385TIP3    H234647   5.354   6.681   5.459 -0.1226  0.0632 -1.7620
 4386TIP3   OH234648   4.717   0.949  15.851  0.1227 -0.1846  0.1171
 4386TIP3    H134649   4.801   0.903  15.847  0.3570  0.3458 -1.0565
 4386TIP3    H234650   4.717   1.008  15.776 -0.2156  1.6831  1.5169
 4387TIP3   OH234651   3.357   3.088  10.757  0.1872 -0.0598 -0.8501
 4387TIP3    H134652   3.380   3.057  10.669 -0.8885  0.0621 -1.1809
 4387TIP3    H234653   3.438   3.079  10.807  1.2657  1.3767 -2.2770
 4388TIP3   OH234654   3.538   2.456  14.741  0.3195 -0.0037  0.2881
 4388TIP3    H134655   3.442   2.451  14.747  0.3021  1.3895  1.3404
 4388TIP3    H234656   3.557   2.550  14.739  1.5768 -0.2725 -1.6648
 4389TIP3   OH234657   5.259   6.189  14.844 -0.2965 -0.0464  0.4084
 4389TIP3    H134658   5.271   6.270  14.793 -3.0152 -0.6771 -1.3370
 4389TIP3    H234659   5.166   6.187  14.865 -0.1939 -2.5064  0.8156
 4390TIP3   OH234660   4.847   3.522  14.101 -0.6951 -0.7396  0.1922
 4390TIP3    H134661   4.939   3.506  14.081 -0.5509  1.1798 -0.7740
 4390TIP3    H234662   4.799   3.474  14.033 -0.4047 -1.1154  0.2499
 4391TIP3   OH234663   2.918   1.822  12.393  0.0432 -0.1902 -0.0162
 4391TIP3    H134664   2.864   1.746  12.415  1.1718 -0.9625  0.1120
 4391TIP3    H234665   2.990   1.819  12.455  0.8957  0.1488 -0.9813
 4392TIP3   OH234666   2.553   4.197  15.538 -0.0447  0.1184 -0.2362
 4392TIP3    H134667   2.525   4.265  15.599  0.2750 -0.2534  0.3233
 4392TIP3    H234668   2.533   4.114  15.582 -2.9687 -0.2098 -2.0298
 4393TIP3   OH234669   1.673   3.244   1.115  0.2450 -0.7182 -0.4001
 4393TIP3    H134670   1.679   3.257   1.210  0.7938  0.0961 -0.5403
 4393TIP3    H234671   1.687   3.331   1.078  1.1467 -1.2190 -1.2665
 4394TIP3   OH234672   2.318   4.011  12.726 -0.0407  0.2483  0.0486
 4394TIP3    H134673   2.277   3.941  12.676 -2.6879  3.3626 -2.3552
 4394TIP3    H234674   2.298   3.991  12.817 -0.3691 -2.3234 -0.5604
 4395TIP3   OH234675   3.197   1.793   0.216  0.1824  0.1724  0.0235
 4395TIP3    H134676   3.207   1.698   0.214  2.1970  0.3630  0.1344
 4395TIP3    H234677   3.216   1.821   0.127 -1.0909  0.4330 -0.1810
 4396TIP3   OH234678   5.872   1.326  13.569  0.0464 -0.3493 -0.0068
 4396TIP3    H134679   5.913   1.382  13.634  2.7683 -0.2616 -1.7258
 4396TIP3    H234680   5.840   1.386  13.501 -1.3046 -0.5546  0.4338
 4397TIP3   OH234681   4.850   3.862  14.980  0.0982  0.3556 -0.1602
 4397TIP3    H134682   4.797   3.793  15.019  0.0228  0.5542  0.0896
 4397TIP3    H234683   4.940   3.838  15.003 -0.0219  1.0464  1.0594
 4398TIP3   OH234684   5.356   6.266   1.206  0.1819  0.7161 -0.1201
 4398TIP3    H134685   5.441   6.302   1.179  0.5076 -0.8826 -1.2569
 4398TIP3    H234686   5.304   6.265   1.127 -0.8661  1.5551  0.5489
 4399TIP3   OH234687   4.511   4.395   2.649 -0.3677  0.0660 -0.4847
 4399TIP3    H134688   4.559   4.314   2.665  0.9337  0.9620  0.2205
 4399TIP3    H234689   4.516   4.408   2.555  0.3600 -0.0809 -0.4647
 4400TIP3   OH234690   6.097   6.061   6.580  0.6396 -0.3095 -0.0427
 4400TIP3    H134691   6.140   5.977   6.563  1.6440  0.4463 -1.2834
 4400TIP3    H234692   6.160   6.127   6.551 -2.1267  0.8044 -3.7965
 4401TIP3   OH234693   0.582   2.071  13.265 -0.0451 -0.1308  0.7226
 4401TIP3    H134694   0.660   2.050  13.213 -0.4903  1.9503 -0.8620
 4401TIP3    H234695   0.518   2.005  13.239  1.2392 -2.0016  2.2122
 4402TIP3   OH234696   4.594   3.191  15.418  0.1337 -0.4084  0.3588
 4402TIP3    H134697   4.503   3.162  15.409  0.9432 -2.8364 -0.4640
 4402TIP3    H234698   4.640   3.114  15.452  2.1947  0.2341 -0.8941
 4403TIP3   OH234699   6.553   6.575  14.601 -0.0834 -0.3113  0.1271
 4403TIP3    H134700   6.461   6.559  14.626 -0.2629 -0.3924 -0.5788
 4403TIP3    H234701   6.547   6.614  14.514  0.5114  0.5899  0.4903
 4404TIP3   OH234702   1.919   1.716   0.872  0.3673  0.0668 -0.2696
 4404TIP3    H134703   1.982   1.647   0.854 -0.8909 -0.5400 -2.5682
 4404TIP3    H234704   1.859   1.678   0.936  0.0753 -0.7442 -1.0172
 4405TIP3   OH234705   5.065   0.794   2.556 -1.2675  0.3164  0.0552
 4405TIP3    H134706   5.102   0.729   2.497  0.1264  0.1236  1.1314
 4405TIP3    H234707   5.068   0.876   2.506 -0.0605  0.1602 -0.1324
 4406TIP3   OH234708   0.616   4.345   0.330 -0.3662  0.9783  0.5392
 4406TIP3    H134709   0.655   4.260   0.311 -1.2723  0.6555  0.0767
 4406TIP3    H234710   0.594   4.341   0.423  0.8428  1.2336  0.8527
 4407TIP3   OH234711   3.004   6.762   3.530  0.2369  0.4854 -0.7455
 4407TIP3    H134712   2.999   6.693   3.463  1.9209  0.0071 -0.3903
 4407TIP3    H234713   3.081   6.813   3.506  0.9518  0.2139  0.9228
 4408TIP3   OH234714   0.568   5.465  12.201 -0.5221  0.1847  0.3887
 4408TIP3    H134715   0.526   5.412  12.133 -0.2587  0.7616 -0.2292
 4408TIP3    H234716   0.662   5.462  12.179 -0.6832  2.3745 -0.7038
 4409TIP3   OH234717   2.330   0.229  13.272  0.3428  0.0121 -0.1333
 4409TIP3    H134718   2.277   0.207  13.195 -2.4300  1.6637  1.2418
 4409TIP3    H234719   2.334   0.148  13.322  0.2407 -0.4741 -0.8968
 4410TIP3   OH234720   3.080   4.038  13.617  0.1918  0.1129  0.1296
 4410TIP3    H134721   3.156   4.014  13.565  0.5995  0.6829  0.4525
 4410TIP3    H234722   3.038   3.955  13.640  0.4602 -0.1783 -0.4253
 4411TIP3   OH234723   2.974   0.110   3.992 -0.0994 -0.2451 -0.5195
 4411TIP3    H134724   3.005   0.144   3.908  0.0673 -3.5063 -1.8457
 4411TIP3    H234725   2.954   0.188   4.044  5.2242  1.9767 -1.4921
 4412TIP3   OH234726   0.728   0.373  13.120 -0.6228 -0.5214 -0.4789
 4412TIP3    H134727   0.688   0.394  13.035  0.5827 -1.5709 -1.3255
 4412TIP3    H234728   0.680   0.296  13.150  0.3915 -1.4795 -1.2614
 4413TIP3   OH234729   1.860   0.609  12.095 -0.1536  0.0070 -0.0668
 4413TIP3    H134730   1.926   0.598  12.027 -0.1068 -0.1305 -0.0005
 4413TIP3    H234731   1.892   0.555  12.168  0.3281  0.9614  0.4501
 4414TIP3   OH234732   1.562   0.750   0.421  0.2465  0.5182 -0.1899
 4414TIP3    H134733   1.559   0.830   0.474  0.9602 -0.5936  1.6038
 4414TIP3    H234734   1.654   0.744   0.393  0.5552 -0.4767  0.9973
 4415TIP3   OH234735   2.541   2.677   1.857  0.4294  0.2674  0.2981
 4415TIP3    H134736   2.451   2.700   1.837 -0.3729 -3.1146 -0.2749
 4415TIP3    H234737   2.546   2.583   1.841  3.7227  0.1535  1.5711
 4416TIP3   OH234738   0.017   3.935   5.459  0.0752 -0.3465 -0.2200
 4416TIP3    H134739  -0.035   4.014   5.448  1.4937  0.6261 -0.0600
 4416TIP3    H234740   0.001   3.884   5.380 -1.9649 -0.5861  0.3083
 4417TIP3   OH234741   4.660   2.925  11.391  0.4968 -0.5497 -0.0758
 4417TIP3    H134742   4.647   2.943  11.298 -0.6017 -0.6268  0.0626
 4417TIP3    H234743   4.718   2.849  11.393  2.1189  0.6403 -0.6862
 4418TIP3   OH234744   2.962   4.094  12.750  0.5205 -0.2515 -0.0254
 4418TIP3    H134745   2.882   4.072  12.797  1.3362 -0.9377  1.0511
 4418TIP3    H234746   2.939   4.173  12.700 -0.3128  0.6088  1.6622
 4419TIP3   OH234747   6.793   1.792   2.631  0.3225  0.0994 -0.0030
 4419TIP3    H134748   6.734   1.739   2.684 -0.1083 -0.6866 -1.2253
 4419TIP3    H234749   6.807   1.872   2.681 -1.1422 -0.0598  0.6626
 4420TIP3   OH234750   4.179   2.957   0.863 -0.0055  0.7935  0.1484
 4420TIP3    H134751   4.218   3.018   0.926  0.4925  0.1218  0.4956
 4420TIP3    H234752   4.208   2.989   0.778 -0.5208  1.5925  0.2696
 4421TIP3   OH234753   5.640   4.190  12.344 -0.1560  0.4839  0.6388
 4421TIP3    H134754   5.680   4.146  12.269  2.5996  0.6528  1.9491
 4421TIP3    H234755   5.586   4.259  12.306  0.2988 -0.1737 -1.2189
 4422TIP3   OH234756   3.607   2.381   4.183 -0.0788  0.1647  0.1711
 4422TIP3    H134757   3.532   2.329   4.153  0.1917  0.3320 -0.8039
 4422TIP3    H234758   3.665   2.316   4.223 -0.2305 -0.1280 -0.0741
 4423TIP3   OH234759   2.959   6.157   1.396  0.3740 -0.3232 -0.1234
 4423TIP3    H134760   3.026   6.203   1.346  1.2902 -1.5451 -0.0532
 4423TIP3    H234761   3.007   6.085   1.438 -0.4353  0.4655  2.2098
 4424TIP3   OH234762   3.883   1.010  10.308 -0.5987 -0.3457 -0.1392
 4424TIP3    H134763   3.820   1.071  10.271 -0.2296  0.4646  0.5666
 4424TIP3    H234764   3.942   1.064  10.361  0.7424 -1.0796 -0.8487
 4425TIP3   OH234765   1.502   5.035   3.023 -0.1716 -0.2481  0.5176
 4425TIP3    H134766   1.571   5.079   2.973 -0.4935 -0.2325  0.0804
 4425TIP3    H234767   1.523   4.942   3.015 -1.7455 -0.4289 -1.9564
 4426TIP3   OH234768   4.497   1.790   4.737 -0.4217 -0.0978  0.2102
 4426TIP3    H134769   4.410   1.779   4.700 -0.3829 -1.6279  0.5444
 4426TIP3    H234770   4.497   1.735   4.816 -0.4287  2.9195  2.4071
 4427TIP3   OH234771   3.192   0.321  15.043 -0.0260  0.0323 -0.2340
 4427TIP3    H134772   3.176   0.273  15.125  1.3258  0.5636  0.3606
 4427TIP3    H234773   3.131   0.394  15.046  0.3222  0.2961  0.5151
 4428TIP3   OH234774   5.354   1.340   1.925  0.6768  0.6473 -0.3808
 4428TIP3    H134775   5.289   1.321   1.857 -0.4086 -0.4106  0.9475
 4428TIP3    H234776   5.374   1.433   1.913 -1.8824  1.2567 -0.1049
 4429TIP3   OH234777   5.657   6.699   6.494  0.1188  0.0615 -0.3126
 4429TIP3    H134778   5.636   6.688   6.401  1.2331  0.2085 -0.5902
 4429TIP3    H234779   5.587   6.755   6.528 -2.0307 -2.5352 -0.3364
 4430TIP3   OH234780   4.579   2.154   1.838  0.4593 -0.2258 -0.0037
 4430TIP3    H134781   4.603   2.080   1.894  0.0897  0.9270  1.7474
 4430TIP3    H234782   4.514   2.202   1.890 -1.1963 -0.0713 -2.1781
 4431TIP3   OH234783   6.453   5.626  14.538 -0.5910 -0.5202  0.1980
 4431TIP3    H134784   6.423   5.713  14.564  0.6059 -0.1379  0.3468
 4431TIP3    H234785   6.464   5.631  14.443  0.9874 -0.0051  0.3856
 4432TIP3   OH234786   2.151   5.617  15.861  0.4125  0.0921  0.2339
 4432TIP3    H134787   2.199   5.689  15.900  0.1858  0.5646 -0.3619
 4432TIP3    H234788   2.210   5.581  15.795  0.0483  0.5017 -0.3117
 4433TIP3   OH234789   4.398   6.177   3.121 -0.3424  0.4309 -0.0092
 4433TIP3    H134790   4.359   6.106   3.173 -0.0024 -0.0123 -0.3533
 4433TIP3    H234791   4.334   6.194   3.052 -0.7487  0.9497  0.4973
 4434TIP3   OH234792   3.134   4.014  14.508  0.0755 -0.0621  0.0092
 4434TIP3    H134793   3.089   3.987  14.428  0.3137  0.3324 -0.2607
 4434TIP3    H234794   3.072   3.993  14.578  0.1839 -1.1353 -0.2069
 4435TIP3   OH234795   5.714   4.584   0.350  0.5990  0.4839  0.4251
 4435TIP3    H134796   5.721   4.552   0.260 -1.0858 -2.3430  1.2241
 4435TIP3    H234797   5.639   4.644   0.348 -1.4303 -1.9388  0.4950
 4436TIP3   OH234798   1.786   0.585   3.203  0.4577 -0.2700  1.0899
 4436TIP3    H134799   1.854   0.575   3.136 -2.4414 -0.5415 -1.9368
 4436TIP3    H234800   1.800   0.511   3.262  0.4605 -2.5764 -1.6890
 4437TIP3   OH234801   3.545   1.555   1.940  0.1360 -0.6433  0.1764
 4437TIP3    H134802   3.492   1.608   2.000 -0.7785  0.0096 -1.1683
 4437TIP3    H234803   3.634   1.590   1.949  0.0162 -0.5706  1.1577
 4438TIP3   OH234804   2.945   3.495  12.988 -0.2663 -0.9540  0.5198
 4438TIP3    H134805   2.890   3.425  12.953 -0.4499  0.8361 -2.9925
 4438TIP3    H234806   2.884   3.558  13.026 -0.7649  0.9855 -3.2913
 4439TIP3   OH234807   4.142   3.151   1.437  1.0639  0.0350 -0.1565
 4439TIP3    H134808   4.168   3.076   1.491  0.7678 -0.3940 -0.6092
 4439TIP3    H234809   4.066   3.188   1.483 -0.6541 -1.7197 -1.4765
 4440TIP3   OH234810   5.463   1.679   2.711 -0.1566  0.3598  0.1798
 4440TIP3    H134811   5.467   1.684   2.616 -0.1901 -0.8612  0.1021
 4440TIP3    H234812   5.519   1.750   2.742  0.6079  0.1648 -0.7541
 4441TIP3   OH234813   3.922   2.341  12.017  0.2923 -0.4651  0.1057
 4441TIP3    H134814   3.941   2.250  12.039  1.8392 -0.1780 -0.0145
 4441TIP3    H234815   4.006   2.378  11.990 -0.8941  0.1458 -2.9796
 4442TIP3   OH234816   4.897   4.575  16.623 -0.3790  0.1008 -0.0963
 4442TIP3    H134817   4.806   4.559  16.649 -0.7114  0.6802 -0.8893
 4442TIP3    H234818   4.897   4.560  16.528 -0.3308  3.0636 -0.5959
 4443TIP3   OH234819   0.453   3.956   1.709  0.3465  0.2531 -0.1397
 4443TIP3    H134820   0.543   3.931   1.730 -0.0926 -1.9182 -0.6984
 4443TIP3    H234821   0.461   4.019   1.637  1.3913 -0.4611 -0.6580
 4444TIP3   OH234822   1.079   0.692   1.980  0.0376  0.0778  0.1872
 4444TIP3    H134823   1.013   0.754   2.010 -1.4504 -1.9054  1.1726
 4444TIP3    H234824   1.093   0.633   2.054  0.7341 -1.3116 -1.0039
 4445TIP3   OH234825   0.932   0.180  13.182 -0.5936  0.2736  0.7176
 4445TIP3    H134826   0.895   0.268  13.179  0.2320  0.6182  0.6703
 4445TIP3    H234827   0.945   0.156  13.090 -2.3205 -0.5465  0.6536
 4446TIP3   OH234828   6.680   0.057  12.877  0.0229 -0.1137 -0.0125
 4446TIP3    H134829   6.706   0.135  12.827  1.4790 -0.1345  0.6943
 4446TIP3    H234830   6.602   0.024  12.831  0.4887  0.6963 -1.4123
 4447TIP3   OH234831   5.584   3.035   6.330 -0.5057  0.2495  0.3546
 4447TIP3    H134832   5.553   3.125   6.321 -0.0174  0.4629  0.7682
 4447TIP3    H234833   5.634   3.035   6.412  0.2422 -0.1792 -0.0977
 4448TIP3   OH234834   4.321   6.452   5.429 -0.4990 -0.0434 -0.7804
 4448TIP3    H134835   4.395   6.393   5.410 -1.2847 -1.4133  0.3769
 4448TIP3    H234836   4.259   6.435   5.359 -1.8687 -2.5487  0.9753
 4449TIP3   OH234837   4.059   2.871   2.669  0.2976  0.2034 -0.9197
 4449TIP3    H134838   3.983   2.865   2.611 -1.3273  0.4642  1.1455
 4449TIP3    H234839   4.105   2.950   2.640 -0.2317  0.0672 -2.1576
 4450TIP3   OH234840   1.294   0.748  16.492 -0.0788 -0.3529  0.6986
 4450TIP3    H134841   1.308   0.802  16.414 -1.9061 -0.6094  0.1730
 4450TIP3    H234842   1.268   0.662  16.458 -0.2286 -0.6654  1.5821
 4451TIP3   OH234843   4.609   3.501   4.768 -0.2963 -0.5773 -0.7275
 4451TIP3    H134844   4.617   3.504   4.672 -0.2468  0.1471 -0.7058
 4451TIP3    H234845   4.514   3.500   4.783 -0.3133  0.3608 -0.7604
 4452TIP3   OH234846   0.594   1.936  13.513  0.2247 -0.0809  0.4532
 4452TIP3    H134847   0.501   1.915  13.524  0.2402 -0.4836 -0.1647
 4452TIP3    H234848   0.603   1.956  13.420  1.2330 -2.3384  0.0472
 4453TIP3   OH234849   5.666   2.210   6.748  0.2445 -0.3418  0.2495
 4453TIP3    H134850   5.751   2.166   6.747  0.8616  0.8352 -1.1616
 4453TIP3    H234851   5.687   2.303   6.763 -0.9717 -0.3737  2.3729
 4454TIP3   OH234852   0.368   4.687   4.400  0.6137  0.3796 -0.0052
 4454TIP3    H134853   0.300   4.620   4.400 -0.4534  1.4617 -0.3366
 4454TIP3    H234854   0.334   4.756   4.456  0.9888  1.3841 -1.0130
 4455TIP3   OH234855   2.326   1.588  11.433  0.1756 -0.5239  0.4032
 4455TIP3    H134856   2.265   1.610  11.363 -0.4051  0.2811  1.1528
 4455TIP3    H234857   2.386   1.662  11.437  1.0081 -1.1628 -0.1091
 4456TIP3   OH234858   3.215   4.319  16.103  0.2019  0.6403 -0.2405
 4456TIP3    H134859   3.293   4.367  16.129  0.9465 -0.1274 -1.0293
 4456TIP3    H234860   3.198   4.345  16.013 -1.2256  1.7847  0.3325
 4457TIP3   OH234861   0.136   0.705  11.870  0.1063  0.1342  0.0015
 4457TIP3    H134862   0.150   0.671  11.781 -0.4879  0.9594 -0.4124
 4457TIP3    H234863   0.204   0.773  11.880 -1.5920  2.0222 -0.8863
 4458TIP3   OH234864   4.581   3.962   1.621 -0.0005  0.3503  0.4624
 4458TIP3    H134865   4.543   3.882   1.586 -1.5086  1.4076 -0.3913
 4458TIP3    H234866   4.647   3.987   1.557 -0.3318  0.4093  0.1438
 4459TIP3   OH234867   5.704   2.180   2.242 -0.3462  0.1636 -0.0467
 4459TIP3    H134868   5.723   2.248   2.306 -1.3901 -0.9822  1.5073
 4459TIP3    H234869   5.744   2.101   2.278 -0.8134 -0.4695 -0.8905
 4460TIP3   OH234870   2.647   6.466   1.217  0.4221 -0.0483  0.2079
 4460TIP3    H134871   2.681   6.418   1.292 -1.7482  0.0637  1.2950
 4460TIP3    H234872   2.655   6.558   1.241  0.2251  0.0075  0.0569
 4461TIP3   OH234873   2.690   0.620   0.679 -0.0970 -0.4681  0.6293
 4461TIP3    H134874   2.645   0.544   0.644  4.3355 -2.8749 -0.2323
 4461TIP3    H234875   2.721   0.593   0.766  2.3720 -0.1171 -0.0773
 4462TIP3   OH234876   4.373   3.991  15.393  0.4371 -0.7793 -0.1993
 4462TIP3    H134877   4.427   3.946  15.328  0.8717 -0.8355  0.2008
 4462TIP3    H234878   4.393   3.947  15.476 -0.4265 -0.9801 -0.0943
 4463TIP3   OH234879   2.516   5.587  16.895 -0.2168 -0.1374  0.7676
 4463TIP3    H134880   2.425   5.616  16.900 -0.1993  0.4900 -1.6629
 4463TIP3    H234881   2.540   5.602  16.804  1.8006 -1.8749  0.9778
 4464TIP3   OH234882   0.116   2.911   2.097 -0.7160 -0.1286 -0.3161
 4464TIP3    H134883   0.211   2.899   2.097 -0.8227 -1.2517  1.6652
 4464TIP3    H234884   0.097   2.943   2.185 -2.0665  1.0934 -1.0408
 4465TIP3   OH234885   5.515   5.445  15.342  0.3735  0.0476 -1.0624
 4465TIP3    H134886   5.522   5.351  15.326  0.4632  0.0104 -0.8015
 4465TIP3    H234887   5.573   5.485  15.278 -0.8977  0.0140 -2.2605
 4466TIP3   OH234888   4.276   1.907  12.280 -0.0795  0.8573 -0.4880
 4466TIP3    H134889   4.292   1.813  12.286 -0.0183  0.9500  0.9464
 4466TIP3    H234890   4.363   1.945  12.262 -0.0376  0.6723 -0.6699
 4467TIP3   OH234891   5.807   4.061  11.914 -0.4467 -0.3956  0.1616
 4467TIP3    H134892   5.729   4.113  11.931 -0.4657 -0.6443  0.8588
 4467TIP3    H234893   5.804   4.043  11.820 -0.0735  1.4371 -0.2186
 4468TIP3   OH234894   5.075   4.393  14.235  1.0207  0.8374 -0.1325
 4468TIP3    H134895   5.105   4.312  14.275  0.5103  1.8779  2.4612
 4468TIP3    H234896   5.036   4.366  14.152  2.4794 -1.3366 -0.1544
 4469TIP3   OH234897   3.443   2.990  12.578 -0.2741  0.9706  0.2970
 4469TIP3    H134898   3.448   2.968  12.485 -2.0838  0.4278  0.2973
 4469TIP3    H234899   3.488   3.074  12.585 -0.1254  1.0200 -1.0762
 4470TIP3   OH234900   6.501   6.615   2.606  0.1274  0.2438  0.6069
 4470TIP3    H134901   6.507   6.640   2.698 -0.5413 -1.2154  1.0647
 4470TIP3    H234902   6.428   6.666   2.571  0.9760  1.4930  0.6450
 4471TIP3   OH234903   1.398   1.659  11.773  0.1492 -0.3661 -0.2620
 4471TIP3    H134904   1.446   1.741  11.788  0.4072 -0.5249 -0.2063
 4471TIP3    H234905   1.348   1.675  11.693  0.5706 -0.3180 -0.5190
 4472TIP3   OH234906   4.670   3.963  15.463  0.9913  0.4719 -0.6886
 4472TIP3    H134907   4.745   3.927  15.510 -0.4910  0.4456  1.7019
 4472TIP3    H234908   4.618   3.886  15.439  0.7516  0.6270 -0.6627
 4473TIP3   OH234909   2.943   6.222   6.063  0.6839 -0.4676 -0.1486
 4473TIP3    H134910   2.899   6.149   6.020 -1.6264  0.9364 -0.2578
 4473TIP3    H234911   2.971   6.278   5.991 -2.8722  1.7035  0.0084
 4474TIP3   OH234912   3.590   2.599   3.054 -0.1079  0.1832  0.4026
 4474TIP3    H134913   3.680   2.630   3.068 -1.0385  1.9177  2.8619
 4474TIP3    H234914   3.575   2.535   3.122 -0.1769 -1.4277 -1.0976
 4475TIP3   OH234915   4.798   0.190   0.841  0.2651 -0.0308 -0.0245
 4475TIP3    H134916   4.787   0.167   0.933 -0.2910 -2.4120 -0.6663
 4475TIP3    H234917   4.892   0.177   0.824  0.3946  0.5500  0.2315
 4476TIP3   OH234918   0.415   6.011   1.580  0.4500 -0.1124 -0.3451
 4476TIP3    H134919   0.430   6.097   1.540 -3.3286  0.5805 -0.4881
 4476TIP3    H234920   0.436   6.024   1.673 -0.6234  1.1591 -0.2642
 4477TIP3   OH234921   4.725   2.003   3.287 -0.0223  0.3982  0.4460
 4477TIP3    H134922   4.712   1.922   3.237 -0.0617  0.7686 -0.1446
 4477TIP3    H234923   4.675   2.069   3.240 -1.6258  0.3619  2.0201
 4478TIP3   OH234924   0.307   6.760   5.502  0.4079 -0.5532  0.6608
 4478TIP3    H134925   0.296   6.818   5.577  0.4824  0.1132  0.1589
 4478TIP3    H234926   0.271   6.676   5.531  1.7613 -0.7049  1.9449
 4479TIP3   OH234927   5.229   0.638  12.053 -0.5699  0.0062  0.4597
 4479TIP3    H134928   5.301   0.579  12.032  0.0132  0.6637  0.5926
 4479TIP3    H234929   5.256   0.682  12.133 -2.6101 -2.1915  2.4433
 4480TIP3   OH234930   4.341   1.665  11.742  0.2001 -0.3973 -0.2797
 4480TIP3    H134931   4.255   1.706  11.745  0.4014 -0.0505  0.9991
 4480TIP3    H234932   4.328   1.586  11.689 -1.3019 -1.2580  1.2939
 4481TIP3   OH234933   1.534   2.946  15.703 -0.3210  0.6922  0.0515
 4481TIP3    H134934   1.490   3.014  15.653  1.2325  1.4477 -0.3443
 4481TIP3    H234935   1.563   2.882  15.637  1.2826  1.4355 -0.0081
 4482TIP3   OH234936   6.012   2.309  14.776 -0.3587 -0.3435 -0.3317
 4482TIP3    H134937   6.019   2.360  14.695 -1.8220 -0.6592 -0.6705
 4482TIP3    H234938   5.924   2.271  14.773 -0.2782 -0.6790  1.2273
 4483TIP3   OH234939   6.449   4.699   0.421  0.3602  0.4919 -0.6806
 4483TIP3    H134940   6.394   4.771   0.451 -0.2427 -0.4790  0.5907
 4483TIP3    H234941   6.393   4.622   0.425  1.6388 -0.4212  0.1079
 4484TIP3   OH234942   5.784   4.923  11.567  0.3371 -0.7923  0.5577
 4484TIP3    H134943   5.751   4.901  11.480  0.0101 -0.0993  0.5072
 4484TIP3    H234944   5.843   4.997  11.552  0.1110 -0.5337  0.9531
 4485TIP3   OH234945   2.783   4.299   4.794  0.7153 -0.0082  0.3549
 4485TIP3    H134946   2.776   4.355   4.872 -1.5681  0.2887 -0.0293
 4485TIP3    H234947   2.746   4.351   4.723  2.9589 -0.2101 -0.9949
 4486TIP3   OH234948   0.150   2.887   3.187  0.0942  0.5785 -0.6454
 4486TIP3    H134949   0.160   2.800   3.148 -0.9031  0.6315 -1.0326
 4486TIP3    H234950   0.116   2.941   3.116 -2.5906  0.4733  0.4969
 4487TIP3   OH234951   3.835   1.964   4.686  0.6966  0.4928  0.4049
 4487TIP3    H134952   3.812   2.055   4.665  0.0569  0.6644  1.7973
 4487TIP3    H234953   3.889   1.971   4.764  0.1758 -0.3669  0.8385
 4488TIP3   OH234954   1.154   4.352  11.510 -0.1352  0.4256  0.2111
 4488TIP3    H134955   1.191   4.360  11.597 -0.7324  0.3735  0.4695
 4488TIP3    H234956   1.173   4.261  11.484 -0.7999  0.1537  0.6711
 4489TIP3   OH234957   2.502   1.639  12.119 -0.0097 -0.3965 -0.5659
 4489TIP3    H134958   2.590   1.673  12.105  0.6482 -1.1570  1.5940
 4489TIP3    H234959   2.446   1.717  12.121  0.8502  0.2178 -0.2315
 4490TIP3   OH234960   5.427   6.535   5.765  0.1621 -0.0410  0.1563
 4490TIP3    H134961   5.354   6.519   5.705 -1.2313 -1.3802  2.1337
 4490TIP3    H234962   5.421   6.628   5.786 -0.3439  0.0776 -0.4980
 4491TIP3   OH234963   0.718   1.954   3.012 -0.3312 -0.3229  0.8232
 4491TIP3    H134964   0.765   1.987   3.089  0.6121 -1.8205  0.9109
 4491TIP3    H234965   0.639   2.008   3.008 -0.7164 -0.6469  3.2321
 4492TIP3   OH234966   1.775   4.705  16.682 -0.8320 -0.0442  0.4375
 4492TIP3    H134967   1.831   4.627  16.675 -1.0217 -0.3444  2.0154
 4492TIP3    H234968   1.770   4.722  16.776 -0.3159  2.2417  0.0704
 4493TIP3   OH234969   0.051   2.639   1.393  0.4102  0.1630 -0.6244
 4493TIP3    H134970   0.063   2.544   1.394  0.6273  0.2057  1.7357
 4493TIP3    H234971   0.136   2.674   1.416  0.3934  0.9710 -1.7256
 4494TIP3   OH234972   6.748   1.179   6.783  0.1003 -0.8381 -0.1897
 4494TIP3    H134973   6.780   1.166   6.694 -1.0122 -0.9346 -0.5891
 4494TIP3    H234974   6.763   1.095   6.827  3.0925  0.0195  0.5203
 4495TIP3   OH234975   1.347   4.269  14.033  0.5376 -0.7291  0.1437
 4495TIP3    H134976   1.431   4.289  14.074  0.0890  0.2540  0.6064
 4495TIP3    H234977   1.352   4.311  13.947  0.0901  0.2982  0.6134
 4496TIP3   OH234978   3.856   2.671   1.749 -0.2193 -0.1975 -1.0302
 4496TIP3    H134979   3.807   2.635   1.675  0.5300 -0.1378 -1.5533
 4496TIP3    H234980   3.907   2.743   1.712 -0.7347  0.5993 -0.2291
 4497TIP3   OH234981   1.440   4.083  12.537 -0.9512  0.0655 -0.2868
 4497TIP3    H134982   1.384   4.097  12.461  0.0809 -1.9016 -1.4589
 4497TIP3    H234983   1.499   4.158  12.537 -0.4170 -0.3309 -1.9353
 4498TIP3   OH234984   4.387   5.594   5.091 -0.1095  0.0097  0.0403
 4498TIP3    H134985   4.438   5.579   5.011  1.2249  1.6566  0.5489
 4498TIP3    H234986   4.320   5.525   5.091  0.3631 -0.4644 -2.0903
 4499TIP3   OH234987   3.408   3.992   3.515 -0.0054 -0.0077  0.1224
 4499TIP3    H134988   3.371   3.988   3.603  1.0267  0.2974  0.5714
 4499TIP3    H234989   3.495   3.953   3.523  1.4740  3.0724 -0.0219
 4500TIP3   OH234990   1.812   0.011  11.105 -0.1477 -0.1025 -0.0043
 4500TIP3    H134991   1.852  -0.044  11.038  1.7045 -0.5242  1.3863
 4500TIP3    H234992   1.722   0.026  11.075 -0.1214 -2.4022 -1.2845
 4501TIP3   OH234993   4.030   0.824   5.208  0.2496 -0.0718  0.0977
 4501TIP3    H134994   4.057   0.838   5.299  1.8678 -0.3370 -0.3112
 4501TIP3    H234995   3.973   0.747   5.211  0.1091  0.0577  0.9141
 4502TIP3   OH234996   0.240   5.216   1.969  0.3108  0.1652  0.5440
 4502TIP3    H134997   0.241   5.167   2.051  0.3234  0.8462  0.9558
 4502TIP3    H234998   0.210   5.304   1.994  1.8276  0.8332  0.0921
 4503TIP3   OH234999   3.482   2.038  14.235  0.4640 -0.5454  0.3051
 4503TIP3    H135000   3.543   2.106  14.263 -0.5997  0.3124  0.5560
 4503TIP3    H235001   3.405   2.085  14.203 -0.0461 -1.6122 -0.0903
 4504TIP3   OH235002   1.149   4.502  11.763  0.0029  0.0066  0.2294
 4504TIP3    H135003   1.202   4.571  11.724  1.2654  0.0489  1.9278
 4504TIP3    H235004   1.106   4.544  11.838 -0.8262 -0.5396  0.0607
 4505TIP3   OH235005   6.797   0.698  16.256  0.3786  0.2520  0.1981
 4505TIP3    H135006   6.782   0.657  16.341 -0.5185  0.0157 -0.0690
 4505TIP3    H235007   6.740   0.651  16.196  0.7489  0.6462 -0.4730
 4506TIP3   OH235008   6.393   4.015   6.175 -0.7327 -0.7861  0.1454
 4506TIP3    H135009   6.431   3.935   6.211  0.0567 -0.1420  0.7741
 4506TIP3    H235010   6.461   4.048   6.115 -1.2470 -0.8414 -0.4669
 4507TIP3   OH235011   4.820   3.396   0.538 -0.5182  0.0168 -0.6818
 4507TIP3    H135012   4.914   3.381   0.540 -0.6047 -0.6482 -1.3432
 4507TIP3    H235013   4.789   3.373   0.625 -0.1131 -0.0358 -0.5560
 4508TIP3   OH235014   5.505   6.817   3.392 -0.0183 -0.2482 -0.3646
 4508TIP3    H135015   5.581   6.875   3.384  0.2570 -0.6890 -1.0850
 4508TIP3    H235016   5.489   6.788   3.302 -1.8431  0.8488 -0.4291
 4509TIP3   OH235017   4.234   2.891   4.938 -0.1224 -0.0526  0.0819
 4509TIP3    H135018   4.297   2.937   4.884 -0.3634 -0.9686 -0.9995
 4509TIP3    H235019   4.196   2.958   4.995 -0.3958  1.0530 -1.3934
 4510TIP3   OH235020   2.750   0.211  15.674  0.1691  0.0470 -0.0053
 4510TIP3    H135021   2.707   0.285  15.718 -0.2814 -1.4755  2.2052
 4510TIP3    H235022   2.792   0.163  15.745  2.2311 -0.6846 -1.6836
 4511TIP3   OH235023   2.255   1.695  14.719  0.2191  0.9256  0.2878
 4511TIP3    H135024   2.314   1.701  14.794  0.4290  0.7743  0.1349
 4511TIP3    H235025   2.273   1.609  14.681  2.3612  2.2552 -1.8052
 4512TIP3   OH235026   4.347   3.250  12.584 -0.1742 -0.5084  0.3081
 4512TIP3    H135027   4.421   3.210  12.540  0.9257  0.1932  1.4723
 4512TIP3    H235028   4.367   3.240  12.678 -1.1851  0.3456  0.6264
 4513TIP3   OH235029   4.921   4.271  14.846  0.2900  0.2377  0.6371
 4513TIP3    H135030   4.864   4.200  14.817 -0.9456  1.6890 -0.5300
 4513TIP3    H235031   4.982   4.284  14.774 -1.9654  2.9697 -0.8613
 4514TIP3   OH235032   5.086   6.379  13.136  0.6522  0.1591 -0.7555
 4514TIP3    H135033   5.130   6.296  13.154  1.2671  0.6707  0.1037
 4514TIP3    H235034   4.993   6.355  13.128  0.4978 -0.2651  1.8731
 4515TIP3   OH235035   0.646   2.575  16.598 -0.4885 -0.5563 -0.2908
 4515TIP3    H135036   0.710   2.582  16.527  0.4194 -0.0404  0.5819
 4515TIP3    H235037   0.659   2.488  16.634 -0.0649 -0.3382  0.0859
 4516TIP3   OH235038   0.697   4.927   0.244  0.0474  0.3154 -0.8485
 4516TIP3    H135039   0.661   4.840   0.259 -0.0657  0.3979 -0.6322
 4516TIP3    H235040   0.698   4.967   0.331  1.1326  0.1282 -0.7689
 4517TIP3   OH235041   2.930   1.245   4.236  0.1283  0.1457 -0.1592
 4517TIP3    H135042   2.835   1.235   4.234 -0.0517  1.5998  0.5306
 4517TIP3    H235043   2.945   1.321   4.292  1.6783  0.1906 -0.6105
 4518TIP3   OH235044   1.952   3.641  11.820 -0.0551  0.5778 -0.0819
 4518TIP3    H135045   2.008   3.648  11.897  0.2397 -3.1829  0.1034
 4518TIP3    H235046   1.993   3.701  11.757  1.3472  1.5482  1.6839
 4519TIP3   OH235047   1.933   4.411  14.072 -0.1311 -0.4582 -0.2223
 4519TIP3    H135048   1.992   4.366  14.133 -1.0710 -1.5121 -0.0750
 4519TIP3    H235049   1.959   4.503  14.078  1.7310 -0.9506 -0.4291
 4520TIP3   OH235050   4.811   6.475  13.111  0.6818  0.1482  0.0289
 4520TIP3    H135051   4.832   6.484  13.018  1.5523 -1.0375  0.1115
 4520TIP3    H235052   4.833   6.561  13.148  0.2972  0.6372 -0.8623
 4521TIP3   OH235053   5.820   4.568  16.383 -0.8535 -0.0173  0.0477
 4521TIP3    H135054   5.899   4.516  16.399 -1.0339 -0.4309 -0.4219
 4521TIP3    H235055   5.840   4.619  16.304 -0.9213  0.1485  0.1336
 4522TIP3   OH235056   4.090   3.865  11.502  0.8464 -0.1286 -0.2902
 4522TIP3    H135057   4.061   3.942  11.552  0.6695 -0.3490 -0.0527
 4522TIP3    H235058   4.168   3.895  11.455 -0.2266  0.7064 -1.5749
 4523TIP3   OH235059   0.504   1.558  16.636  0.1416  0.8138  0.0739
 4523TIP3    H135060   0.473   1.601  16.557  1.5976  3.3411  0.8357
 4523TIP3    H235061   0.588   1.599  16.655  0.6322 -0.9763  1.9650
 4524TIP3   OH235062   2.958   4.301   3.163 -0.2197  0.6720 -0.2644
 4524TIP3    H135063   2.999   4.286   3.077  1.5772  0.5202  0.6087
 4524TIP3    H235064   2.880   4.353   3.143  0.3228  0.8717 -1.9698
 4525TIP3   OH235065   1.770   1.210   3.273  0.1128 -0.0917 -0.4334
 4525TIP3    H135066   1.717   1.223   3.195  2.4367 -1.2996 -2.2895
 4525TIP3    H235067   1.759   1.117   3.295  2.9631 -0.8871 -2.0746
 4526TIP3   OH235068   0.697   3.522  15.210  0.1991  0.7157  0.4685
 4526TIP3    H135069   0.736   3.588  15.268  1.3655 -0.0787  0.6051
 4526TIP3    H235070   0.605   3.518  15.237 -0.1389  3.0430 -0.2601
 4527TIP3   OH235071   5.030   4.371  15.793 -0.3183 -0.1799  0.3327
 4527TIP3    H135072   4.985   4.287  15.791  1.0832 -0.9268 -1.4238
 4527TIP3    H235073   5.033   4.400  15.702  1.3357  0.6060  0.6030
 4528TIP3   OH235074   3.530   1.986   5.389  0.4229  0.2941 -0.6076
 4528TIP3    H135075   3.611   1.960   5.432 -0.0838  0.4971  0.4833
 4528TIP3    H235076   3.489   2.047   5.450 -1.1454 -0.7578 -0.5859
 4529TIP3   OH235077   3.963   2.680   5.551  0.1929  0.3836  0.1845
 4529TIP3    H135078   3.877   2.700   5.514 -0.4826  0.0859  1.5870
 4529TIP3    H235079   4.008   2.633   5.481 -1.1188 -0.2954 -0.2277
 4530TIP3   OH235080   3.380   2.576   6.628 -0.2782 -0.2746  0.0553
 4530TIP3    H135081   3.330   2.506   6.670  1.0121 -1.5268 -0.4710
 4530TIP3    H235082   3.372   2.650   6.688 -2.8344 -0.4040 -0.0540
 4531TIP3   OH235083   1.259   6.601   3.831  0.8766  0.4324  0.3288
 4531TIP3    H135084   1.198   6.602   3.758  1.1416  2.3913  0.1231
 4531TIP3    H235085   1.206   6.625   3.907  1.3509  2.1066  0.1539
 4532TIP3   OH235086   4.295   2.776   1.863 -0.9280 -0.2461 -0.4845
 4532TIP3    H135087   4.385   2.803   1.878 -1.3661  0.8011  0.3187
 4532TIP3    H235088   4.302   2.688   1.828  0.3209 -0.8796  1.2964
 4533TIP3   OH235089   4.133   5.924  12.145  0.0828 -0.5776 -0.1975
 4533TIP3    H135090   4.059   5.934  12.086 -1.2708 -1.5160  1.2908
 4533TIP3    H235091   4.209   5.956  12.095 -1.2837  0.2363 -1.7932
 4534TIP3   OH235092   3.196   0.382   5.384 -0.2038 -0.5403  0.1794
 4534TIP3    H135093   3.225   0.328   5.458 -2.0764 -2.0289 -0.1245
 4534TIP3    H235094   3.181   0.468   5.423  4.5403  0.3309  0.3186
 4535TIP3   OH235095   1.488   5.294  14.322  0.4539 -0.0824  0.2256
 4535TIP3    H135096   1.557   5.274  14.384  1.6932  0.2191 -1.0301
 4535TIP3    H235097   1.413   5.243  14.352  1.1286 -0.1989  1.7550
 4536TIP3   OH235098   6.245   5.797   5.950  0.2042  0.2177  0.1482
 4536TIP3    H135099   6.328   5.803   5.997  1.4224 -0.8004 -1.7859
 4536TIP3    H235100   6.228   5.703   5.943  0.2308  0.3319 -1.7047
 4537TIP3   OH235101   2.513   2.184  11.437 -0.4587  0.3625 -0.4342
 4537TIP3    H135102   2.517   2.235  11.518  0.1966 -0.3623  0.0020
 4537TIP3    H235103   2.428   2.207  11.399 -0.7689  0.7339  0.4439
 4538TIP3   OH235104   6.189   0.758  12.457  0.2744 -0.3592 -0.0081
 4538TIP3    H135105   6.282   0.738  12.453  0.2563 -0.1752 -1.5753
 4538TIP3    H235106   6.184   0.843  12.502  0.8764 -0.2569 -0.1397
 4539TIP3   OH235107   2.932   2.063  11.575 -0.1940  0.4936  0.3980
 4539TIP3    H135108   2.985   2.139  11.599  1.0126 -0.0922 -0.3735
 4539TIP3    H235109   2.927   2.067  11.480  0.3004 -0.6609  0.3136
 4540TIP3   OH235110   3.556   1.984  11.252  0.3201  0.3832 -0.1301
 4540TIP3    H135111   3.588   1.906  11.299  2.0076 -1.4696 -4.0956
 4540TIP3    H235112   3.462   1.986  11.269  0.3542 -2.1997  0.5925
 4541TIP3   OH235113   0.796   5.563  15.912 -0.0868 -0.7805  0.0227
 4541TIP3    H135114   0.737   5.531  15.981  0.2193 -2.1786 -0.3336
 4541TIP3    H235115   0.792   5.495  15.845  0.7786 -0.1560 -0.6725
 4542TIP3   OH235116   1.204   1.410   0.400  0.9319  0.3593 -0.2940
 4542TIP3    H135117   1.133   1.385   0.459  0.5787  2.0394  0.0240
 4542TIP3    H235118   1.283   1.404   0.453  0.6228  1.8002  0.3535
 4543TIP3   OH235119   6.794   0.986  13.788 -0.0651 -0.3757 -0.3175
 4543TIP3    H135120   6.872   0.934  13.772 -0.5743 -1.4447  0.6254
 4543TIP3    H235121   6.727   0.922  13.813 -1.2741  0.5111 -1.2259
 4544TIP3   OH235122   5.887   6.567  11.207  0.1925 -0.3380 -0.4409
 4544TIP3    H135123   5.865   6.530  11.122  0.7264 -0.6307 -0.4549
 4544TIP3    H235124   5.983   6.571  11.207  0.1373  2.1629 -0.9315
 4545TIP3   OH235125   5.607   0.602   5.093  0.1157 -0.3517 -0.9752
 4545TIP3    H135126   5.614   0.591   4.999 -0.8711 -0.5143 -1.0368
 4545TIP3    H235127   5.524   0.560   5.116 -0.5605  1.3199 -0.3029
 4546TIP3   OH235128   0.354   4.113  10.300 -0.3870 -0.1844 -0.1115
 4546TIP3    H135129   0.375   4.094  10.391 -0.4080 -1.0011 -0.2744
 4546TIP3    H235130   0.313   4.033  10.267 -0.1055 -0.0063 -0.9181
 4547TIP3   OH235131   6.811   6.766  16.167 -0.1827 -0.2425  0.3563
 4547TIP3    H135132   6.760   6.688  16.186 -2.0769  1.3461  2.0565
 4547TIP3    H235133   6.899   6.746  16.199 -0.7699 -1.4937  1.2084
 4548TIP3   OH235134   2.067   1.905   4.891  0.5058  0.4324 -0.2572
 4548TIP3    H135135   1.975   1.918   4.868  0.4981 -0.3301 -0.6672
 4548TIP3    H235136   2.116   1.950   4.823  0.4205  2.2337  0.8512
 4549TIP3   OH235137   1.134   1.300   1.913  0.1984 -0.3381 -0.1874
 4549TIP3    H135138   1.131   1.379   1.967  1.4920 -0.3640 -0.0648
 4549TIP3    H235139   1.054   1.304   1.860  1.0228  1.8678 -1.3249
 4550TIP3   OH235140   1.836   6.466   3.414  0.0167 -0.5434 -0.0887
 4550TIP3    H135141   1.802   6.510   3.335  0.9242  0.5073  0.0960
 4550TIP3    H235142   1.819   6.373   3.398  1.3239 -0.4815 -2.1050
 4551TIP3   OH235143   4.370   3.986  16.689 -0.2266 -0.1256 -0.1348
 4551TIP3    H135144   4.372   4.050  16.619  0.2440 -0.8472 -0.7942
 4551TIP3    H235145   4.349   3.903  16.645 -0.2323 -0.5284  0.6152
 4552TIP3   OH235146   0.639   6.000  11.043 -0.1546  0.3225 -0.1255
 4552TIP3    H135147   0.559   5.958  11.011 -0.4690 -0.0667  1.1434
 4552TIP3    H235148   0.707   5.934  11.030 -0.4306 -0.1394  0.7625
 4553TIP3   OH235149   3.087   5.788  12.800  0.5543 -0.0347 -0.1133
 4553TIP3    H135150   3.096   5.878  12.769  0.0091 -0.1149 -0.5081
 4553TIP3    H235151   3.150   5.781  12.872  0.2542  0.8044  0.2385
 4554TIP3   OH235152   1.122   0.627   1.061  0.5052 -0.1446  0.5818
 4554TIP3    H135153   1.175   0.657   1.134 -0.8221 -0.4774  1.6901
 4554TIP3    H235154   1.092   0.540   1.086  1.7162 -1.1401 -1.2474
 4555TIP3   OH235155   0.492   2.803   5.216  0.1466  0.2678  0.5425
 4555TIP3    H135156   0.559   2.822   5.282  1.9972  1.0847 -1.5251
 4555TIP3    H235157   0.478   2.887   5.171 -2.9995  0.3594  1.5573
 4556TIP3   OH235158   6.017   1.273  13.138 -0.8700  0.4848  0.0887
 4556TIP3    H135159   6.014   1.242  13.228 -1.3969  1.6467  0.4807
 4556TIP3    H235160   5.995   1.366  13.144 -1.6998  0.3910 -1.3235
 4557TIP3   OH235161   1.886   4.728  15.630  0.5336 -0.1784 -0.5901
 4557TIP3    H135162   1.867   4.814  15.666 -2.3197 -0.3683 -1.5299
 4557TIP3    H235163   1.855   4.666  15.696 -0.6657 -0.4902 -1.4296
 4558TIP3   OH235164   6.167   4.058   0.200  0.7518  0.0611 -0.0835
 4558TIP3    H135165   6.241   4.082   0.144  1.5653  0.5813  1.1807
 4558TIP3    H235166   6.193   3.976   0.241  0.4736  0.0617  0.0943
 4559TIP3   OH235167   4.415   3.668   1.769 -0.3989  0.1704  0.1997
 4559TIP3    H135168   4.464   3.586   1.767 -0.1494  0.3112  0.4323
 4559TIP3    H235169   4.331   3.647   1.728 -0.4262 -0.2582  0.4671
 4560TIP3   OH235170   5.546   4.131  17.143  0.3167  0.0897 -0.3025
 4560TIP3    H135171   5.609   4.060  17.148  0.2305  0.1166  2.0690
 4560TIP3    H235172   5.598   4.210  17.154  0.0324  0.1748  0.4990
 4561TIP3   OH235173   5.697   3.703   2.958 -0.0646  0.6811  0.2693
 4561TIP3    H135174   5.711   3.632   3.021  0.0536  0.1549 -0.3415
 4561TIP3    H235175   5.618   3.677   2.910 -0.1446  1.0671  0.1912
 4562TIP3   OH235176   4.500   6.377   6.427  0.3213  0.3885 -0.0004
 4562TIP3    H135177   4.560   6.451   6.426 -2.9587  3.1660  0.6631
 4562TIP3    H235178   4.554   6.303   6.454  3.2735  2.8846  1.2419
 4563TIP3   OH235179   6.331   1.148   4.844  0.2742  0.1462 -0.4338
 4563TIP3    H135180   6.341   1.228   4.792  1.4179 -0.0551 -0.5283
 4563TIP3    H235181   6.279   1.090   4.789  1.3694 -0.0175 -1.3130
 4564TIP3   OH235182   1.010   0.941   0.471  0.0440  0.3636  0.5392
 4564TIP3    H135183   1.082   0.919   0.412  0.9088  1.0048  1.3449
 4564TIP3    H235184   0.932   0.940   0.416  0.7163  0.0029 -0.4087
 4565TIP3   OH235185   5.120   6.311  15.659 -0.0356 -0.1058 -0.1376
 4565TIP3    H135186   5.170   6.240  15.618  0.2655  1.3240 -2.3226
 4565TIP3    H235187   5.038   6.270  15.686  0.8765 -1.6986  0.3086
 4566TIP3   OH235188   0.105   2.458  15.302 -0.3461  0.3278 -0.5662
 4566TIP3    H135189   0.163   2.382  15.299 -0.2741  0.3701 -0.1730
 4566TIP3    H235190   0.058   2.455  15.219  0.1120  0.2077 -0.8264
 4567TIP3   OH235191   0.906   2.481  16.942 -0.3104 -0.4802  0.5403
 4567TIP3    H135192   0.832   2.541  16.930  0.6901  1.0903  1.9824
 4567TIP3    H235193   0.892   2.444  17.029  2.0945  2.0777  2.1186
 4568TIP3   OH235194   2.989   5.289  16.103 -0.0208 -0.0979 -0.3500
 4568TIP3    H135195   2.955   5.318  16.188  1.4402 -0.4791  0.3789
 4568TIP3    H235196   3.079   5.321  16.102 -0.1753  0.3248 -1.9739
 4569TIP3   OH235197   6.547   4.528   2.805 -0.4928 -0.1987 -0.1517
 4569TIP3    H135198   6.596   4.595   2.757  1.1740 -1.6263 -0.4963
 4569TIP3    H235199   6.535   4.458   2.741 -2.0325 -0.3325  0.2727
 4570TIP3   OH235200   6.508   3.619  15.413 -0.0566  0.1845 -0.2010
 4570TIP3    H135201   6.557   3.615  15.495 -0.0676  0.1373 -0.1969
 4570TIP3    H235202   6.573   3.602  15.345  0.0402  0.6590 -0.2327
 4571TIP3   OH235203   6.250   6.330  16.434  0.9031  0.1687 -0.3684
 4571TIP3    H135204   6.247   6.351  16.527  0.4884 -1.0993 -0.0829
 4571TIP3    H235205   6.158   6.314  16.410  1.0976 -0.3204 -0.7944
 4572TIP3   OH235206   2.172   1.694   1.570 -0.1806  0.1170  0.1077
 4572TIP3    H135207   2.240   1.710   1.635  0.2982 -2.3209  0.2721
 4572TIP3    H235208   2.105   1.759   1.589  0.8810  0.8000  1.6855
 4573TIP3   OH235209   4.455   3.159   1.506  0.6622 -0.0816  0.3964
 4573TIP3    H135210   4.396   3.215   1.555  2.4699  2.5614 -0.3209
 4573TIP3    H235211   4.534   3.153   1.561  0.7185 -1.4721  0.1990
 4574TIP3   OH235212   2.868   6.405  13.186 -0.1452 -0.8615 -0.3721
 4574TIP3    H135213   2.781   6.374  13.214 -0.0693 -0.4998  0.2615
 4574TIP3    H235214   2.880   6.364  13.100  0.1803 -3.0361  0.6603
 4575TIP3   OH235215   0.538   5.717  12.652  0.6582 -1.1221  0.6277
 4575TIP3    H135216   0.633   5.732  12.659  0.1459  1.9857  1.3179
 4575TIP3    H235217   0.526   5.682  12.564  2.1114  1.4032 -0.6072
 4576TIP3   OH235218   3.412   5.091   3.625 -0.6092  0.1797  0.0674
 4576TIP3    H135219   3.451   5.008   3.653  1.6477  0.7929 -1.0557
 4576TIP3    H235220   3.385   5.075   3.534 -0.4048  0.5697 -0.0657
 4577TIP3   OH235221   3.353   1.683  13.677  0.0717 -0.4297  0.1828
 4577TIP3    H135222   3.361   1.767  13.721  0.5350  0.0914 -0.8918
 4577TIP3    H235223   3.286   1.636  13.726  1.1409 -0.1700  1.9368
 4578TIP3   OH235224   3.161   4.500   1.698 -0.1978  0.0611  0.1956
 4578TIP3    H135225   3.118   4.436   1.754  0.9347 -1.2856 -0.4456
 4578TIP3    H235226   3.236   4.454   1.661  1.2420  2.0619  0.5048
 4579TIP3   OH235227   0.387   0.885  12.928 -0.0286 -0.1574 -0.8047
 4579TIP3    H135228   0.359   0.943  12.998 -2.0782  0.3650 -2.0022
 4579TIP3    H235229   0.462   0.838  12.963 -0.2035  1.0611  1.2367
 4580TIP3   OH235230   5.695   0.120  12.809  0.4269 -1.0005  0.1627
 4580TIP3    H135231   5.613   0.087  12.771  0.3264  0.1707 -0.6937
 4580TIP3    H235232   5.667   0.178  12.879  0.5302 -0.8048  0.0431
 4581TIP3   OH235233   5.546   2.380  12.311  0.0969  0.2027  0.4306
 4581TIP3    H135234   5.582   2.373  12.222 -0.9258  3.2624 -0.2871
 4581TIP3    H235235   5.624   2.384  12.367  0.7537 -2.1625 -0.2617
 4582TIP3   OH235236   6.392   2.979   2.001  0.3507  0.0642 -0.1874
 4582TIP3    H135237   6.485   2.980   1.981  0.2022 -1.8021 -1.0532
 4582TIP3    H235238   6.352   3.033   1.933  0.6777 -0.1131 -0.5192
 4583TIP3   OH235239   4.645   2.211   5.305  0.1797  0.0684  0.2560
 4583TIP3    H135240   4.631   2.186   5.214 -1.5602 -2.5638  1.1982
 4583TIP3    H235241   4.738   2.194   5.321  0.0665 -1.3042 -0.4868
 4584TIP3   OH235242   1.910   5.901   1.998  0.0453  0.2797 -0.0898
 4584TIP3    H135243   1.987   5.874   2.047 -1.6542  0.2459  2.6687
 4584TIP3    H235244   1.846   5.831   2.013 -0.7303  0.5764 -1.8547
 4585TIP3   OH235245   0.805   1.828  17.143 -0.0503  0.3399  0.5595
 4585TIP3    H135246   0.772   1.880  17.215 -1.3559  1.8950 -1.1168
 4585TIP3    H235247   0.727   1.788  17.104  0.2197  2.0826 -1.9210
 4586TIP3   OH235248   1.997   6.669  11.496  0.1963  0.0961 -0.1770
 4586TIP3    H135249   1.998   6.632  11.408  0.9427  1.1175 -0.6101
 4586TIP3    H235250   2.042   6.604  11.550 -0.5074 -0.6611 -0.4853
 4587TIP3   OH235251   1.775   3.707  13.157 -0.3471 -0.6055 -0.0758
 4587TIP3    H135252   1.742   3.622  13.129 -0.1809 -1.5951  2.5528
 4587TIP3    H235253   1.727   3.726  13.238 -1.8697  2.7708 -1.6626
 4588TIP3   OH235254   6.749   0.993  14.670  0.1781  0.5035 -0.2016
 4588TIP3    H135255   6.795   1.066  14.629 -1.0208  0.1103 -2.3040
 4588TIP3    H235256   6.712   0.944  14.597 -0.4892 -1.2424  1.2798
 4589TIP3   OH235257   6.350   5.535   4.022 -0.2518  0.7054 -0.2728
 4589TIP3    H135258   6.402   5.489   3.956 -0.6381  0.0109 -0.1017
 4589TIP3    H235259   6.407   5.540   4.099 -0.9013 -1.2390  0.3560
 4590TIP3   OH235260   3.697   3.913  15.628 -0.0560  0.5992 -0.2760
 4590TIP3    H135261   3.732   3.976  15.566 -1.9681  1.7152 -0.2720
 4590TIP3    H235262   3.602   3.921  15.620 -0.3478 -2.2896 -0.2597
 4591TIP3   OH235263   0.594   1.622  13.569  0.1470 -0.2730  0.2462
 4591TIP3    H135264   0.577   1.537  13.527  0.8036 -0.4772  0.3836
 4591TIP3    H235265   0.627   1.677  13.498  0.2945 -0.3141  0.2831
 4592TIP3   OH235266   2.227   5.871   5.861  0.2075  0.0707  0.2632
 4592TIP3    H135267   2.159   5.932   5.832 -0.0098 -0.0060  0.5967
 4592TIP3    H235268   2.178   5.797   5.898  0.4764  0.4430  1.3729
 4593TIP3   OH235269   1.157   3.283   3.538  0.2875 -0.9399  0.6834
 4593TIP3    H135270   1.083   3.223   3.549  0.5614 -1.5807 -0.8415
 4593TIP3    H235271   1.150   3.343   3.612 -1.5727 -1.1858  0.7445
 4594TIP3   OH235272   2.705   1.755  14.591 -0.1967  0.1503 -0.7080
 4594TIP3    H135273   2.621   1.801  14.587 -1.1310 -1.1620  2.2259
 4594TIP3    H235274   2.716   1.733  14.684  2.8674 -0.7008 -1.2100
 4595TIP3   OH235275   3.233   6.015   1.471 -1.0836 -0.0355 -0.8984
 4595TIP3    H135276   3.218   5.925   1.499  0.6713 -0.7672 -2.1908
 4595TIP3    H235277   3.235   6.066   1.552 -1.5023 -1.2558 -0.1120
 4596TIP3   OH235278   2.175   1.611   0.073 -0.5056 -0.2707  0.5944
 4596TIP3    H135279   2.161   1.527   0.118 -1.4360 -0.2397  0.3685
 4596TIP3    H235280   2.270   1.626   0.080 -0.2108 -1.7187 -0.0261
 4597TIP3   OH235281   0.927   1.436   2.876  0.3468 -1.0318 -0.9188
 4597TIP3    H135282   0.872   1.499   2.829  2.6027  1.0238 -0.8926
 4597TIP3    H235283   0.915   1.354   2.828 -1.2120 -0.1631 -2.0839
 4598TIP3   OH235284   3.453   0.678   3.776 -0.1936  0.7943  0.3697
 4598TIP3    H135285   3.362   0.655   3.759  0.0013  1.4721 -1.7309
 4598TIP3    H235286   3.470   0.753   3.719  2.0656 -0.2132 -0.3697
 4599TIP3   OH235287   5.418   2.849   6.077 -0.2674  0.1865 -0.6233
 4599TIP3    H135288   5.420   2.794   5.999  1.3201  0.4024 -0.7435
 4599TIP3    H235289   5.489   2.817   6.132 -0.8214  0.5956  0.3620
 4600TIP3   OH235290   6.646   0.970  11.387 -0.4667 -0.1606 -0.2782
 4600TIP3    H135291   6.603   0.889  11.414 -1.3580  0.7485  1.1103
 4600TIP3    H235292   6.732   0.967  11.429 -0.9809  0.1784  0.8325
 4601TIP3   OH235293   5.554   3.630  13.589 -0.1586 -0.5633 -0.2196
 4601TIP3    H135294   5.597   3.581  13.659 -1.2489 -1.3484 -0.0729
 4601TIP3    H235295   5.462   3.604  13.595 -0.2600 -0.7016 -1.9981
 4602TIP3   OH235296   4.008   2.459  14.531  0.3237 -0.1729  0.3872
 4602TIP3    H135297   4.017   2.409  14.611  1.7884 -0.5068  0.0204
 4602TIP3    H235298   3.943   2.411  14.480 -1.1458  0.4297  1.6602
 4603TIP3   OH235299   4.685   2.682   4.370 -0.1915 -0.2176  0.0255
 4603TIP3    H135300   4.612   2.741   4.348 -2.4262 -2.5103  1.0277
 4603TIP3    H235301   4.733   2.728   4.438 -0.9094  1.1680 -0.3707
 4604TIP3   OH235302   3.926   3.678  12.352 -0.0174 -0.0189  0.6119
 4604TIP3    H135303   3.843   3.672  12.305 -0.3269 -2.6197  1.3681
 4604TIP3    H235304   3.901   3.678  12.445  0.8003 -2.0250  0.8777
 4605TIP3   OH235305   0.103   5.652   5.108 -0.4129  0.6009  0.3396
 4605TIP3    H135306   0.131   5.609   5.027 -0.5069  2.6386 -0.8196
 4605TIP3    H235307   0.011   5.627   5.117 -1.3883  2.9854 -2.0444
 4606TIP3   OH235308   0.047   5.273   0.928 -0.3108  0.1078 -0.1849
 4606TIP3    H135309   0.105   5.224   0.987 -0.7110 -1.6291 -1.1950
 4606TIP3    H235310   0.098   5.284   0.848 -0.5590  0.5573 -0.2842
 4607TIP3   OH235311   3.991   5.072   2.614 -0.1353  0.1118  0.3331
 4607TIP3    H135312   3.990   4.977   2.620  2.4642  0.1226  1.6705
 4607TIP3    H235313   3.995   5.102   2.705  2.5842  1.3646 -0.1373
 4608TIP3   OH235314   1.042   5.602  15.801  0.2734 -0.3773  0.1476
 4608TIP3    H135315   1.026   5.663  15.729  0.8752 -0.3518  0.0350
 4608TIP3    H235316   0.962   5.607  15.854  0.2410  0.3747  0.0412
 4609TIP3   OH235317   6.067   5.329  16.603  0.3529  0.5772 -0.4355
 4609TIP3    H135318   6.135   5.347  16.539  0.5867 -1.4461 -0.7939
 4609TIP3    H235319   6.108   5.270  16.666 -0.6353  0.4920  0.1418
 4610TIP3   OH235320   2.234   0.201   2.167  0.2715  0.3046  0.2672
 4610TIP3    H135321   2.149   0.158   2.177 -0.4445  1.1656 -1.7905
 4610TIP3    H235322   2.283   0.144   2.107  0.6575  0.4798  0.4176
 4611TIP3   OH235323   6.323   2.468   3.364 -0.1065  0.3473  0.5078
 4611TIP3    H135324   6.337   2.560   3.385  0.5062  0.3052  0.2972
 4611TIP3    H235325   6.408   2.427   3.377 -0.7542 -0.5014  2.1724
 4612TIP3   OH235326   6.428   1.968  14.649 -0.1035 -0.2261 -0.1642
 4612TIP3    H135327   6.369   2.030  14.691  1.5454  0.6458  0.9016
 4612TIP3    H235328   6.515   1.990  14.683  0.9367 -1.0851 -2.1638
 4613TIP3   OH235329   2.459   5.470  15.834  0.2549 -0.7351  0.1198
 4613TIP3    H135330   2.462   5.562  15.859  1.4828 -0.8193  0.3018
 4613TIP3    H235331   2.492   5.422  15.911  1.7081 -1.1555 -0.7303
 4614TIP3   OH235332   3.085   2.248   1.443 -0.9395  0.2151  0.3044
 4614TIP3    H135333   2.999   2.284   1.421 -0.8137  0.6815  0.5659
 4614TIP3    H235334   3.072   2.154   1.447 -1.3506  0.2591 -0.0565
 4615TIP3   OH235335   3.413   3.257   4.171  0.5289  0.3929  0.1470
 4615TIP3    H135336   3.478   3.301   4.115  2.9618 -0.9275  1.8409
 4615TIP3    H235337   3.381   3.185   4.118  2.5456 -0.6265  0.2682
 4616TIP3   OH235338   3.216   0.543  17.186  0.1565  0.0438  0.1827
 4616TIP3    H135339   3.125   0.522  17.163  0.8252 -0.6293 -2.0200
 4616TIP3    H235340   3.253   0.459  17.212  0.7631 -0.1285 -1.1967
 4617TIP3   OH235341   6.447   1.597   0.197 -0.0442  0.6342  0.9296
 4617TIP3    H135342   6.528   1.634   0.162 -0.0344  0.1957  0.4838
 4617TIP3    H235343   6.454   1.503   0.180 -0.8200  0.6450  0.5498
 4618TIP3   OH235344   5.737   6.541   5.517  0.1530  0.5499 -0.3327
 4618TIP3    H135345   5.756   6.562   5.609  1.4553 -1.0651 -0.2179
 4618TIP3    H235346   5.799   6.472   5.495 -1.2088 -0.1890 -1.9578
 4619TIP3   OH235347   6.691   6.169   0.103  0.0859  0.4056  0.6063
 4619TIP3    H135348   6.701   6.074   0.095  0.0702  0.6166 -2.4905
 4619TIP3    H235349   6.612   6.180   0.156 -0.3919 -1.3229  0.2939
 4620TIP3   OH235350   5.870   2.333  12.408 -0.3488 -0.3063 -0.1118
 4620TIP3    H135351   5.883   2.321  12.314 -2.4147  0.0710 -0.4615
 4620TIP3    H235352   5.841   2.246  12.439  0.2066 -0.3978  0.1545
 4621TIP3   OH235353   4.023   4.033   3.416 -0.2569 -0.3087  0.2980
 4621TIP3    H135354   4.092   4.097   3.433  0.7122 -1.2161 -0.1230
 4621TIP3    H235355   4.023   4.023   3.320  0.1964 -1.5576  0.4149
 4622TIP3   OH235356   1.979   3.107   2.268 -0.5647  0.0779 -0.2492
 4622TIP3    H135357   1.942   3.185   2.309 -2.2874 -1.1514  0.6073
 4622TIP3    H235358   1.903   3.058   2.237  0.4879 -1.3326 -0.6525
 4623TIP3   OH235359   5.255   3.676   1.479  0.0821 -0.5979 -0.6198
 4623TIP3    H135360   5.169   3.651   1.443 -1.2553  2.3985  0.3228
 4623TIP3    H235361   5.246   3.769   1.498  2.7128 -0.8142  1.9193
 4624TIP3   OH235362   2.487   4.407  13.303  0.8769  0.1161 -0.2365
 4624TIP3    H135363   2.497   4.492  13.260  0.2992 -0.1410 -0.8872
 4624TIP3    H235364   2.450   4.351  13.236 -0.1052 -0.2740  0.6299
 4625TIP3   OH235365   5.132   4.411  12.403 -0.2330  0.1169 -0.1247
 4625TIP3    H135366   5.138   4.458  12.319  1.2908  2.4266  1.2121
 4625TIP3    H235367   5.040   4.418  12.427  0.2432  4.3111  0.9765
 4626TIP3   OH235368   0.124   4.854   2.980 -0.4475 -0.0398  0.2901
 4626TIP3    H135369   0.204   4.878   3.026 -0.1161 -0.5178 -0.0342
 4626TIP3    H235370   0.063   4.829   3.049  0.2685 -1.4057  0.4358
 4627TIP3   OH235371   1.100   5.710   0.201 -0.1370 -0.4446  1.0509
 4627TIP3    H135372   1.056   5.708   0.286  0.9276 -0.3906  1.5985
 4627TIP3    H235373   1.192   5.696   0.220  0.0799 -0.7034 -0.1233
 4628TIP3   OH235374   6.158   4.692  12.253  0.8221 -0.3304 -0.3218
 4628TIP3    H135375   6.071   4.653  12.254  1.3413 -1.4991  1.3611
 4628TIP3    H235376   6.160   4.745  12.173 -2.3202  1.7593  0.8697
 4629TIP3   OH235377   4.206   0.744   5.761 -0.3710 -0.8234  0.4214
 4629TIP3    H135378   4.291   0.725   5.799  0.6634 -0.4019 -1.5855
 4629TIP3    H235379   4.197   0.839   5.767 -1.5300 -1.0260  2.2715
 4630TIP3   OH235380   4.454   4.414   2.365  0.0459  0.2764 -0.1417
 4630TIP3    H135381   4.364   4.383   2.361  0.1278  0.2393 -1.8728
 4630TIP3    H235382   4.504   4.348   2.317  1.2155 -0.4595  2.0213
 4631TIP3   OH235383   3.217   3.498  13.070 -0.1446  0.4794  0.3076
 4631TIP3    H135384   3.237   3.583  13.107 -0.4648  0.0698  1.4394
 4631TIP3    H235385   3.125   3.503  13.046 -0.3205  0.2385  0.9443
 4632TIP3   OH235386   2.608   1.402   6.632  0.4726 -0.6055  0.8757
 4632TIP3    H135387   2.516   1.397   6.604  0.6837 -3.1503  0.5564
 4632TIP3    H235388   2.653   1.444   6.558 -0.0242 -1.5672  0.0210
 4633TIP3   OH235389   0.891   6.604   6.192  0.6020  0.0918  0.2565
 4633TIP3    H135390   0.896   6.699   6.201  1.4839  0.1191 -0.4134
 4633TIP3    H235391   0.860   6.590   6.102 -0.9346 -0.2474  0.8147
 4634TIP3   OH235392   4.669   5.290   2.663  0.1211 -0.2725  0.4057
 4634TIP3    H135393   4.688   5.334   2.581  0.8293  1.2122  1.3322
 4634TIP3    H235394   4.719   5.208   2.659 -1.5808 -1.2546 -1.5314
 4635TIP3   OH235395   1.807   2.380   2.553  0.7496 -0.1312  0.3214
 4635TIP3    H135396   1.719   2.353   2.527 -0.3108  2.5435  0.9343
 4635TIP3    H235397   1.826   2.329   2.632 -1.5822  1.5579  2.0262
 4636TIP3   OH235398   4.630   6.308  11.446  0.0580  0.0803  0.2189
 4636TIP3    H135399   4.647   6.366  11.372  0.0118  0.9979  0.9139
 4636TIP3    H235400   4.570   6.357  11.502 -2.1119 -1.7307 -0.4762
 4637TIP3   OH235401   0.761   2.567   4.056 -0.9050  0.2734 -0.0726
 4637TIP3    H135402   0.769   2.604   3.968  0.1840  0.1517 -0.0332
 4637TIP3    H235403   0.801   2.634   4.113 -0.5239 -0.1794  0.1935
 4638TIP3   OH235404   5.951   0.792  14.570 -0.1055 -0.5041 -0.3491
 4638TIP3    H135405   5.997   0.733  14.630  0.3824  0.7686  0.5416
 4638TIP3    H235406   5.861   0.760  14.569 -0.0258 -0.7622  0.7580
 4639TIP3   OH235407   2.718   2.604   0.605  0.8068 -0.6153 -0.0818
 4639TIP3    H135408   2.801   2.646   0.628  0.4047 -0.4897  1.1555
 4639TIP3    H235409   2.666   2.607   0.685 -0.0051 -1.6262 -0.5547
 4640TIP3   OH235410   3.145   6.120  11.795 -0.7049 -0.4883 -0.1852
 4640TIP3    H135411   3.060   6.124  11.838 -2.1556 -1.1341 -2.9106
 4640TIP3    H235412   3.142   6.040  11.743  2.3970 -1.6593  1.2941
 4641TIP3   OH235413   5.375   6.680   2.385 -0.1561 -0.3047  0.2938
 4641TIP3    H135414   5.438   6.751   2.368  0.5651 -0.7309  1.1381
 4641TIP3    H235415   5.336   6.662   2.300  0.3012  0.5053 -0.0955
 4642TIP3   OH235416   5.119   2.842  11.820 -0.2782  0.2742 -0.5154
 4642TIP3    H135417   5.069   2.807  11.894  1.1255  0.0408  0.3500
 4642TIP3    H235418   5.068   2.917  11.789 -0.3089  1.0862  1.4367
 4643TIP3   OH235419   2.719   4.070  13.580  0.4186 -0.6708 -0.5083
 4643TIP3    H135420   2.762   4.154  13.596 -1.6337  0.1575  0.8206
 4643TIP3    H235421   2.677   4.048  13.663 -0.7668 -2.0340 -1.4361
 4644TIP3   OH235422   4.093   3.748   3.287 -0.1131  0.0938  0.8262
 4644TIP3    H135423   4.138   3.764   3.204 -0.2282 -0.6968  0.6080
 4644TIP3    H235424   4.161   3.755   3.353 -0.2647  2.1061  0.8075
 4645TIP3   OH235425   4.280   1.933  14.579  0.0643  0.1974  0.1314
 4645TIP3    H135426   4.238   1.865  14.527 -1.2644  1.0557  0.0514
 4645TIP3    H235427   4.302   2.001  14.515 -0.7527  0.8662  0.5591
 4646TIP3   OH235428   0.907   3.967   2.467 -0.2293  0.0049 -0.2962
 4646TIP3    H135429   0.895   4.011   2.552  0.5573  0.3304 -0.3521
 4646TIP3    H235430   0.987   4.006   2.431 -0.6415 -0.0238 -1.2556
 4647TIP3   OH235431   2.489   4.834   3.502 -0.1198  0.2398  0.7668
 4647TIP3    H135432   2.573   4.814   3.544 -0.9529 -0.8543  1.9532
 4647TIP3    H235433   2.477   4.927   3.517  1.0178  0.4687  0.3352
 4648TIP3   OH235434   5.286   3.509  15.835 -0.5893  0.1165  0.1121
 4648TIP3    H135435   5.356   3.571  15.854 -0.6488 -0.3514  1.9257
 4648TIP3    H235436   5.219   3.562  15.790  1.0122  0.4993 -1.9323
 4649TIP3   OH235437   4.699   6.740  11.992 -0.1582 -0.2999  0.3644
 4649TIP3    H135438   4.761   6.797  12.037 -0.6372  0.9285 -0.5133
 4649TIP3    H235439   4.743   6.655  11.987  1.2039  0.4037  0.2948
 4650TIP3   OH235440   2.047   4.601   3.750  0.2040  0.7198 -0.2909
 4650TIP3    H135441   1.989   4.546   3.697  0.4461 -0.3378  0.5200
 4650TIP3    H235442   2.053   4.683   3.702 -0.7011  0.2705 -1.1864
 4651TIP3   OH235443   3.293   6.343  14.014 -0.7174  0.0311 -0.1347
 4651TIP3    H135444   3.368   6.285  14.025 -1.8275 -1.6468 -1.2893
 4651TIP3    H235445   3.331   6.431  14.014  0.9492 -0.6298  1.9940
 4652TIP3   OH235446   0.636   2.298   5.897  0.1278  0.4932  0.2067
 4652TIP3    H135447   0.544   2.277   5.913 -0.3181  0.3127 -2.3146
 4652TIP3    H235448   0.672   2.220   5.854  1.4095  0.6289  1.0058
 4653TIP3   OH235449   6.672   3.913  11.969 -0.0978 -0.2284  0.1321
 4653TIP3    H135450   6.658   3.962  12.050 -1.4795 -0.2774 -0.0734
 4653TIP3    H235451   6.596   3.932  11.916  1.1112  0.3178 -1.4418
 4654TIP3   OH235452   5.848   6.548  15.061 -0.5542  0.2628  0.0234
 4654TIP3    H135453   5.872   6.494  14.986 -0.1613 -1.0964  1.1119
 4654TIP3    H235454   5.918   6.613  15.067 -0.8444  0.7046 -1.0665
 4655TIP3   OH235455   1.001   2.804   0.205  0.3173  0.7467  0.5959
 4655TIP3    H135456   1.093   2.825   0.189  0.5741 -0.8767 -0.2286
 4655TIP3    H235457   0.980   2.736   0.140 -0.8963 -0.2824  2.0155
 4656TIP3   OH235458   1.677   2.073  17.127 -0.0767 -0.5913  0.3160
 4656TIP3    H135459   1.740   2.002  17.119  1.0512  0.4539 -0.3110
 4656TIP3    H235460   1.648   2.070  17.218  0.2815 -1.5839  0.3983
 4657TIP3   OH235461   3.910   5.520   5.849  0.1441  0.3011  0.0196
 4657TIP3    H135462   3.889   5.429   5.827 -0.2831  0.2758  0.5283
 4657TIP3    H235463   3.870   5.534   5.935 -0.3880  1.1760 -0.3660
 4658TIP3   OH235464   6.083   3.685   4.611  0.1983 -0.2525 -0.2766
 4658TIP3    H135465   6.128   3.600   4.613 -1.0838 -0.9357  0.5654
 4658TIP3    H235466   6.026   3.683   4.689  1.9334  2.3717  1.1131
 4659TIP3   OH235467   5.356   4.411  14.561  0.4052 -0.4346 -0.4198
 4659TIP3    H135468   5.396   4.487  14.602 -0.8283  0.2477 -0.4487
 4659TIP3    H235469   5.411   4.393  14.485  3.3081 -2.3458  2.0225
 4660TIP3   OH235470   2.009   5.077   6.016  0.4562  0.5089  0.3733
 4660TIP3    H135471   1.978   5.122   6.095  0.4076  0.5715  0.3176
 4660TIP3    H235472   1.934   5.076   5.957  1.2651  2.9300 -0.7698
 4661TIP3   OH235473   6.240   4.050   0.517  0.0775  0.6130 -0.4163
 4661TIP3    H135474   6.227   3.957   0.496  0.1352  0.9830 -2.1725
 4661TIP3    H235475   6.310   4.050   0.581  0.1063 -0.5650 -0.4269
 4662TIP3   OH235476   2.629   3.614   2.262  0.0643  0.0156  0.0665
 4662TIP3    H135477   2.723   3.615   2.275  0.2380 -1.1633 -1.0077
 4662TIP3    H235478   2.595   3.677   2.326  1.5177  0.0207  0.8477
 4663TIP3   OH235479   2.791   4.588   5.568  0.4350 -0.1481  0.4340
 4663TIP3    H135480   2.849   4.542   5.507 -0.2043  0.9010 -0.9737
 4663TIP3    H235481   2.724   4.628   5.513  1.8426  3.8159  1.4698
 4664TIP3   OH235482   4.013   5.351   4.532 -0.0313  0.7539 -0.5211
 4664TIP3    H135483   4.103   5.363   4.563  0.1813 -0.6681 -0.5313
 4664TIP3    H235484   3.986   5.267   4.570 -0.9433  0.5993 -1.4885
 4665TIP3   OH235485   0.100   2.409  17.141 -0.1384 -0.2714  0.3040
 4665TIP3    H135486   0.010   2.408  17.107 -0.3956  1.6313  0.8454
 4665TIP3    H235487   0.155   2.419  17.063 -0.5247  0.5948  0.1356
 4666TIP3   OH235488   1.156   4.367  17.085 -0.2785 -0.4121  1.2637
 4666TIP3    H135489   1.208   4.429  17.136 -1.7532  1.2347  0.8114
 4666TIP3    H235490   1.131   4.415  17.006 -2.2386 -1.2437  1.3385
 4667TIP3   OH235491   0.564   3.995  13.603  0.5249 -0.1763  0.4162
 4667TIP3    H135492   0.527   3.942  13.532  0.2562  1.3762 -0.6082
 4667TIP3    H235493   0.499   4.063  13.619  0.3801 -0.7634  2.4752
 4668TIP3   OH235494   4.808   0.105   0.168  0.6775  0.0879 -0.2812
 4668TIP3    H135495   4.887   0.158   0.155 -0.0902  1.3607  0.1542
 4668TIP3    H235496   4.823   0.059   0.250  0.1055  1.9691  0.9326
 4669TIP3   OH235497   3.793   5.101  16.962 -0.9012 -0.8703  0.3092
 4669TIP3    H135498   3.800   5.049  17.041 -1.0861  0.1820  1.0269
 4669TIP3    H235499   3.706   5.141  16.967 -0.9713 -0.9023 -0.4962
 4670TIP3   OH235500   3.999   6.670  17.196 -0.0984 -0.2740 -0.0011
 4670TIP3    H135501   4.059   6.597  17.180 -0.6175 -0.3054 -1.9760
 4670TIP3    H235502   4.056   6.741  17.226  0.5348 -1.1745  0.9786
 4671TIP3   OH235503   2.801   3.621  15.254 -0.3491  0.0380 -0.1279
 4671TIP3    H135504   2.869   3.572  15.301 -1.0531 -1.0690 -0.2503
 4671TIP3    H235505   2.733   3.635  15.319  0.6959  2.6066  0.4579
 4672TIP3   OH235506   0.473   2.317   4.824 -0.3444  1.0298  0.1283
 4672TIP3    H135507   0.453   2.253   4.892  0.9672 -0.4743 -0.8722
 4672TIP3    H235508   0.399   2.313   4.764 -0.1833  0.2830 -0.0305
 4673TIP3   OH235509   4.690   2.340  15.412  0.2540 -0.3176 -0.2375
 4673TIP3    H135510   4.669   2.246  15.408  1.1023 -0.4743 -1.2012
 4673TIP3    H235511   4.605   2.384  15.409 -0.0708 -1.0107 -1.5546
 4674TIP3   OH235512   1.056   4.777  13.289 -0.3798  0.7943  0.1222
 4674TIP3    H135513   1.002   4.761  13.367  1.3687  0.3211  1.2447
 4674TIP3    H235514   1.145   4.759  13.317  0.1466 -0.8044 -2.3857
 4675TIP3   OH235515   4.540   0.185  16.553 -0.7188 -0.5165 -0.0816
 4675TIP3    H135516   4.532   0.153  16.643 -0.8662  0.8863  0.4060
 4675TIP3    H235517   4.451   0.183  16.519 -0.8758  0.2803  0.2666
 4676TIP3   OH235518   6.176   2.227  14.964  0.0812  0.0334 -0.0977
 4676TIP3    H135519   6.133   2.144  14.986  0.3547  0.2843  1.4282
 4676TIP3    H235520   6.106   2.281  14.927 -0.6326 -0.0492  1.0952
 4677TIP3   OH235521   6.299   1.013   5.366  0.2044 -0.4578 -0.1604
 4677TIP3    H135522   6.258   0.947   5.422  1.2785 -0.6678  0.3832
 4677TIP3    H235523   6.226   1.051   5.318 -0.4314 -2.0271 -0.4674
 4678TIP3   OH235524   5.616   6.005  15.389  0.4674  0.2493  0.2445
 4678TIP3    H135525   5.624   5.947  15.464  0.4492 -0.8407 -0.5898
 4678TIP3    H235526   5.665   6.084  15.414  0.6764 -0.2078  1.2890
 4679TIP3   OH235527   2.261   0.834   6.297  0.8353 -0.0359  0.0867
 4679TIP3    H135528   2.244   0.740   6.299 -1.7079  0.3061 -2.3422
 4679TIP3    H235529   2.347   0.842   6.256  0.8162 -1.2765 -0.2172
 4680TIP3   OH235530   0.975   2.148   0.055  0.2481  0.4101  0.5198
 4680TIP3    H135531   1.044   2.177   0.116  1.0059  2.1700 -1.1213
 4680TIP3    H235532   1.010   2.068   0.016  0.0742 -0.3259  1.8277
 4681TIP3   OH235533   1.423   1.326   0.870  0.6101 -0.7231 -0.0623
 4681TIP3    H135534   1.459   1.328   0.959 -0.3273 -3.3374  0.4214
 4681TIP3    H235535   1.425   1.233   0.846 -3.4023 -0.6623 -0.9784
 4682TIP3   OH235536   0.562   6.619  16.208  0.0131 -0.3791  0.4743
 4682TIP3    H135537   0.539   6.639  16.298 -1.4742  0.7075 -0.1247
 4682TIP3    H235538   0.497   6.666  16.155  0.7812 -1.0926 -1.1556
 4683TIP3   OH235539   6.675   6.249   4.079 -0.1486  0.0401 -0.2380
 4683TIP3    H135540   6.617   6.326   4.087  0.0856  0.0529  1.7550
 4683TIP3    H235541   6.710   6.237   4.168  1.2766 -1.2437 -0.9553
 4684TIP3   OH235542   0.680   1.001  15.577  0.0955  0.6125 -0.3018
 4684TIP3    H135543   0.647   0.933  15.519  3.4952  0.6496 -2.3791
 4684TIP3    H235544   0.675   0.963  15.665 -1.4899 -0.8756 -1.0102
 4685TIP3   OH235545   5.178   1.219  14.831  0.2610  0.5306  0.1034
 4685TIP3    H135546   5.172   1.131  14.795 -1.4711  0.6438  0.0444
 4685TIP3    H235547   5.203   1.274  14.757 -0.8200  0.4039 -0.3606
 4686TIP3   OH235548   2.857   6.208  13.710  0.5607  0.1983 -0.8008
 4686TIP3    H135549   2.836   6.118  13.737  1.1871 -0.0447 -1.1067
 4686TIP3    H235550   2.838   6.210  13.617  1.1205  0.2052 -0.9186
 4687TIP3   OH235551   1.208   1.581  11.244 -0.6458  0.5714  0.4133
 4687TIP3    H135552   1.256   1.550  11.167 -2.1252 -0.5449 -0.0828
 4687TIP3    H235553   1.259   1.656  11.275  0.9813 -0.1101 -0.5439
 4688TIP3   OH235554   0.867   1.186   1.312  0.1598 -0.1961  0.7272
 4688TIP3    H135555   0.869   1.099   1.351  0.8762  0.5245  2.3824
 4688TIP3    H235556   0.958   1.214   1.311 -0.0280  0.4127 -0.0725
 4689TIP3   OH235557   3.968   6.712   4.782  0.3856  0.1092 -0.3784
 4689TIP3    H135558   4.061   6.734   4.785  0.6890 -1.2503  1.1801
 4689TIP3    H235559   3.963   6.624   4.819 -1.7914  1.1021  1.8939
 4690TIP3   OH235560   2.618   2.403   4.753  0.4349  0.1294  0.3707
 4690TIP3    H135561   2.564   2.443   4.685 -2.9565 -1.6556  1.8895
 4690TIP3    H235562   2.657   2.326   4.711 -0.2000  0.0384 -0.0486
 4691TIP3   OH235563   4.654   5.599   0.538 -0.4481  0.3078  0.9285
 4691TIP3    H135564   4.575   5.547   0.522 -0.4731  1.2301 -2.2964
 4691TIP3    H235565   4.621   5.687   0.556 -0.1948  0.5662  0.1531
 4692TIP3   OH235566   4.655   3.524   0.365 -0.2547 -0.1498 -0.5298
 4692TIP3    H135567   4.709   3.482   0.432 -0.6224  0.7621  0.3495
 4692TIP3    H235568   4.694   3.611   0.353 -0.3291 -0.2201 -1.3340
 4693TIP3   OH235569   6.135   6.283   1.242 -0.0211  0.3990  0.6914
 4693TIP3    H135570   6.101   6.213   1.187  0.3391  0.8887 -0.1754
 4693TIP3    H235571   6.056   6.330   1.272 -0.1374  1.8482 -1.7319
 4694TIP3   OH235572   1.076   5.733  14.812 -0.5246  0.3934  0.0612
 4694TIP3    H135573   1.109   5.660  14.864 -1.7110  0.6777  1.2443
 4694TIP3    H235574   1.149   5.757  14.755  0.3361 -0.8145  0.6335
 4695TIP3   OH235575   3.341   3.412  13.537 -0.0082 -0.7169 -0.6300
 4695TIP3    H135576   3.367   3.324  13.510 -0.9603 -0.8823 -1.0529
 4695TIP3    H235577   3.269   3.435  13.478 -0.3162  0.0142  0.0167
 4696TIP3   OH235578   6.748   2.630   5.926  0.4265 -0.0732  0.8327
 4696TIP3    H135579   6.803   2.686   5.871 -3.8655  2.3440 -1.2022
 4696TIP3    H235580   6.730   2.683   6.003 -1.8779  0.5794 -0.1165
 4697TIP3   OH235581   6.516   1.059  15.818 -0.0310 -0.4806 -0.0439
 4697TIP3    H135582   6.504   1.145  15.858 -0.9600 -0.9629  0.7270
 4697TIP3    H235583   6.611   1.043  15.826  0.0619  0.2219  0.3183
 4698TIP3   OH235584   2.304   6.378  13.520 -0.5006  0.1004  0.0325
 4698TIP3    H135585   2.318   6.425  13.438 -0.8715  2.2140  1.1694
 4698TIP3    H235586   2.215   6.399  13.546  0.4648  1.6022  2.3107
 4699TIP3   OH235587   4.360   5.186   4.409 -0.0014 -0.1988  0.3307
 4699TIP3    H135588   4.445   5.190   4.452 -0.0010  0.2794  0.2816
 4699TIP3    H235589   4.372   5.123   4.338  0.3573  0.0049  0.2148
 4700TIP3   OH235590   2.774   2.588  14.088 -0.1073 -0.4167 -0.7209
 4700TIP3    H135591   2.735   2.502  14.078  0.7216 -0.8867  0.0105
 4700TIP3    H235592   2.854   2.573  14.138 -1.4863  1.1678  2.0327
 4701TIP3   OH235593   2.946   3.714  11.520 -0.1097  0.1477 -0.2504
 4701TIP3    H135594   2.873   3.715  11.582  0.1273  0.1837  0.0251
 4701TIP3    H235595   2.958   3.806  11.495 -1.2982 -0.0376 -1.6299
 4702TIP3   OH235596   5.591   5.636  11.917 -0.5227  0.0760 -0.0275
 4702TIP3    H135597   5.647   5.698  11.871 -0.1986 -0.4984 -0.4117
 4702TIP3    H235598   5.587   5.559  11.860 -1.3866 -0.0408  0.1781
 4703TIP3   OH235599   1.419   4.874   4.702  0.9739  0.4184 -0.8272
 4703TIP3    H135600   1.506   4.835   4.695  1.0407 -0.0369  1.8724
 4703TIP3    H235601   1.432   4.954   4.753 -0.0874  0.7044 -0.9900
 4704TIP3   OH235602   0.178   3.029   2.700 -0.6546 -0.0902 -0.2898
 4704TIP3    H135603   0.218   3.036   2.787  0.6929  0.6515 -0.9485
 4704TIP3    H235604   0.148   2.938   2.695 -0.7572 -0.1344  0.9536
 4705TIP3   OH235605   1.008   2.423  16.426  0.3498 -0.4826  0.1300
 4705TIP3    H135606   0.944   2.494  16.431 -1.2738 -1.7417 -1.8669
 4705TIP3    H235607   0.959   2.349  16.390  2.8345 -1.6483 -0.9755
 4706TIP3   OH235608   5.580   1.462  12.405  0.3058 -0.4360  0.3124
 4706TIP3    H135609   5.559   1.369  12.419 -0.5575 -0.3156 -0.1544
 4706TIP3    H235610   5.496   1.503  12.387  1.0632 -0.1836 -2.8982
 4707TIP3   OH235611   1.495   0.988   5.849 -0.1213  0.3062  0.1701
 4707TIP3    H135612   1.455   1.014   5.766  1.4057 -0.3305 -0.7953
 4707TIP3    H235613   1.496   0.892   5.845  1.5073  0.3129  0.1591
 4708TIP3   OH235614   2.271   2.139  15.296  0.0829 -0.2577 -0.4013
 4708TIP3    H135615   2.364   2.132  15.272  0.7852 -0.4025  2.2099
 4708TIP3    H235616   2.269   2.207  15.363 -1.4007 -1.6204  0.9724
 4709TIP3   OH235617   5.857   1.429   1.747  0.0547  0.0786  0.1473
 4709TIP3    H135618   5.847   1.523   1.759 -0.0787  0.2274 -1.0525
 4709TIP3    H235619   5.777   1.402   1.702  1.3915 -0.0856 -2.2150
 4710TIP3   OH235620   5.837   6.410   3.801 -0.3397  0.7619 -0.4057
 4710TIP3    H135621   5.929   6.438   3.795 -1.1976  3.5349 -1.4184
 4710TIP3    H235622   5.799   6.435   3.716 -1.9759 -0.6034 -0.0926
 4711TIP3   OH235623   0.028   1.284  17.287  0.1030 -0.2717 -0.3965
 4711TIP3    H135624   0.013   1.357  17.228  1.7740  1.7548  1.5719
 4711TIP3    H235625   0.123   1.272  17.287  0.4703  1.4886  3.6705
 4712TIP3   OH235626   3.004   1.520   0.769 -0.1996  0.0916  0.1939
 4712TIP3    H135627   2.990   1.463   0.693  1.5990  1.8661 -1.5031
 4712TIP3    H235628   3.080   1.481   0.813  0.7406  0.8741 -0.7090
 4713TIP3   OH235629   5.746   1.230   1.035  0.2717 -0.0440  0.1695
 4713TIP3    H135630   5.705   1.149   1.006 -1.4995  0.5892  0.8699
 4713TIP3    H235631   5.769   1.214   1.126  3.2455 -1.0162 -0.6818
 4714TIP3   OH235632   0.606   6.697  13.160  0.0590 -0.1184 -0.0051
 4714TIP3    H135633   0.544   6.700  13.234  1.7107 -1.0480  1.4591
 4714TIP3    H235634   0.601   6.606  13.130  1.7522 -0.5771  1.0529
 4715TIP3   OH235635   2.365   4.288   3.257 -0.9845 -0.3819 -0.3085
 4715TIP3    H135636   2.443   4.251   3.297 -0.8486  0.3751  0.1405
 4715TIP3    H235637   2.298   4.284   3.325 -0.1643  2.9292  0.7923
 4716TIP3   OH235638   3.538   5.569  13.212 -0.2485  0.0253 -0.0171
 4716TIP3    H135639   3.510   5.532  13.295 -0.2577 -0.3451 -0.1867
 4716TIP3    H235640   3.632   5.584  13.222 -0.3957  0.7221  0.3404
 4717TIP3   OH235641   5.544   1.697  14.739  0.1470  0.0859 -0.5921
 4717TIP3    H135642   5.503   1.777  14.705  0.1494 -0.2786 -1.4713
 4717TIP3    H235643   5.485   1.627  14.711  0.0977 -0.2165  0.2524
 4718TIP3   OH235644   4.795   1.068   2.461 -0.4722  0.1700  0.1508
 4718TIP3    H135645   4.830   1.123   2.392 -0.2203 -0.8239 -0.5136
 4718TIP3    H235646   4.745   1.129   2.517 -1.8915  0.7495 -1.6980
 4719TIP3   OH235647   2.839   5.095  11.550  0.2007 -0.0874 -0.4820
 4719TIP3    H135648   2.841   5.165  11.485 -0.0177  1.0932  0.7711
 4719TIP3    H235649   2.929   5.062  11.552  0.4976  0.7164 -0.4756
 4720TIP3   OH235650   1.978   4.184  12.124 -0.4308  0.5772 -0.0132
 4720TIP3    H135651   2.057   4.190  12.070  0.3893 -1.7831  0.8556
 4720TIP3    H235652   2.010   4.195  12.214 -0.8342 -1.9455  0.4670
 4721TIP3   OH235653   1.440   6.715   1.379 -0.2755  0.2335  0.2544
 4721TIP3    H135654   1.510   6.733   1.316 -0.5072 -3.7889 -1.2780
 4721TIP3    H235655   1.442   6.620   1.391 -2.4292  0.5577  3.8044
 4722TIP3   OH235656   1.791   4.575   0.225 -0.1278 -0.4541  0.0589
 4722TIP3    H135657   1.878   4.534   0.221 -0.1580 -0.4007 -1.3778
 4722TIP3    H235658   1.808   4.666   0.250  0.1563 -0.6381  0.5516
 4723TIP3   OH235659   0.976   2.539  15.741 -0.4358 -0.0551  0.2877
 4723TIP3    H135660   0.909   2.517  15.806  0.0896  2.7655  1.8677
 4723TIP3    H235661   1.041   2.590  15.790  0.3618  1.4715 -2.2592
 4724TIP3   OH235662   5.118   6.456  13.444  0.3338  0.2486  0.2063
 4724TIP3    H135663   5.033   6.416  13.427 -0.2431  2.0158 -1.1016
 4724TIP3    H235664   5.165   6.447  13.362  0.3981  1.7817  0.0739
 4725TIP3   OH235665   4.254   6.489   5.089 -0.0920 -0.2391  0.6442
 4725TIP3    H135666   4.257   6.405   5.045 -1.3394  0.7876 -1.4384
 4725TIP3    H235667   4.161   6.510   5.097  0.1727  0.4841  2.0427
 4726TIP3   OH235668   4.578   4.932  13.209  0.5453 -0.6294 -0.0227
 4726TIP3    H135669   4.555   4.855  13.260  1.5095 -0.5064  0.6162
 4726TIP3    H235670   4.613   4.994  13.273  1.1885 -0.2410 -0.7311
 4727TIP3   OH235671   3.898   0.508  10.571 -0.4903  0.2883  0.5171
 4727TIP3    H135672   3.812   0.476  10.600  0.1058 -0.8407  1.0826
 4727TIP3    H235673   3.879   0.586  10.521 -1.8836 -0.1409  0.3601
 4728TIP3   OH235674   5.376   2.439  13.072 -0.2924 -0.2906 -0.6316
 4728TIP3    H135675   5.292   2.443  13.027 -1.7973  0.1829  2.1065
 4728TIP3    H235676   5.354   2.449  13.165  2.7901 -0.1662  0.1402
 4729TIP3   OH235677   5.575   1.763  15.048 -0.0828  0.3279  0.5910
 4729TIP3    H135678   5.598   1.853  15.070 -0.6906  0.4138  0.8717
 4729TIP3    H235679   5.573   1.762  14.952 -1.2555  0.9093  0.6102
 4730TIP3   OH235680   3.113   5.756  15.424 -0.2238 -0.0963  0.0095
 4730TIP3    H135681   3.134   5.713  15.507  2.5042  0.9532 -0.0735
 4730TIP3    H235682   3.123   5.849  15.442  1.2961  0.0935 -1.7057
 4731TIP3   OH235683   6.153   3.783  10.997  0.2985  0.6319  0.1283
 4731TIP3    H135684   6.243   3.802  10.973  0.5837  1.0678  1.4996
 4731TIP3    H235685   6.159   3.712  11.060 -0.3488  0.3452 -0.1220
 4732TIP3   OH235686   3.112   2.711   2.372 -0.2819  0.1485 -0.3002
 4732TIP3    H135687   3.102   2.625   2.414 -2.8047 -0.3953 -1.9237
 4732TIP3    H235688   3.052   2.768   2.420 -1.9110 -0.0665 -2.0821
 4733TIP3   OH235689   5.979   3.629   3.422  0.4418  0.9239 -0.1013
 4733TIP3    H135690   6.068   3.658   3.440 -0.0378  1.0998  2.1409
 4733TIP3    H235691   5.988   3.534   3.408  0.8495  0.7589  1.1917
 4734TIP3   OH235692   0.057   6.761   2.307 -0.0985 -0.1518  0.1176
 4734TIP3    H135693   0.010   6.702   2.366 -0.4723  1.1429  1.1500
 4734TIP3    H235694   0.017   6.846   2.322  1.3704  0.6283 -0.3271
 4735TIP3   OH235695   5.070   0.916   3.061  0.1865 -0.0230  0.6806
 4735TIP3    H135696   5.023   0.941   2.981  1.7065  1.0224  0.1112
 4735TIP3    H235697   5.154   0.883   3.030  1.4957  2.0707  1.9480
 4736TIP3   OH235698   0.146   4.596   5.559  0.1348  0.0342 -0.0822
 4736TIP3    H135699   0.158   4.513   5.513  1.4099  0.0982  0.1013
 4736TIP3    H235700   0.067   4.584   5.611  0.3982 -1.1181  0.0678
 4737TIP3   OH235701   3.108   3.045   1.900  0.2376 -0.0625  0.7129
 4737TIP3    H135702   3.113   2.981   1.971  1.4340 -0.2143  0.4928
 4737TIP3    H235703   3.047   3.112   1.932 -0.5249 -0.9725  1.2021
 4738TIP3   OH235704   1.435   2.389  14.043 -0.3001 -0.1667  0.0999
 4738TIP3    H135705   1.479   2.420  14.122  0.3809 -1.1129  0.1118
 4738TIP3    H235706   1.480   2.307  14.022 -0.0131  0.4168 -1.6499
 4739TIP3   OH235707   5.315   6.373   0.501 -0.2472  0.3192 -0.0511
 4739TIP3    H135708   5.265   6.453   0.518  0.1114  0.2812  1.1706
 4739TIP3    H235709   5.262   6.302   0.538  0.7064  0.2805  1.2761
 4740TIP3   OH235710   3.859   4.859  12.011  0.5701  0.1108 -0.3926
 4740TIP3    H135711   3.918   4.907  11.953  1.7482 -0.5666  0.2314
 4740TIP3    H235712   3.849   4.916  12.088 -1.4924  1.2960 -1.4813
 4741TIP3   OH235713   1.108   2.663  12.525  0.5642 -0.0989 -1.0238
 4741TIP3    H135714   1.088   2.739  12.470  1.2070  1.0628  0.3118
 4741TIP3    H235715   1.061   2.591  12.484 -2.2305  1.5449 -0.8452
 4742TIP3   OH235716   1.462   2.083   4.779  0.3228  0.1344  0.1746
 4742TIP3    H135717   1.491   2.004   4.824  1.0032  1.0507  1.3563
 4742TIP3    H235718   1.366   2.082   4.788  0.0676 -1.8922 -2.0872
 4743TIP3   OH235719   2.958   1.315   4.910 -0.4261 -0.3803  0.4784
 4743TIP3    H135720   3.008   1.396   4.916 -0.4346 -0.4022  0.8536
 4743TIP3    H235721   2.892   1.322   4.979  0.2270 -1.1528  1.1976
 4744TIP3   OH235722   0.766   1.384   5.726  0.2124 -0.5577 -0.7044
 4744TIP3    H135723   0.688   1.430   5.694  0.3129  0.3286  0.3058
 4744TIP3    H235724   0.815   1.362   5.647 -0.6005 -0.2956 -1.2897
 4745TIP3   OH235725   3.366   5.491   4.759 -0.0182 -0.1175 -0.2739
 4745TIP3    H135726   3.379   5.444   4.677 -2.1914  3.0164 -2.5595
 4745TIP3    H235727   3.322   5.429   4.816  0.4781 -2.0128 -1.8943
 4746TIP3   OH235728   1.646   5.722  16.901  1.1257 -0.3622 -0.0170
 4746TIP3    H135729   1.583   5.670  16.851 -1.8556  0.3389  2.8958
 4746TIP3    H235730   1.643   5.808  16.860  0.0742 -0.2981  0.1751
 4747TIP3   OH235731   3.714   5.050   1.212 -0.0418  0.1318  0.0325
 4747TIP3    H135732   3.799   5.027   1.175 -0.4890 -1.0080 -0.3079
 4747TIP3    H235733   3.732   5.064   1.305  0.7995  1.4830 -0.3112
 4748TIP3   OH235734   5.901   2.542  11.749  0.1297 -0.1010 -0.3668
 4748TIP3    H135735   5.961   2.602  11.705 -0.7937 -1.4247 -3.5670
 4748TIP3    H235736   5.815   2.582  11.739 -0.0147 -0.0761  0.8873
 4749TIP3   OH235737   1.083   5.136   5.951 -1.1860  0.1265 -0.1065
 4749TIP3    H135738   1.099   5.127   6.045 -0.5928 -1.5375 -0.3492
 4749TIP3    H235739   1.149   5.199   5.922 -1.1220  0.3599  0.5373
 4750TIP3   OH235740   5.209   0.609  10.804 -0.0730 -0.3514  0.2028
 4750TIP3    H135741   5.172   0.571  10.725  0.9432 -2.1859  0.6005
 4750TIP3    H235742   5.297   0.638  10.779 -0.7113  1.5113 -0.0129
 4751TIP3   OH235743   6.451   0.656   4.557  0.0424 -0.4848  0.3494
 4751TIP3    H135744   6.501   0.627   4.481 -1.0621 -0.1383 -0.5210
 4751TIP3    H235745   6.513   0.652   4.630  1.6208  0.8703 -0.8740
 4752TIP3   OH235746   5.212   3.240   4.781  1.1028  0.1660 -1.1149
 4752TIP3    H135747   5.253   3.302   4.841  1.4891 -1.1458 -0.0002
 4752TIP3    H235748   5.138   3.205   4.831  2.1499 -1.8411 -0.9460
 4753TIP3   OH235749   6.372   6.698  11.726  0.0252  0.6285 -0.1017
 4753TIP3    H135750   6.344   6.703  11.818  0.9706 -0.1429  0.2392
 4753TIP3    H235751   6.301   6.738  11.677  0.6648  3.5301  1.2071
 4754TIP3   OH235752   0.820   5.219   0.384  0.2070 -0.8079  0.2412
 4754TIP3    H135753   0.750   5.210   0.318 -0.7592  0.1197  1.1247
 4754TIP3    H235754   0.814   5.138   0.435 -2.5333  0.7358  2.4934
 4755TIP3   OH235755   2.789   3.994  13.862  0.4230  0.4905 -0.6267
 4755TIP3    H135756   2.829   3.926  13.808 -0.7073  0.6913 -1.7281
 4755TIP3    H235757   2.847   4.069  13.853  1.9554 -0.4401  0.9902
 4756TIP3   OH235758   6.794   5.184  12.613 -0.7650  0.9605 -0.1017
 4756TIP3    H135759   6.842   5.207  12.533  0.6929  0.2555  0.5647
 4756TIP3    H235760   6.859   5.144  12.670 -1.6447  2.0220  1.7124
 4757TIP3   OH235761   3.398   3.201   5.114  0.2134 -0.3798 -0.5187
 4757TIP3    H135762   3.349   3.270   5.069 -0.9132 -0.2527  0.8277
 4757TIP3    H235763   3.342   3.178   5.189  0.6610 -2.6227 -0.8435
 4758TIP3   OH235764   0.670   3.005   6.189 -0.2653 -0.3632 -0.1952
 4758TIP3    H135765   0.704   2.927   6.233  0.3361  0.7089  1.2783
 4758TIP3    H235766   0.594   2.974   6.141  0.0440 -1.8854  0.2694
 4759TIP3   OH235767   5.706   3.567  13.143 -0.1852 -0.2267 -0.3563
 4759TIP3    H135768   5.640   3.569  13.213  1.5554  0.4624  1.3272
 4759TIP3    H235769   5.774   3.508  13.177  0.6595  0.0774 -1.5068
 4760TIP3   OH235770   1.832   6.337  12.313 -0.5062 -0.1427 -0.4905
 4760TIP3    H135771   1.768   6.271  12.341 -0.6909 -0.1128 -0.8367
 4760TIP3    H235772   1.793   6.375  12.234 -0.4473  0.4513 -0.2327
 4761TIP3   OH235773   3.131   1.670   2.165 -0.1002  0.1065 -0.1641
 4761TIP3    H135774   3.055   1.647   2.219  0.3789 -0.2344  0.3711
 4761TIP3    H235775   3.202   1.616   2.200  0.6871  1.3192  0.1411
 4762TIP3   OH235776   4.373   0.150   6.439  0.2535 -0.0276  0.3531
 4762TIP3    H135777   4.444   0.197   6.396  0.2112 -0.4386 -0.1724
 4762TIP3    H235778   4.312   0.219   6.467  0.7705  0.3072  0.6455
 4763TIP3   OH235779   3.380   6.519  12.232  0.6066 -0.3156  0.2223
 4763TIP3    H135780   3.425   6.460  12.292  1.9774 -0.1498 -0.6172
 4763TIP3    H235781   3.439   6.594  12.223 -1.0575  1.1723  1.2042
 4764TIP3   OH235782   6.056   0.613  14.766 -0.0753 -0.3596  0.2584
 4764TIP3    H135783   5.973   0.566  14.778 -0.0128 -0.8807 -1.2100
 4764TIP3    H235784   6.114   0.577  14.833 -0.5608 -1.1154  0.2828
 4765TIP3   OH235785   4.116   6.263  17.112  0.3813 -0.6234  0.1769
 4765TIP3    H135786   4.032   6.298  17.139  0.2364  0.6542 -1.8790
 4765TIP3    H235787   4.126   6.182  17.163 -2.2428 -0.9934  0.1407
 4766TIP3   OH235788   6.322   0.005   3.968  0.6244  0.9659  0.1455
 4766TIP3    H135789   6.395   0.056   4.003  0.8131 -0.1674  1.4403
 4766TIP3    H235790   6.254   0.012   4.034  0.9421 -1.1029  0.7347
 4767TIP3   OH235791   0.841   5.705  12.640 -0.4460  0.2290 -0.2046
 4767TIP3    H135792   0.881   5.755  12.569  0.5561  0.1295  0.2808
 4767TIP3    H235793   0.908   5.643  12.667 -0.7321  0.4293  0.9916
 4768TIP3   OH235794   3.034   2.401  16.546  0.2715 -0.5061 -0.8669
 4768TIP3    H135795   2.964   2.371  16.488 -1.4751  1.1675  0.2813
 4768TIP3    H235796   3.050   2.492  16.519  1.4281 -0.6055 -0.5556
 4769TIP3   OH235797   0.383   1.373  15.063  0.3799 -0.3785 -0.5519
 4769TIP3    H135798   0.466   1.421  15.068  0.3796 -0.4134 -0.1716
 4769TIP3    H235799   0.321   1.428  15.110  0.7176 -1.4534  1.2213
 4770TIP3   OH235800   4.056   6.613   6.696 -0.1898 -0.3331  0.2528
 4770TIP3    H135801   4.110   6.686   6.667 -0.5648 -0.3326 -0.4504
 4770TIP3    H235802   3.995   6.598   6.624 -0.4921 -0.9632  0.6355
 4771TIP3   OH235803   5.379   4.565   6.066 -0.4156  0.1920  0.4712
 4771TIP3    H135804   5.355   4.655   6.044  1.1100  0.7212  0.9040
 4771TIP3    H235805   5.402   4.569   6.159  2.5089 -0.0114 -0.1908
 4772TIP3   OH235806   0.809   5.999  15.193 -0.2412 -0.3799  0.1687
 4772TIP3    H135807   0.838   6.090  15.196  1.5400 -0.9604  1.7286
 4772TIP3    H235808   0.832   5.969  15.105 -2.2284  1.0917 -0.8798
 4773TIP3   OH235809   6.813   0.723  13.257 -0.2493 -0.0599 -0.2116
 4773TIP3    H135810   6.819   0.783  13.331 -0.1948 -3.0447  2.3104
 4773TIP3    H235811   6.720   0.718  13.238 -0.2619  0.7419 -0.3751
 4774TIP3   OH235812   5.253   6.233  14.075  0.0209 -0.0771 -0.4083
 4774TIP3    H135813   5.241   6.202  13.985 -1.0615  0.0959 -0.3330
 4774TIP3    H235814   5.225   6.325  14.072 -1.2424 -0.4355  0.3904
 4775TIP3   OH235815   3.403   6.685   3.514  0.7185 -0.1349  0.9157
 4775TIP3    H135816   3.352   6.765   3.502  1.2270 -0.0282 -0.6086
 4775TIP3    H235817   3.469   6.708   3.579  1.3981  0.9555 -0.1357
 4776TIP3   OH235818   3.506   4.923   3.814 -0.4731 -0.1057  0.0770
 4776TIP3    H135819   3.517   4.854   3.879 -0.5134  0.6931  0.9441
 4776TIP3    H235820   3.590   4.969   3.814 -0.3221 -0.3541 -0.7536
 4777TIP3   OH235821   3.336   5.086   4.962  0.2265  0.1084 -0.2772
 4777TIP3    H135822   3.362   5.020   5.026  0.3993  0.2710 -0.1786
 4777TIP3    H235823   3.396   5.159   4.977 -1.0902  0.9990  0.8372
 4778TIP3   OH235824   5.139   2.476  12.928 -0.2668  0.4762 -0.3452
 4778TIP3    H135825   5.091   2.417  12.871  1.4072  1.4842 -2.8991
 4778TIP3    H235826   5.085   2.555  12.931 -1.0183 -0.0517  0.6287
 4779TIP3   OH235827   0.344   3.777  10.449  0.1252  0.0603  0.1869
 4779TIP3    H135828   0.403   3.707  10.478 -1.0094 -1.4263 -1.0194
 4779TIP3    H235829   0.270   3.731  10.410  0.6345  1.9472 -3.1654
 4780TIP3   OH235830   5.351   2.008   2.552 -0.0431  0.5213 -0.0681
 4780TIP3    H135831   5.288   2.055   2.607  0.1496  0.8319 -0.1117
 4780TIP3    H235832   5.437   2.040   2.582  0.2363 -1.8106  1.7866
 4781TIP3   OH235833   5.858   1.873  16.399 -0.2930 -0.0455  0.6791
 4781TIP3    H135834   5.935   1.816  16.405  0.4676  1.0188  1.1484
 4781TIP3    H235835   5.872   1.939  16.467 -1.7078  0.0576  0.8762
 4782TIP3   OH235836   1.159   2.972   5.885  0.5433  0.0077 -0.2936
 4782TIP3    H135837   1.150   3.015   5.970  0.8880 -0.1981 -0.1537
 4782TIP3    H235838   1.098   3.019   5.828  0.9250  0.6924 -0.1439
 4783TIP3   OH235839   0.870   2.642  13.061  0.3442  0.1909  0.1935
 4783TIP3    H135840   0.845   2.729  13.093  0.5855 -0.0001  0.9218
 4783TIP3    H235841   0.825   2.633  12.978 -0.5382  0.5928  0.6188
 4784TIP3   OH235842   1.321   3.349  14.677 -0.1546 -0.5802  0.4082
 4784TIP3    H135843   1.244   3.334  14.732 -0.6982 -0.3568 -0.2848
 4784TIP3    H235844   1.290   3.407  14.608  0.6804 -0.3559  0.2146
 4785TIP3   OH235845   1.917   5.069   4.131  0.1529  0.0486 -0.1596
 4785TIP3    H135846   1.944   5.121   4.054 -1.3405 -0.2263 -0.8903
 4785TIP3    H235847   1.928   4.978   4.103 -0.9316 -0.0566 -0.2524
 4786TIP3   OH235848   0.925   4.149  10.830  0.4109 -0.1373 -0.7754
 4786TIP3    H135849   0.835   4.127  10.853  1.3213 -2.6649  0.4877
 4786TIP3    H235850   0.936   4.117  10.740  0.2560 -0.4436 -0.6855
 4787TIP3   OH235851   5.986   4.921  15.653 -0.1219 -0.0540 -0.0892
 4787TIP3    H135852   5.927   4.894  15.582 -0.0329  1.3589 -0.7227
 4787TIP3    H235853   6.068   4.876  15.635  0.4266  1.5812 -1.8558
 4788TIP3   OH235854   1.232   3.176  11.255 -0.6136 -0.2082  0.2212
 4788TIP3    H135855   1.302   3.239  11.235  0.4399 -1.6643 -0.7786
 4788TIP3    H235856   1.261   3.134  11.336 -0.4534 -0.6255 -0.0508
 4789TIP3   OH235857   4.589   5.288   2.009 -0.2301  0.3330  0.5618
 4789TIP3    H135858   4.639   5.240   2.075 -1.5355  0.3887  1.6276
 4789TIP3    H235859   4.498   5.272   2.033 -0.7670 -0.8163 -2.0813
 4790TIP3   OH235860   6.779   4.417  12.976  0.0101 -0.6600  0.1452
 4790TIP3    H135861   6.701   4.384  13.021 -0.2494  1.7225  1.5750
 4790TIP3    H235862   6.791   4.358  12.902 -3.6416 -0.6216 -0.5884
 4791TIP3   OH235863   5.628   0.297  14.589 -0.4239 -0.2335  0.4491
 4791TIP3    H135864   5.605   0.304  14.496  0.1013  1.2465  0.4198
 4791TIP3    H235865   5.724   0.297  14.590 -0.4280  0.0998  1.0107
 4792TIP3   OH235866   2.674   1.862  13.355  0.1284 -0.0815  0.4559
 4792TIP3    H135867   2.675   1.954  13.381 -0.2133  1.0597 -3.2649
 4792TIP3    H235868   2.587   1.831  13.380 -0.6321  1.2981 -0.4187
 4793TIP3   OH235869   1.789   4.819  13.560 -0.1448  0.0666 -0.1950
 4793TIP3    H135870   1.705   4.790  13.594 -0.1283 -1.1342 -1.1602
 4793TIP3    H235871   1.791   4.913  13.579 -2.4332  0.4617 -1.6736
 4794TIP3   OH235872   0.235   1.337  16.023 -0.0505  0.1122 -0.6292
 4794TIP3    H135873   0.178   1.293  15.960 -2.1119 -0.2114  1.3776
 4794TIP3    H235874   0.312   1.280  16.030 -0.3449 -0.4623 -1.9372
 4795TIP3   OH235875   2.536   2.996   3.359  0.3164  0.1421 -0.1309
 4795TIP3    H135876   2.459   3.024   3.409  1.2271 -1.1171  2.0312
 4795TIP3    H235877   2.560   3.074   3.308 -2.3432  0.5606 -0.8313
 4796TIP3   OH235878   1.225   1.185  14.669 -0.3718 -0.5059 -0.7875
 4796TIP3    H135879   1.213   1.090  14.676 -0.6155 -0.3922  0.4738
 4796TIP3    H235880   1.310   1.201  14.711 -1.3870  0.0892  1.1221
 4797TIP3   OH235881   2.209   2.506   5.253  0.5717 -0.0766  0.0417
 4797TIP3    H135882   2.250   2.450   5.187 -0.6112 -1.5549  0.5400
 4797TIP3    H235883   2.274   2.573   5.272  1.3716 -0.3105 -1.7844
 4798TIP3   OH235884   5.526   2.856  12.138  0.5910  0.0683 -0.2343
 4798TIP3    H135885   5.600   2.896  12.093  0.5462 -0.0675 -0.4321
 4798TIP3    H235886   5.466   2.830  12.068 -0.6129  2.0876  0.0293
 4799TIP3   OH235887   3.430   5.683  12.581 -0.2687  0.0049 -0.6305
 4799TIP3    H135888   3.455   5.644  12.497  1.5567  2.0261 -1.0624
 4799TIP3    H235889   3.440   5.612  12.644  0.3588 -0.9754 -1.8164
 4800TIP3   OH235890   5.889   2.328   1.514  0.0413  0.5032  0.2223
 4800TIP3    H135891   5.875   2.421   1.529  1.7512  0.6384  1.1150
 4800TIP3    H235892   5.856   2.313   1.425 -3.5552  1.1746  1.3474
 4801TIP3   OH235893   4.259   3.674  12.024 -0.0921 -0.7523  0.2786
 4801TIP3    H135894   4.299   3.589  12.039 -1.0015 -1.1438  0.5452
 4801TIP3    H235895   4.246   3.710  12.111 -1.9994 -1.4369  0.3158
 4802TIP3   OH235896   4.621   0.419  17.143  0.4338  0.1481 -0.2296
 4802TIP3    H135897   4.609   0.377  17.228 -0.5398 -0.5946 -0.7291
 4802TIP3    H235898   4.669   0.354  17.091 -0.6989 -0.1778 -0.8700
 4803TIP3   OH235899   4.541   0.644  13.970  0.3505  0.0029  0.7098
 4803TIP3    H135900   4.507   0.661  14.058  0.5589  1.5899  0.4938
 4803TIP3    H235901   4.524   0.724  13.922  0.3703 -0.8072 -0.6677
 4804TIP3   OH235902   1.399   4.296  11.289  0.3551  0.5618 -0.6487
 4804TIP3    H135903   1.330   4.230  11.280 -1.6438  2.8005 -2.6374
 4804TIP3    H235904   1.477   4.254  11.254 -0.5281 -1.2814 -0.4300
 4805TIP3   OH235905   3.405   5.012  13.456  0.1588  0.2895 -0.2616
 4805TIP3    H135906   3.355   4.969  13.386 -0.8500 -0.1661  0.7257
 4805TIP3    H235907   3.467   4.946  13.486  0.3127  0.3512 -0.4428
 4806TIP3   OH235908   0.099   6.531  16.684 -0.0413  0.1198 -0.5628
 4806TIP3    H135909   0.190   6.520  16.659  0.0030  2.9594 -1.8616
 4806TIP3    H235910   0.090   6.482  16.766  2.3619 -1.0357 -0.9619
 4807TIP3   OH235911   2.127   4.185   0.079 -0.1673  0.2038 -0.4060
 4807TIP3    H135912   2.158   4.217   0.163  1.1163  2.0254 -1.5360
 4807TIP3    H235913   2.202   4.139   0.042 -1.3794 -2.4778  0.3248
 4808TIP3   OH235914   0.431   1.784  15.119 -0.1738 -0.5865  0.6991
 4808TIP3    H135915   0.450   1.802  15.211 -0.3387  1.3955  0.3574
 4808TIP3    H235916   0.356   1.725  15.121  0.6449 -1.6228  1.8575
 4809TIP3   OH235917   3.654   5.750   0.060 -0.5634  0.1227  0.3788
 4809TIP3    H135918   3.740   5.753   0.019 -1.3564 -0.5053 -1.3551
 4809TIP3    H235919   3.613   5.833   0.038 -1.7070 -0.9572 -1.7597
 4810TIP3   OH235920   6.091   1.678  12.054  0.5759  0.5500 -0.2724
 4810TIP3    H135921   6.123   1.753  12.103 -0.4398  1.0274 -0.3469
 4810TIP3    H235922   6.171   1.629  12.032  1.3332  2.0364 -0.9534
 4811TIP3   OH235923   3.691   3.191  12.317 -0.3625  0.2252 -0.1930
 4811TIP3    H135924   3.612   3.224  12.360  0.3937  1.7941  0.0137
 4811TIP3    H235925   3.734   3.136  12.383 -1.6267 -1.2042 -0.5374
 4812TIP3   OH235926   4.775   0.897  16.515  0.2998  0.0120 -0.8812
 4812TIP3    H135927   4.833   0.957  16.469 -1.5002  1.6094 -1.1037
 4812TIP3    H235928   4.788   0.813  16.471  2.8765  0.1930 -0.5261
 4813TIP3   OH235929   5.972   5.219   6.459 -0.1330  0.4951  0.1344
 4813TIP3    H135930   6.033   5.285   6.492 -0.6401  1.1824 -0.2927
 4813TIP3    H235931   6.005   5.196   6.372  0.0101  0.2270  0.2587
 4814TIP3   OH235932   1.243   2.897   3.836  0.1731  0.0834 -0.1519
 4814TIP3    H135933   1.207   2.817   3.797  0.8666  0.4883 -1.6391
 4814TIP3    H235934   1.211   2.895   3.927 -0.2546 -1.6088 -0.3085
 4815TIP3   OH235935   2.155   0.161  14.156  0.1293  0.4874  0.3577
 4815TIP3    H135936   2.155   0.249  14.120 -2.5606  1.9752  3.6759
 4815TIP3    H235937   2.091   0.113  14.102 -0.5057  1.3711  0.3262
 4816TIP3   OH235938   4.235   2.246   3.675  0.5711  0.5362 -0.0815
 4816TIP3    H135939   4.247   2.324   3.729 -0.3518  0.5300  0.1430
 4816TIP3    H235940   4.151   2.209   3.704  0.6826 -0.1764 -0.6374
 4817TIP3   OH235941   1.675   3.020   0.941 -0.2589  0.2720 -0.3770
 4817TIP3    H135942   1.683   3.097   0.998 -2.5113 -0.3687  0.8935
 4817TIP3    H235943   1.604   2.968   0.981 -0.3725 -1.2971 -2.5239
 4818TIP3   OH235944   1.408   6.802  13.775 -0.5096 -0.4067 -0.2325
 4818TIP3    H135945   1.374   6.886  13.745  0.0225 -0.2404 -0.3618
 4818TIP3    H235946   1.429   6.755  13.694 -0.4891 -0.5329 -0.1537
 4819TIP3   OH235947   1.009   1.492  12.139 -0.4095 -0.0506 -0.1273
 4819TIP3    H135948   1.052   1.547  12.073 -1.2392  1.8014  0.8326
 4819TIP3    H235949   0.916   1.512  12.130 -0.7813 -1.7329 -0.1247
 4820TIP3   OH235950   2.564   5.071  11.720 -0.5313  0.5752  0.0531
 4820TIP3    H135951   2.639   5.056  11.777 -0.9053  0.9296  0.6430
 4820TIP3    H235952   2.586   5.025  11.639 -0.5586 -1.0579  0.9370
 4821TIP3   OH235953   2.143   6.604  15.705 -0.2734 -0.0147  0.0629
 4821TIP3    H135954   2.071   6.609  15.642 -0.1354  1.6779  0.0168
 4821TIP3    H235955   2.103   6.568  15.784 -0.6875 -1.1221 -0.6291
 4822TIP3   OH235956   4.617   2.972   5.277  0.5373  0.5574 -0.4637
 4822TIP3    H135957   4.527   2.958   5.247  0.6489 -0.4498 -0.3431
 4822TIP3    H235958   4.650   2.885   5.296  2.2548  0.7188 -2.5419
 4823TIP3   OH235959   5.134   5.948  12.960 -0.0863  0.1534 -0.6664
 4823TIP3    H135960   5.186   5.877  12.923 -0.0092 -0.0925 -0.0942
 4823TIP3    H235961   5.056   5.951  12.905  0.5831  0.6009 -1.5967
 4824TIP3   OH235962   4.317   6.484   5.804 -0.1042  0.1228 -0.0613
 4824TIP3    H135963   4.347   6.449   5.720  2.1069 -1.4812  1.3651
 4824TIP3    H235964   4.397   6.505   5.852 -1.3291  4.1186  0.4382
 4825TIP3   OH235965   5.049   6.298   3.351 -0.6001  0.4588  0.1280
 4825TIP3    H135966   5.076   6.211   3.379 -0.9828  0.2207 -0.2272
 4825TIP3    H235967   5.120   6.328   3.294 -1.0830 -0.1679 -0.8133
 4826TIP3   OH235968   3.656   3.577  13.749  0.4583 -0.1436  0.0819
 4826TIP3    H135969   3.569   3.542  13.765 -0.6764  2.1006 -0.9665
 4826TIP3    H235970   3.681   3.543  13.663  0.4199 -0.4140  0.1787
 4827TIP3   OH235971   1.482   2.824  12.939 -0.1323  0.2517  0.3345
 4827TIP3    H135972   1.417   2.887  12.970 -1.0244 -0.6110  0.2481
 4827TIP3    H235973   1.523   2.867  12.865 -0.8979  0.6512  0.1319
 4828TIP3   OH235974   2.254   0.959  13.062 -0.0479 -0.2362  0.0404
 4828TIP3    H135975   2.208   0.898  13.120  0.5352 -0.0248  0.7427
 4828TIP3    H235976   2.207   1.042  13.073  0.6191  0.0401  0.9395
 4829TIP3   OH235977   4.066   1.409   2.370  0.7491 -0.2022  0.0132
 4829TIP3    H135978   4.000   1.340   2.377  0.7082 -0.0449  1.2514
 4829TIP3    H235979   4.149   1.362   2.370  0.7387 -0.2420  1.2566
 4830TIP3   OH235980   5.184   6.739  15.301  0.0596  0.1430  0.1082
 4830TIP3    H135981   5.268   6.761  15.262  0.4828 -2.0205 -0.2302
 4830TIP3    H235982   5.206   6.682  15.375 -1.0398  0.4159  0.6546
 4831TIP3   OH235983   5.826   4.569   4.900  0.2706  0.1356 -0.7160
 4831TIP3    H135984   5.883   4.493   4.903 -3.3015 -2.6510  0.5828
 4831TIP3    H235985   5.788   4.567   4.811 -0.5891 -0.2416 -0.3497
 4832TIP3   OH235986   4.890   2.972  10.537 -0.3615 -0.3257  0.4541
 4832TIP3    H135987   4.881   2.906  10.468 -1.2614 -1.1232  1.3272
 4832TIP3    H235988   4.973   2.951  10.580  0.8983  1.0087 -1.2456
 4833TIP3   OH235989   3.269   3.335   0.171  0.5499 -0.5987  0.4559
 4833TIP3    H135990   3.239   3.299   0.254 -1.0782  2.6182  1.3663
 4833TIP3    H235991   3.328   3.406   0.195 -0.4088  0.7676 -1.0615
 4834TIP3   OH235992   4.574   5.412  10.603 -0.7022 -0.6513  1.4843
 4834TIP3    H135993   4.540   5.481  10.660 -1.1635 -0.5149  1.0604
 4834TIP3    H235994   4.499   5.389  10.547 -0.6480 -1.7221  1.8384
 4835TIP3   OH235995   3.634   5.972  12.456 -0.1306 -0.0481 -0.3170
 4835TIP3    H135996   3.712   6.027  12.455  0.5840 -1.0644 -1.5820
 4835TIP3    H235997   3.668   5.883  12.462 -1.2468 -0.4300  0.4746
 4836TIP3   OH235998   6.356   4.664  16.055 -0.4810  0.3021  0.5807
 4836TIP3    H135999   6.296   4.731  16.021 -1.1262  0.1159  1.3128
 4836TIP3    H236000   6.388   4.701  16.137  1.4990  0.9933 -0.4818
 4837TIP3   OH236001   1.786   5.077  12.696 -0.1913  0.1065 -0.2206
 4837TIP3    H136002   1.828   5.012  12.752  0.2464  1.6141  1.2332
 4837TIP3    H236003   1.767   5.030  12.615  1.3055 -1.4747  0.3218
 4838TIP3   OH236004   2.925   1.905  15.016 -0.0302 -0.5499 -0.3455
 4838TIP3    H136005   2.923   1.963  15.092  1.0291 -0.5558 -0.3163
 4838TIP3    H236006   3.016   1.905  14.987 -0.4037 -0.6343 -1.5526
 4839TIP3   OH236007   6.610   3.004  17.112  0.4097 -0.1546  0.0638
 4839TIP3    H136008   6.650   3.068  17.053  0.1653 -0.6004 -0.5948
 4839TIP3    H236009   6.568   3.056  17.179 -2.5568  0.5175 -2.2216
 4840TIP3   OH236010   4.633   3.663  12.961  0.2436 -0.7306  0.0347
 4840TIP3    H136011   4.618   3.756  12.979  1.0157 -0.4055 -0.9716
 4840TIP3    H236012   4.715   3.661  12.911  0.4048 -1.9821  0.3464
 4841TIP3   OH236013   1.899   1.801  14.254  0.3550  0.4494  0.1455
 4841TIP3    H136014   1.941   1.755  14.181 -2.3856 -0.7326 -0.7752
 4841TIP3    H236015   1.823   1.843  14.214 -0.1808  1.2934  2.0152
 4842TIP3   OH236016   4.144   5.433  16.287 -0.6562 -0.1534  0.3872
 4842TIP3    H136017   4.100   5.503  16.335 -2.0769 -0.3484 -0.5915
 4842TIP3    H236018   4.191   5.478  16.217  0.0371 -0.0167  0.9346
 4843TIP3   OH236019   6.089   6.458   3.474 -0.4292 -0.2031  0.1989
 4843TIP3    H136020   6.119   6.549   3.481 -1.0958  0.0551 -0.2631
 4843TIP3    H236021   6.170   6.407   3.470 -0.0321  0.4660 -0.6504
 4844TIP3   OH236022   1.100   5.004   0.412 -0.6938  0.4020  0.2116
 4844TIP3    H136023   1.042   5.005   0.488 -1.8263 -1.1890 -0.6032
 4844TIP3    H236024   1.044   4.976   0.339  1.0884 -1.1790 -0.5929
 4845TIP3   OH236025   4.058   6.181  16.560 -0.6135  0.2077  0.0700
 4845TIP3    H136026   4.119   6.206  16.491  0.0682 -2.1413 -0.2273
 4845TIP3    H236027   4.013   6.262  16.583  0.8091  1.4769 -1.4901
 4846TIP3   OH236028   6.789   0.240  14.754  0.0088  0.2412 -0.3276
 4846TIP3    H136029   6.791   0.222  14.660  1.0443  0.0698 -0.2738
 4846TIP3    H236030   6.807   0.334  14.760  1.7144 -0.0721 -0.2156
 4847TIP3   OH236031   5.125   0.169  14.067  0.7423 -0.5801 -0.3526
 4847TIP3    H136032   5.052   0.108  14.061  1.1709 -1.0678 -0.6921
 4847TIP3    H236033   5.143   0.193  13.976  0.7081 -0.1117 -0.2345
 4848TIP3   OH236034   6.437   3.888   0.945  0.0225  0.7982 -0.1593
 4848TIP3    H136035   6.471   3.800   0.925 -1.4656  0.4483 -1.2002
 4848TIP3    H236036   6.455   3.899   1.039 -1.9631 -1.6116  0.5646
 4849TIP3   OH236037   5.478   2.588   1.951  0.1987 -0.1269  0.4391
 4849TIP3    H136038   5.505   2.533   2.025 -0.4469 -1.0507  0.0015
 4849TIP3    H236039   5.444   2.668   1.991  2.2915  0.4844  1.0403
 4850TIP3   OH236040   0.863   6.644   5.172 -0.3511 -0.0233  0.3211
 4850TIP3    H136041   0.941   6.614   5.125 -0.9101  0.7965 -1.1839
 4850TIP3    H236042   0.884   6.733   5.199 -1.2654  0.7262 -1.3426
 4851TIP3   OH236043   0.137   6.214  14.306 -0.2369  0.1236 -0.0455
 4851TIP3    H136044   0.176   6.162  14.377  2.9153  0.5083 -1.4123
 4851TIP3    H236045   0.102   6.149  14.245  0.8524 -0.3427 -0.1895
 4852TIP3   OH236046   1.358   3.801   6.285 -0.2643 -0.3854 -0.3685
 4852TIP3    H136047   1.419   3.729   6.300  1.1972  0.6912 -1.0132
 4852TIP3    H236048   1.404   3.859   6.224 -2.3436 -0.0517 -1.6609
 4853TIP3   OH236049   1.054   4.752  16.853 -0.2071  0.1412  0.1508
 4853TIP3    H136050   1.066   4.725  16.944  2.5327 -0.2608 -0.2819
 4853TIP3    H236051   1.105   4.688  16.802 -1.3246  0.6326 -1.6326
 4854TIP3   OH236052   4.031   4.667  14.780  1.0194  0.3769  0.3922
 4854TIP3    H136053   3.941   4.689  14.756  1.6812  0.1961 -2.4869
 4854TIP3    H236054   4.035   4.572  14.775  1.3128  0.3691  0.7618
 4855TIP3   OH236055   0.014   1.529   2.059 -0.2429 -0.3707  0.3318
 4855TIP3    H136056   0.040   1.577   2.138 -0.8211 -0.2559  0.4477
 4855TIP3    H236057   0.091   1.535   2.002 -0.1968  0.4331  0.4695
 4856TIP3   OH236058   4.350   2.888  14.928  0.4845  0.5617  0.0241
 4856TIP3    H136059   4.322   2.979  14.924  0.6807  0.5622 -1.7719
 4856TIP3    H236060   4.441   2.890  14.898  1.0349 -0.0057  1.6215
 4857TIP3   OH236061   0.877   3.277   0.580 -0.4868 -0.3603 -0.0145
 4857TIP3    H136062   0.922   3.286   0.664  2.3216 -2.4946 -1.2166
 4857TIP3    H236063   0.912   3.348   0.527  0.4598 -1.1847 -0.5068
 4858TIP3   OH236064   6.628   0.762  15.590  0.0511  0.1469  0.0398
 4858TIP3    H136065   6.663   0.713  15.516 -0.7924 -4.1132  2.3131
 4858TIP3    H236066   6.705   0.794  15.637  0.6097  1.1812 -1.5465
 4859TIP3   OH236067   0.493   1.869   0.831 -0.3464 -0.0338  0.1599
 4859TIP3    H136068   0.458   1.957   0.817 -0.2443 -0.1973 -1.1947
 4859TIP3    H236069   0.508   1.863   0.925 -3.0553  0.3866  0.6504
 4860TIP3   OH236070   5.313   2.825  14.090 -0.3611 -0.0330 -0.3961
 4860TIP3    H136071   5.404   2.802  14.069 -0.2461 -0.0470  0.1055
 4860TIP3    H236072   5.274   2.743  14.119  0.0678  0.3778  1.4586
 4861TIP3   OH236073   1.899   0.103  15.959  0.0126  0.4263 -0.4728
 4861TIP3    H136074   1.898   0.041  16.033 -0.0853 -0.0838 -0.8980
 4861TIP3    H236075   1.825   0.161  15.975 -1.0274 -0.7126 -1.0289
 4862TIP3   OH236076   4.440   2.671   2.995 -0.4411 -0.3137  0.3322
 4862TIP3    H136077   4.501   2.684   3.068 -0.8972  0.4526  0.5845
 4862TIP3    H236078   4.407   2.758   2.976 -1.8495 -0.7941  0.5311
 4863TIP3   OH236079   5.677   3.189   2.623 -0.1429 -0.0445  0.4623
 4863TIP3    H136080   5.592   3.175   2.582  0.5434  2.6095 -2.0425
 4863TIP3    H236081   5.722   3.250   2.565  2.6066  0.4157  2.9382
 4864TIP3   OH236082   1.778   1.213  11.575  0.1293 -0.4352  0.3610
 4864TIP3    H136083   1.849   1.257  11.528  0.7174  0.3636  1.9636
 4864TIP3    H236084   1.711   1.197  11.509  2.0929 -1.8629 -1.3467
 4865TIP3   OH236085   2.763   4.304  12.683  0.3304  0.3360 -0.4428
 4865TIP3    H136086   2.709   4.241  12.732  1.3817  0.3354  0.7238
 4865TIP3    H236087   2.712   4.322  12.604 -0.6510 -0.8835 -0.1047
 4866TIP3   OH236088   0.004   4.421   5.986 -0.1112 -0.1208  0.5704
 4866TIP3    H136089   0.054   4.393   6.063 -2.2179 -1.2506  1.5686
 4866TIP3    H236090   0.023   4.515   5.979  0.5620 -0.1172  2.1231
 4867TIP3   OH236091   5.343   2.315   1.993 -0.0828  0.3608  0.6139
 4867TIP3    H136092   5.275   2.370   2.031 -1.1901  0.0512 -0.8600
 4867TIP3    H236093   5.408   2.306   2.062 -1.7236  0.3566  2.1999
 4868TIP3   OH236094   2.507   1.642  17.159 -0.7029  0.0852 -0.7380
 4868TIP3    H136095   2.493   1.728  17.119 -0.1275  0.5299  0.0092
 4868TIP3    H236096   2.590   1.650  17.205 -0.4378 -1.0040 -1.0075
 4869TIP3   OH236097   0.534   0.279   5.445 -0.1446 -0.2755  0.3815
 4869TIP3    H136098   0.544   0.203   5.386 -0.1538  1.9488 -2.6329
 4869TIP3    H236099   0.623   0.307   5.463 -0.1693 -0.1950  0.3788
 4870TIP3   OH236100   4.451   2.217  16.817 -0.1741  0.2386 -0.3488
 4870TIP3    H136101   4.535   2.172  16.808 -0.1723  0.2995 -0.6564
 4870TIP3    H236102   4.407   2.202  16.733 -0.4267  0.2937 -0.2259
 4871TIP3   OH236103   6.370   4.315  13.737 -0.0814 -0.2909  0.0196
 4871TIP3    H136104   6.366   4.373  13.661 -1.8677  0.3033  0.5541
 4871TIP3    H236105   6.422   4.364  13.801 -0.5656  0.2079  0.0302
 4872TIP3   OH236106   3.946   2.583  15.908 -0.1962  0.3830  0.0832
 4872TIP3    H136107   4.014   2.650  15.913 -0.7687  0.8367  2.7948
 4872TIP3    H236108   3.874   2.626  15.862 -0.3245  1.4367  1.2370
 4873TIP3   OH236109   2.481   0.951  11.883  0.2432  0.5162  0.0787
 4873TIP3    H136110   2.522   1.037  11.892 -0.2090  0.7893 -0.4604
 4873TIP3    H236111   2.531   0.908  11.813  1.0265  0.0079  0.9416
 4874TIP3   OH236112   5.440   5.915  13.278  0.0018  0.2375 -0.2219
 4874TIP3    H136113   5.362   5.962  13.309 -0.0850  0.4280 -0.7225
 4874TIP3    H236114   5.509   5.981  13.278  0.3763 -0.1405  1.0478
 4875TIP3   OH236115   3.880   1.305   3.069  0.2034 -0.5983 -0.0699
 4875TIP3    H136116   3.947   1.302   3.137 -1.0995  1.2256  1.3645
 4875TIP3    H236117   3.800   1.277   3.114 -0.6820  0.6589 -0.8330
 4876TIP3   OH236118   1.532   2.409  17.159 -0.2436  0.0741  0.5878
 4876TIP3    H136119   1.464   2.467  17.124 -0.9954 -1.1466  0.0089
 4876TIP3    H236120   1.505   2.321  17.133  0.8481 -0.5560  1.5279
 4877TIP3   OH236121   2.535   0.379   1.093  0.3312  0.0422  0.6109
 4877TIP3    H136122   2.484   0.298   1.083  2.1355 -0.9626 -0.9139
 4877TIP3    H236123   2.520   0.426   1.011  0.4013  0.5848  0.9125
 4878TIP3   OH236124   6.251   1.062   1.155  0.1586 -0.0138 -0.3396
 4878TIP3    H136125   6.345   1.079   1.149  0.6778 -0.4812  4.1310
 4878TIP3    H236126   6.210   1.149   1.155  0.6063  0.2057 -1.7573
 4879TIP3   OH236127   0.805   1.866   3.664  0.3061 -0.0536 -0.4582
 4879TIP3    H136128   0.750   1.806   3.715 -0.2293 -1.2362 -2.3603
 4879TIP3    H236129   0.747   1.901   3.596  1.0781  1.2484 -0.4670
 4880TIP3   OH236130   1.311   4.613   0.236  0.1773 -0.1433  0.4947
 4880TIP3    H136131   1.307   4.704   0.266 -0.2136 -0.3468  1.0782
 4880TIP3    H236132   1.394   4.580   0.270  0.3986  0.0406  0.1404
 4881TIP3   OH236133   3.189   6.199  14.684  0.6608  0.2368  0.1140
 4881TIP3    H136134   3.271   6.189  14.635 -0.2246 -1.7448 -1.0322
 4881TIP3    H236135   3.191   6.127  14.747 -0.0901  0.3040  0.2125
 4882TIP3   OH236136   1.731   5.157   4.287 -0.1173 -0.1702  0.8181
 4882TIP3    H136137   1.661   5.205   4.242  0.5677  0.0454 -0.0294
 4882TIP3    H236138   1.777   5.111   4.218 -1.0537 -2.4837  1.6692
 4883TIP3   OH236139   1.628   2.520   6.321 -0.2278  0.5061 -0.3690
 4883TIP3    H136140   1.717   2.497   6.348  0.5192  2.8441 -0.6814
 4883TIP3    H236141   1.576   2.516   6.402  0.2108 -0.6340 -0.1450
 4884TIP3   OH236142   2.658   0.660   3.176 -0.6595  0.3587  0.0689
 4884TIP3    H136143   2.665   0.744   3.221  0.1428 -0.9414  2.4516
 4884TIP3    H236144   2.565   0.638   3.179 -0.5158 -0.1010  1.9031
 4885TIP3   OH236145   5.181   3.535  10.428 -0.8413 -0.4639  0.1898
 4885TIP3    H136146   5.116   3.565  10.364 -1.3922  0.8039  1.3299
 4885TIP3    H236147   5.256   3.508  10.374 -2.1011 -1.4915 -1.1051
 4886TIP3   OH236148   4.030   2.638   5.808 -0.1898 -0.3601  0.3179
 4886TIP3    H136149   4.021   2.688   5.727  2.3992 -1.9520 -0.9942
 4886TIP3    H236150   3.961   2.572   5.804  1.1770 -1.7077 -1.5721
 4887TIP3   OH236151   1.510   4.691   1.741 -0.1413 -0.2677 -0.0188
 4887TIP3    H136152   1.455   4.740   1.803 -0.4513 -0.9875  0.2856
 4887TIP3    H236153   1.597   4.692   1.782  0.5238  2.4064 -1.3636
 4888TIP3   OH236154   3.375   6.615  14.079 -0.0167  0.0377 -0.0868
 4888TIP3    H136155   3.325   6.654  14.007  1.0407 -0.4089 -1.0643
 4888TIP3    H236156   3.430   6.687  14.111  0.1687 -0.0112 -0.3019
 4889TIP3   OH236157   1.093   3.916   5.947 -0.3160  0.3746 -0.4350
 4889TIP3    H136158   1.068   3.871   6.028 -0.9886 -0.6470 -1.1818
 4889TIP3    H236159   1.187   3.927   5.954 -0.1246 -1.2126 -0.2320
 4890TIP3   OH236160   6.258   4.978  16.799  0.1452  0.3742  0.5460
 4890TIP3    H136161   6.215   5.010  16.878  0.0506  3.0689 -0.5446
 4890TIP3    H236162   6.351   4.977  16.820  0.0435  0.1881  0.9844
 4891TIP3   OH236163   5.385   2.444  16.594 -0.2553 -0.6532  0.3543
 4891TIP3    H136164   5.443   2.377  16.630 -0.2890 -0.5887  0.5275
 4891TIP3    H236165   5.342   2.482  16.670 -1.4482 -1.5499  0.1540
 4892TIP3   OH236166   5.331   0.204  14.562  0.2380 -0.3706  0.1590
 4892TIP3    H136167   5.415   0.233  14.527  0.8183 -0.2855  1.6332
 4892TIP3    H236168   5.351   0.128  14.615 -0.5973 -0.2532  0.6594
 4893TIP3   OH236169   0.492   0.488   2.952 -0.2125  0.7556 -0.1021
 4893TIP3    H136170   0.519   0.472   3.042  2.4565  1.1009 -0.7736
 4893TIP3    H236171   0.456   0.577   2.952 -0.3872  0.6850  0.6488
 4894TIP3   OH236172   4.622   6.101  15.002 -0.0684 -0.1596 -0.0576
 4894TIP3    H136173   4.561   6.030  14.982  0.2181 -0.8683  1.5027
 4894TIP3    H236174   4.570   6.164  15.052  0.4833 -0.8303  1.3970
 4895TIP3   OH236175   2.696   0.583  16.435 -0.3709 -0.2377 -0.2017
 4895TIP3    H136176   2.606   0.590  16.404  0.2403  1.4848 -1.6667
 4895TIP3    H236177   2.706   0.491  16.460 -1.7417 -1.0826 -2.5683
 4896TIP3   OH236178   0.600   1.153   4.991  0.2589 -0.4646  0.1975
 4896TIP3    H136179   0.617   1.069   4.948  0.0607 -0.0365 -0.7221
 4896TIP3    H236180   0.682   1.201   4.983  0.0848 -0.2137 -0.0996
 4897TIP3   OH236181   0.372   0.869  10.775 -0.0641  0.2778  0.1426
 4897TIP3    H136182   0.448   0.926  10.758 -1.1477  2.1811  1.4322
 4897TIP3    H236183   0.371   0.858  10.870 -0.3313 -1.2973 -0.0326
 4898TIP3   OH236184   0.500   5.690  15.175  0.4533  1.2306 -0.5921
 4898TIP3    H136185   0.477   5.663  15.086 -1.9370 -1.0533  0.6386
 4898TIP3    H236186   0.504   5.608  15.225  1.8585  2.4566  1.4020
 4899TIP3   OH236187   3.772   4.088  15.438 -0.0663  0.7323 -0.1143
 4899TIP3    H136188   3.817   4.135  15.367  0.7675 -0.8765 -0.6776
 4899TIP3    H236189   3.705   4.149  15.469 -0.7083  1.3068 -2.5452
 4900TIP3   OH236190   0.856   2.195   4.980  0.1056 -0.1316  0.4629
 4900TIP3    H136191   0.894   2.156   4.901 -1.5674  0.4967 -0.6981
 4900TIP3    H236192   0.893   2.283   4.984 -1.5546  0.6640 -0.9560
 4901TIP3   OH236193   3.654   5.157   0.245  0.1830 -0.4921  0.1611
 4901TIP3    H136194   3.589   5.117   0.186 -0.1915 -1.2315  1.0604
 4901TIP3    H236195   3.735   5.110   0.227 -0.5810 -2.7339  2.2439
 4902TIP3   OH236196   5.469   4.576   3.689 -0.2929  0.1506 -0.2300
 4902TIP3    H136197   5.411   4.586   3.613  0.4984  1.2825 -0.6954
 4902TIP3    H236198   5.556   4.570   3.652 -0.1910 -2.7426  0.4032
 4903TIP3   OH236199   6.258   6.110  16.221  0.2544 -0.0625  0.0953
 4903TIP3    H136200   6.179   6.156  16.251  0.8860  1.2819 -0.2775
 4903TIP3    H236201   6.233   6.071  16.137  0.1854  0.9198 -0.3390
 4904TIP3   OH236202   0.030   3.737   1.804 -0.0603 -0.2042 -0.4515
 4904TIP3    H136203   0.011   3.801   1.873 -1.6338 -0.1804 -0.8787
 4904TIP3    H236204   0.125   3.730   1.802  0.0023  0.0179  1.5223
 4905TIP3   OH236205   6.582   4.685   1.068 -0.3024  0.5490 -0.6068
 4905TIP3    H136206   6.610   4.627   0.997 -0.3374  1.2251 -1.1913
 4905TIP3    H236207   6.497   4.718   1.039 -0.6537  0.2620  0.0964
 4906TIP3   OH236208   5.164   6.129   1.708  0.3032 -0.0571 -0.2693
 4906TIP3    H136209   5.112   6.100   1.783 -0.0803 -0.4756 -0.6918
 4906TIP3    H236210   5.250   6.149   1.744 -0.2282  0.8937  0.4798
 4907TIP3   OH236211   5.898   6.160  15.363  0.3305 -0.3354 -0.6161
 4907TIP3    H136212   5.947   6.231  15.404 -1.1439  0.6119 -0.4445
 4907TIP3    H236213   5.959   6.086  15.362  0.9449  0.0966  1.8079
 4908TIP3   OH236214   1.971   6.448   6.028  0.3294  0.3106 -0.3696
 4908TIP3    H136215   1.926   6.440   5.944 -0.0776  1.4527 -0.2661
 4908TIP3    H236216   1.965   6.361   6.066 -1.9372  0.4587 -0.2941
 4909TIP3   OH236217   0.376   0.255   2.790 -0.6004  0.5692 -0.1178
 4909TIP3    H136218   0.352   0.256   2.697 -0.1597  2.5473 -0.2291
 4909TIP3    H236219   0.390   0.347   2.812  1.2549 -0.0548  1.4054
 4910TIP3   OH236220   3.038   4.204   5.504 -0.3103 -0.2229 -0.4240
 4910TIP3    H136221   3.090   4.159   5.570 -1.4855 -1.0048 -0.0078
 4910TIP3    H236222   2.963   4.146   5.488 -0.1462  0.0464 -2.3018
 4911TIP3   OH236223   0.945   4.750   4.906  0.4173 -0.2801 -0.6209
 4911TIP3    H136224   0.959   4.845   4.904  1.1813 -0.4051 -1.9675
 4911TIP3    H236225   1.016   4.717   4.961  0.2207 -0.0901 -0.2471
 4912TIP3   OH236226   3.552   2.222   2.425 -0.2155 -0.3314  0.2972
 4912TIP3    H136227   3.538   2.186   2.512 -0.9413 -1.7960 -0.4065
 4912TIP3    H236228   3.549   2.146   2.367  0.6810  0.5694 -0.9613
 4913TIP3   OH236229   5.702   5.717   1.722  1.0313 -0.4404  0.5548
 4913TIP3    H136230   5.790   5.751   1.737  0.7056  0.9211 -0.4789
 4913TIP3    H236231   5.649   5.757   1.792  0.7496  0.7972 -0.3500
 4914TIP3   OH236232   4.786   4.911  15.898 -0.1873 -0.3447 -0.1409
 4914TIP3    H136233   4.814   4.948  15.982  1.0233 -0.4918 -0.4603
 4914TIP3    H236234   4.816   4.820  15.901 -0.8140 -0.5639 -0.4270
 4915TIP3   OH236235   2.074   6.660   4.948  0.2060 -0.2045 -0.1643
 4915TIP3    H136236   2.038   6.738   4.990  2.0140  0.8780 -0.5472
 4915TIP3    H236237   2.096   6.688   4.860  2.8094 -0.5473  0.3388
 4916TIP3   OH236238   4.960   3.456   0.918 -0.2915  0.5709 -0.1487
 4916TIP3    H136239   4.972   3.482   1.009 -0.6528 -1.7579  0.5923
 4916TIP3    H236240   4.991   3.366   0.914 -3.6395 -0.5957 -1.5104
 4917TIP3   OH236241   4.873   6.222  14.331  0.1126 -0.3902  0.1491
 4917TIP3    H136242   4.902   6.312  14.317 -0.5432 -0.2744 -0.4795
 4917TIP3    H236243   4.792   6.230  14.381 -0.0283 -0.6336 -0.0413
 4918TIP3   OH236244   5.119   3.220  10.489 -0.2124  0.2716 -0.0771
 4918TIP3    H136245   5.136   3.170  10.409  0.6195 -0.6540  0.6633
 4918TIP3    H236246   5.196   3.205  10.543 -1.3128 -0.1233  1.4191
 4919TIP3   OH236247   3.681   0.211  14.891  0.3365 -0.4534  0.0004
 4919TIP3    H136248   3.694   0.144  14.824 -0.1731 -2.1828  1.5913
 4919TIP3    H236249   3.758   0.206  14.946  0.1901  0.1154  0.2633
 4920TIP3   OH236250   5.826   2.219  10.524  0.4403  0.1624 -0.1539
 4920TIP3    H136251   5.877   2.141  10.504  0.5469  0.2137 -0.0766
 4920TIP3    H236252   5.735   2.187  10.526  0.5949 -0.2114  1.1381
 4921TIP3   OH236253   4.226   3.349  15.105  0.0017  0.4178 -0.3442
 4921TIP3    H136254   4.136   3.317  15.113 -0.0651  0.1558 -1.9389
 4921TIP3    H236255   4.223   3.412  15.033  1.1936  0.0302 -0.7545
 4922TIP3   OH236256   3.677   1.981   0.859 -0.6822 -0.0200 -0.6659
 4922TIP3    H136257   3.651   2.072   0.878  1.5957  0.2753  1.3047
 4922TIP3    H236258   3.631   1.929   0.925 -4.0318 -0.6726 -3.3734
 4923TIP3   OH236259   6.532   1.166  11.974  0.2352 -0.4250 -0.3716
 4923TIP3    H136260   6.465   1.097  11.971 -0.3483  0.2218 -3.0733
 4923TIP3    H236261   6.494   1.233  12.031 -0.1710 -1.3009  0.4166
 4924TIP3   OH236262   0.673   5.686   4.328  0.7770 -0.1434  0.1826
 4924TIP3    H136263   0.657   5.673   4.422  1.0318  0.6867  0.3414
 4924TIP3    H236264   0.596   5.648   4.285  1.4731 -2.1660  0.6367
 4925TIP3   OH236265   0.787   6.308   2.280 -0.3089  0.6561 -0.2827
 4925TIP3    H136266   0.845   6.372   2.239  0.4070  0.3472  0.2484
 4925TIP3    H236267   0.817   6.224   2.247 -0.1266  0.4565  0.3809
 4926TIP3   OH236268   4.942   3.294   5.081 -0.3616 -0.4178  0.5981
 4926TIP3    H136269   4.893   3.353   5.024 -1.6172 -1.5369  0.4945
 4926TIP3    H236270   5.027   3.285   5.038 -1.6441 -2.0971 -1.7418
 4927TIP3   OH236271   5.188   6.522  12.927 -0.2306 -0.3040  0.0790
 4927TIP3    H136272   5.186   6.458  12.999  0.7156  0.8532  1.1588
 4927TIP3    H236273   5.127   6.591  12.955  2.2860  1.5697  1.1620
 4928TIP3   OH236274   2.857   3.870  10.494  0.2670  0.2293 -0.3870
 4928TIP3    H136275   2.812   3.942  10.451  0.7870  0.3896 -0.6764
 4928TIP3    H236276   2.915   3.912  10.557  0.9091  0.0925 -0.8776
 4929TIP3   OH236277   2.239   1.879   6.389  0.1781  0.4394  0.5865
 4929TIP3    H136278   2.309   1.936   6.421  0.2982  0.2538  0.6565
 4929TIP3    H236279   2.265   1.791   6.418 -0.4314  0.4626  1.2109
 4930TIP3   OH236280   3.506   1.571  11.254 -0.2260 -0.2695  0.2958
 4930TIP3    H136281   3.491   1.614  11.170  0.6494  1.8082  1.1714
 4930TIP3    H236282   3.601   1.561  11.259 -0.2290  0.0801  1.2376
 4931TIP3   OH236283   1.888   2.775   6.456 -0.2077  0.5439 -0.3033
 4931TIP3    H136284   1.958   2.710   6.447 -0.2737  0.2149  1.4525
 4931TIP3    H236285   1.933   2.859   6.455  0.1818  0.3478  0.3633
 4932TIP3   OH236286   2.748   4.998  13.821  0.0107  0.1948  0.1351
 4932TIP3    H136287   2.812   5.069  13.819  0.9390 -0.6399 -1.2108
 4932TIP3    H236288   2.665   5.039  13.798  0.2679  1.0982  0.8252
 4933TIP3   OH236289   0.731   2.053  16.885  0.2729  0.3575  0.4685
 4933TIP3    H136290   0.783   2.022  16.959 -1.3283 -1.3063  0.9230
 4933TIP3    H236291   0.759   1.999  16.811 -1.9540 -1.7638  1.0905
 4934TIP3   OH236292   2.127   6.332   1.561  0.1591  0.0628 -0.4563
 4934TIP3    H136293   2.062   6.292   1.619  1.4839 -0.2366  0.8630
 4934TIP3    H236294   2.076   6.366   1.487 -1.3475 -1.1718 -0.0047
 4935TIP3   OH236295   0.917   4.499  13.054  0.0031 -0.1188 -0.2192
 4935TIP3    H136296   0.890   4.467  12.968 -0.0158 -1.0357  0.1260
 4935TIP3    H236297   0.836   4.506  13.105  0.0742 -0.0554 -0.1130
 4936TIP3   OH236298   0.274   0.268   3.090  0.0411  0.2315  0.8328
 4936TIP3    H136299   0.279   0.276   2.995 -1.0797 -1.4237  0.6285
 4936TIP3    H236300   0.365   0.265   3.119  0.3925  1.4996 -0.1099
 4937TIP3   OH236301   4.399   1.791  12.678 -0.3315  0.3188 -0.1002
 4937TIP3    H136302   4.362   1.721  12.732  0.2330 -0.0962 -0.2545
 4937TIP3    H236303   4.326   1.819  12.623 -0.0553 -1.5118 -1.4516
 4938TIP3   OH236304   1.815   1.846   2.180  0.4080 -0.0352 -0.1166
 4938TIP3    H136305   1.738   1.796   2.208 -0.3387  1.2467  0.1324
 4938TIP3    H236306   1.834   1.904   2.254  0.9513  0.4205 -0.6137
 4939TIP3   OH236307   0.146   3.106   6.795  0.0089  0.0398  0.4935
 4939TIP3    H136308   0.124   3.078   6.706  1.8989 -0.6265  0.2213
 4939TIP3    H236309   0.063   3.100   6.843 -1.4586  2.2226 -1.6582
 4940TIP3   OH236310   2.078   2.223   2.345 -0.2839  0.0583  0.1576
 4940TIP3    H136311   2.162   2.260   2.371 -0.5534  0.3738  0.6053
 4940TIP3    H236312   2.046   2.282   2.276  0.8636 -1.3152 -1.5936
 4941TIP3   OH236313   3.931   1.443   2.641  0.8326  0.1562 -0.1376
 4941TIP3    H136314   3.842   1.469   2.665  0.5625 -0.3568 -0.5718
 4941TIP3    H236315   3.945   1.482   2.554  0.6604 -0.6071 -0.5096
 4942TIP3   OH236316   0.916   4.786  10.851 -0.5004 -0.1246  0.0201
 4942TIP3    H136317   0.822   4.789  10.870 -0.5094  1.1379 -0.2340
 4942TIP3    H236318   0.922   4.795  10.756 -0.0068  2.2194  0.2487
 4943TIP3   OH236319   0.826   4.005   0.588 -0.4876  0.5244  0.2447
 4943TIP3    H136320   0.864   3.940   0.528 -2.0194  1.4725 -1.8136
 4943TIP3    H236321   0.901   4.059   0.615  0.1945  0.2564 -1.0548
 4944TIP3   OH236322   4.742   2.624  12.169 -0.0024  0.1775 -0.5193
 4944TIP3    H136323   4.755   2.529  12.168  1.8075  0.3795  1.0952
 4944TIP3    H236324   4.661   2.636  12.218  2.3552 -0.3352  3.7468
 4945TIP3   OH236325   1.539   1.475   4.787  0.2707 -0.5734  0.3081
 4945TIP3    H136326   1.493   1.518   4.860  0.0811 -1.0499  0.4780
 4945TIP3    H236327   1.469   1.454   4.725  0.5837  0.8309 -0.5231
 4946TIP3   OH236328   3.946   3.345  15.875 -0.4455 -0.1544 -0.3449
 4946TIP3    H136329   3.882   3.411  15.850 -0.5577 -0.0331  0.2715
 4946TIP3    H236330   4.029   3.392  15.880 -0.7924  0.2819  1.6819
 4947TIP3   OH236331   1.416   5.809  11.493  0.1133  0.0808  0.1299
 4947TIP3    H136332   1.441   5.893  11.533 -1.2189 -0.0625  1.2964
 4947TIP3    H236333   1.393   5.832  11.402  0.7532  0.8123  0.1496
 4948TIP3   OH236334   4.518   5.174  13.073 -0.6565  0.2036 -0.5277
 4948TIP3    H136335   4.549   5.127  13.151  0.7902 -0.0302 -1.2415
 4948TIP3    H236336   4.443   5.123  13.043 -1.3293  0.3723  0.7865
 4949TIP3   OH236337   3.360   4.510  11.699  0.3961  0.2387 -0.1580
 4949TIP3    H136338   3.384   4.467  11.781  0.3139  0.8384  0.1806
 4949TIP3    H236339   3.348   4.438  11.637  0.0180 -0.2411  0.4663
 4950TIP3   OH236340   0.120   6.638  15.855 -0.1123  0.1697  0.5930
 4950TIP3    H136341   0.112   6.598  15.769  1.5039  0.4085  0.3159
 4950TIP3    H236342   0.060   6.712  15.853  0.1059  0.3205 -0.4062
 4951TIP3   OH236343   2.145   2.168   3.359 -0.0654  0.2177  0.2832
 4951TIP3    H136344   2.139   2.158   3.454 -0.2164  0.2919  0.2811
 4951TIP3    H236345   2.202   2.096   3.331 -2.6011 -1.7890  0.0650
 4952TIP3   OH236346   2.118   4.944   0.648  0.0917  0.8438  0.3120
 4952TIP3    H136347   2.069   4.864   0.667  1.1135  0.4200  1.1987
 4952TIP3    H236348   2.088   4.971   0.561  1.6185 -1.9470 -1.1629
 4953TIP3   OH236349   6.249   2.414   3.892 -0.3469 -0.2459 -0.5214
 4953TIP3    H136350   6.270   2.336   3.943 -0.9805 -1.3567 -1.9396
 4953TIP3    H236351   6.292   2.400   3.807  0.0813  1.2458 -0.5637
 4954TIP3   OH236352   5.787   4.531  14.792  0.3698  0.0295 -0.1513
 4954TIP3    H136353   5.692   4.522  14.792  0.4813 -1.1303 -0.1904
 4954TIP3    H236354   5.819   4.451  14.833  1.3206  0.5355  0.1032
 4955TIP3   OH236355   3.593   5.380  13.773 -0.4854  0.2885  0.5469
 4955TIP3    H136356   3.557   5.449  13.718 -0.3361 -1.3330 -1.6637
 4955TIP3    H236357   3.558   5.299  13.736  1.8845 -1.0331  1.0808
 4956TIP3   OH236358   2.484   3.918  11.429  0.3636  0.1505 -0.6866
 4956TIP3    H136359   2.556   3.922  11.366 -0.4957  0.4914 -1.6749
 4956TIP3    H236360   2.425   3.988  11.401 -0.7008 -0.6007 -0.3444
 4957TIP3   OH236361   0.761   1.493  16.013  0.3886 -0.1289 -0.6469
 4957TIP3    H136362   0.795   1.461  15.930  0.3494  0.0506 -0.7344
 4957TIP3    H236363   0.666   1.486  16.004  0.3613  0.3918 -0.8270
 4958TIP3   OH236364   3.247   3.558  15.185  0.5229 -0.2111  0.1764
 4958TIP3    H136365   3.257   3.530  15.094  1.4963  0.5460  0.0426
 4958TIP3    H236366   3.196   3.638  15.180 -0.1553 -0.6210  0.3742
 4959TIP3   OH236367   4.320   6.189  13.359 -0.6272  0.4932  0.3372
 4959TIP3    H136368   4.357   6.134  13.289 -2.0932 -3.1810  2.2923
 4959TIP3    H236369   4.225   6.183  13.347 -0.8150  2.7635  0.5326
 4960TIP3   OH236370   6.738   5.466   1.126  0.5854 -0.5704 -0.6548
 4960TIP3    H136371   6.740   5.413   1.205  0.6226 -0.3901 -0.5338
 4960TIP3    H236372   6.788   5.415   1.061  1.5479 -0.1890 -0.2282
 4961TIP3   OH236373   3.619   1.611   4.409  0.3082 -0.8504 -0.4809
 4961TIP3    H136374   3.661   1.551   4.347 -0.4970 -0.6590 -1.2180
 4961TIP3    H236375   3.528   1.615   4.380  0.0857 -0.2189  0.3050
 4962TIP3   OH236376   6.802   5.201   2.335  0.1627 -0.1907 -0.6534
 4962TIP3    H136377   6.744   5.140   2.382  0.5630 -1.1012 -1.3270
 4962TIP3    H236378   6.765   5.288   2.352  0.8997 -0.3961  2.2098
 4963TIP3   OH236379   4.787   2.466   5.404 -0.2417  0.1915 -0.2581
 4963TIP3    H136380   4.882   2.464   5.419  0.0122 -0.3472 -1.8309
 4963TIP3    H236381   4.749   2.466   5.492  1.2013 -0.6874  0.3900
 4964TIP3   OH236382   6.569   0.889   2.863  0.1287  0.1683 -0.7163
 4964TIP3    H136383   6.482   0.924   2.882  1.2869  1.8941  1.6509
 4964TIP3    H236384   6.557   0.794   2.859 -1.7479  0.3524  0.1802
 4965TIP3   OH236385   2.040   4.878  16.899  0.3115  0.5658  0.1807
 4965TIP3    H136386   2.033   4.919  16.985 -0.0508  0.7311  0.0719
 4965TIP3    H236387   1.966   4.818  16.895 -0.2489  1.2810 -0.4056
 4966TIP3   OH236388   4.498   4.682   2.397 -0.3404 -0.6225 -0.5178
 4966TIP3    H136389   4.471   4.590   2.386 -0.5452 -0.3917 -2.1971
 4966TIP3    H236390   4.593   4.678   2.409 -0.2682 -1.0297 -1.1867
 4967TIP3   OH236391   3.784   1.200  12.083 -0.5495 -0.2004  0.2492
 4967TIP3    H136392   3.871   1.168  12.106  0.0718  0.0605 -1.6096
 4967TIP3    H236393   3.799   1.290  12.052 -1.4347 -0.2546 -0.3579
 4968TIP3   OH236394   6.767   5.193  12.311  0.2084 -0.0823 -0.5411
 4968TIP3    H136395   6.822   5.271  12.306 -0.9091  0.6756 -1.4503
 4968TIP3    H236396   6.683   5.226  12.343  0.0866 -1.1149  0.2261
 4969TIP3   OH236397   6.242   2.818   4.284  0.0960 -0.1161  0.0605
 4969TIP3    H136398   6.171   2.873   4.251  0.0437  0.2459  0.7675
 4969TIP3    H236399   6.264   2.761   4.210  1.8288  2.5235 -1.5439
 4970TIP3   OH236400   3.218   6.762   5.861 -0.0152 -0.1914  0.6287
 4970TIP3    H136401   3.124   6.768   5.842 -0.0449 -0.2134  0.7659
 4970TIP3    H236402   3.238   6.843   5.908 -0.0806 -0.4296  1.0729
 4971TIP3   OH236403   3.176   6.080   3.821 -0.2772  0.2576 -0.2357
 4971TIP3    H136404   3.135   6.120   3.745 -1.7698  0.8090  0.8481
 4971TIP3    H236405   3.132   6.119   3.896  1.2868 -0.1593  0.9257
 4972TIP3   OH236406   0.005   5.731   1.099  0.0935  0.0195 -0.4535
 4972TIP3    H136407   0.013   5.637   1.115  1.4594  0.2448  0.2741
 4972TIP3    H236408   0.005   5.770   1.186 -2.5986  0.5572 -0.6715
 4973TIP3   OH236409   6.663   1.162  15.601  0.2433 -0.0153  0.3920
 4973TIP3    H136410   6.597   1.099  15.573 -0.7341  1.4806 -0.7385
 4973TIP3    H236411   6.614   1.228  15.650  1.1314  0.3357  0.8326
 4974TIP3   OH236412   2.961   2.545   4.009 -0.2982 -0.2932  0.0586
 4974TIP3    H136413   2.973   2.450   4.016  0.0909 -0.1952  0.7224
 4974TIP3    H236414   2.917   2.570   4.090 -0.8049  0.0342 -0.3133
 4975TIP3   OH236415   0.773   5.636  16.763 -0.9274 -0.1580  0.0562
 4975TIP3    H136416   0.781   5.729  16.741  4.3212 -0.4624  0.1801
 4975TIP3    H236417   0.750   5.636  16.856 -0.7317  0.9826  0.1170
 4976TIP3   OH236418   1.170   4.614   3.389  0.3277 -0.0563 -0.4351
 4976TIP3    H136419   1.241   4.625   3.452 -0.6239  0.0757  0.6373
 4976TIP3    H236420   1.105   4.561   3.435 -1.2871  1.7833 -0.5364
 4977TIP3   OH236421   0.474   1.076  16.264  0.1359 -0.1012 -0.9048
 4977TIP3    H136422   0.379   1.084  16.255 -0.1089 -0.6570  1.0551
 4977TIP3    H236423   0.492   1.102  16.354  1.6248 -1.9547 -0.6414
 4978TIP3   OH236424   6.819   5.480  17.183  0.1068  0.2029 -0.6090
 4978TIP3    H136425   6.847   5.450  17.097  1.5633  1.6617 -0.6586
 4978TIP3    H236426   6.767   5.558  17.166  0.2503  0.3939 -0.1828
 4979TIP3   OH236427   4.169   2.790  15.941  0.1437 -1.1872  0.5269
 4979TIP3    H136428   4.236   2.721  15.948  0.6961 -0.5646  1.5542
 4979TIP3    H236429   4.175   2.837  16.024  1.6487  1.8122 -1.1818
 4980TIP3   OH236430   0.611   5.608   4.577 -0.2674  0.2152  0.1358
 4980TIP3    H136431   0.686   5.577   4.629 -2.5946 -0.6562  3.0891
 4980TIP3    H236432   0.558   5.659   4.638 -2.8531 -0.4033 -1.5120
 4981TIP3   OH236433   1.706   3.856   5.317  0.3885 -0.0943 -0.3518
 4981TIP3    H136434   1.797   3.861   5.285  0.9488 -2.2308  0.8020
 4981TIP3    H236435   1.653   3.860   5.237  1.5811 -0.9178 -1.2180
 4982TIP3   OH236436   5.148   2.474   4.886 -0.0428  0.2595 -0.4378
 4982TIP3    H136437   5.123   2.391   4.847 -0.1610 -0.7154  1.6071
 4982TIP3    H236438   5.241   2.483   4.865  0.3738 -1.2073  0.6448
 4983TIP3   OH236439   5.524   1.930   0.133 -0.0879  0.3350 -0.0446
 4983TIP3    H136440   5.523   1.858   0.196 -1.8414 -0.0606 -0.5198
 4983TIP3    H236441   5.613   1.965   0.139  0.1074 -0.4263  1.8201
 4984TIP3   OH236442   0.483   4.675  13.200 -0.2802 -0.8128 -0.4558
 4984TIP3    H136443   0.512   4.744  13.140 -1.0188 -0.8770 -0.9009
 4984TIP3    H236444   0.398   4.706  13.231 -2.0782 -2.9300 -3.0441
 4985TIP3   OH236445   5.300   1.510   0.350  0.0868  0.3687 -0.1399
 4985TIP3    H136446   5.231   1.571   0.325 -0.8020 -1.2030 -1.7366
 4985TIP3    H236447   5.283   1.432   0.296  1.8839 -0.8244  0.9509
 4986TIP3   OH236448   0.798   2.995  11.118  0.1948  0.3983  0.2378
 4986TIP3    H136449   0.769   3.076  11.159  1.2308  0.4401  0.8941
 4986TIP3    H236450   0.892   2.990  11.136  0.8349  0.7413 -2.6182
 4987TIP3   OH236451   2.654   4.838  10.426 -0.0176  0.2959  0.0736
 4987TIP3    H136452   2.743   4.819  10.458 -0.0866  0.0974  0.1479
 4987TIP3    H236453   2.651   4.794  10.341  0.5483  1.7590 -0.7181
 4988TIP3   OH236454   3.025   0.710  16.870 -0.0587  0.4257 -0.4064
 4988TIP3    H136455   2.998   0.634  16.922 -1.7074  0.2198 -1.5437
 4988TIP3    H236456   2.944   0.759  16.856  0.6670  1.3615 -1.3584
 4989TIP3   OH236457   4.149   1.248   0.180  0.5544  0.0896 -0.6764
 4989TIP3    H136458   4.105   1.333   0.170  0.7905  0.1755 -0.9920
 4989TIP3    H236459   4.197   1.236   0.098  1.7898  0.3833 -0.0075
 4990TIP3   OH236460   4.964   5.959  16.078 -0.8893 -0.8492 -0.0055
 4990TIP3    H136461   4.970   6.043  16.033 -2.6801 -0.7673 -0.1366
 4990TIP3    H236462   5.026   5.967  16.151  0.1026 -0.0154 -0.9187
 4991TIP3   OH236463   3.939   6.703   5.354 -0.1120 -0.3148  0.2106
 4991TIP3    H136464   4.017   6.701   5.410 -0.4309  0.9253  0.7140
 4991TIP3    H236465   3.877   6.758   5.402 -2.0860 -2.9954  0.8295
 4992TIP3   OH236466   1.406   3.025   1.267 -0.2343  0.3144 -0.1391
 4992TIP3    H136467   1.443   3.110   1.289 -0.6142  0.2838  0.6068
 4992TIP3    H236468   1.335   3.012   1.329 -0.5999 -0.2609 -0.6664
 4993TIP3   OH236469   4.126   5.110  15.591 -0.2288  0.3758  0.0140
 4993TIP3    H136470   4.090   5.105  15.503  1.7491 -0.6753 -0.7644
 4993TIP3    H236471   4.124   5.020  15.623 -0.9798  0.7588  1.0694
 4994TIP3   OH236472   5.126   2.030  15.376 -0.2439  0.0209 -0.0119
 4994TIP3    H136473   5.062   2.095  15.348 -0.4054 -0.7224 -1.4147
 4994TIP3    H236474   5.211   2.072  15.362 -0.3866  0.6680  0.9924
 4995TIP3   OH236475   0.274   0.937  16.702 -0.1446  0.3440  0.2242
 4995TIP3    H136476   0.188   0.896  16.716 -1.0212  2.3599  0.9997
 4995TIP3    H236477   0.316   0.934  16.788 -0.9616  2.6521  0.7444
 4996TIP3   OH236478   1.562   1.820   4.816  0.3514  0.6614  0.1931
 4996TIP3    H136479   1.493   1.836   4.751 -0.6670 -2.3729  0.4353
 4996TIP3    H236480   1.516   1.780   4.890  2.3142 -1.3038  0.4112
 4997TIP3   OH236481   4.872   4.619   1.539 -0.5388 -0.3957  0.1157
 4997TIP3    H136482   4.936   4.642   1.472 -0.0789 -0.3300  0.5797
 4997TIP3    H236483   4.788   4.617   1.492 -0.4306  1.0690 -0.1683
 4998TIP3   OH236484   5.950   1.913   4.741 -0.6006 -0.3173 -0.4206
 4998TIP3    H136485   5.965   2.007   4.745  2.0022 -0.7034 -0.1586
 4998TIP3    H236486   5.908   1.892   4.824 -0.9244  0.5598 -0.3565
 4999TIP3   OH236487   1.419   5.420  13.155 -0.9021 -0.4914  1.0779
 4999TIP3    H136488   1.410   5.381  13.242 -1.6994 -0.1308  1.1636
 4999TIP3    H236489   1.479   5.493  13.169 -0.5253 -0.8229  1.1987
 5000TIP3   OH236490   1.534   6.598   0.444  0.5422  0.6726  0.2543
 5000TIP3    H136491   1.612   6.605   0.499  1.8206  1.5887 -1.6051
 5000TIP3    H236492   1.495   6.685   0.445  0.7139  0.7651 -0.4676
 5001TIP3   OH236493   1.548   5.046  15.848  0.4692 -0.2300  0.1192
 5001TIP3    H136494   1.492   5.008  15.915  0.5272  0.0720  0.3396
 5001TIP3    H236495   1.630   4.998  15.855 -0.5249 -2.3005 -1.7801
 5002TIP3   OH236496   1.605   6.092  15.275  0.2613 -0.4686 -0.4341
 5002TIP3    H136497   1.618   6.073  15.183  2.1078 -0.5984 -0.1680
 5002TIP3    H236498   1.534   6.034  15.303 -0.7063 -0.0143 -1.8820
 5003TIP3   OH236499   4.425   4.324  15.776 -0.8701 -0.7533  0.4975
 5003TIP3    H136500   4.350   4.369  15.737 -1.5183 -3.2058 -1.2062
 5003TIP3    H236501   4.396   4.302  15.865 -1.5965 -0.3151  0.3737
 5004TIP3   OH236502   3.627   4.529  13.750 -0.1401  0.1885  0.4861
 5004TIP3    H136503   3.540   4.567  13.750  0.6739  2.1338 -0.0028
 5004TIP3    H236504   3.686   4.604  13.745  1.6058 -1.0044  2.3688
 5005TIP3   OH236505   0.380   5.966  15.154 -0.0661 -1.0448  0.6036
 5005TIP3    H136506   0.451   6.012  15.108  0.4368 -1.4498  0.9682
 5005TIP3    H236507   0.411   5.876  15.160 -0.8260 -1.3228  0.3410
 5006TIP3   OH236508   1.953   5.350  11.616  0.1987 -0.1492  0.0181
 5006TIP3    H136509   2.021   5.289  11.589 -0.5194 -0.9666  0.0120
 5006TIP3    H236510   1.872   5.314  11.579 -0.6228 -0.5949  2.1712
 5007TIP3   OH236511   5.444   2.428   1.371  0.2580  0.4446  0.3356
 5007TIP3    H136512   5.509   2.491   1.403  0.5085  0.2807  0.1505
 5007TIP3    H236513   5.410   2.386   1.450  1.0258 -0.1085  0.3838
 5008TIP3   OH236514   3.614   4.905   2.691 -0.4748 -0.3427 -0.0582
 5008TIP3    H136515   3.520   4.891   2.698 -0.2756 -1.7469  0.0687
 5008TIP3    H236516   3.629   4.929   2.599 -0.6525 -2.8430 -0.7770
 5009TIP3   OH236517   1.706   0.770  15.190  0.3177 -0.2329 -0.2211
 5009TIP3    H136518   1.752   0.730  15.115 -1.3806 -2.1180 -0.3045
 5009TIP3    H236519   1.629   0.812  15.151 -1.2104 -2.2361  0.5518
 5010TIP3   OH236520   2.631   4.425  13.021  0.3420  0.7417 -0.0217
 5010TIP3    H136521   2.572   4.484  13.068  0.1026  0.2645  0.2935
 5010TIP3    H236522   2.573   4.369  12.970  0.5822  0.9648 -0.5362
 5011TIP3   OH236523   4.219   6.356   3.837  0.5999 -0.3141  0.3119
 5011TIP3    H136524   4.228   6.451   3.838  1.0017 -0.3469 -0.0997
 5011TIP3    H236525   4.308   6.323   3.838  0.4655 -0.6856  0.0942
 5012TIP3   OH236526   0.575   4.119  16.216  0.2500  0.3991 -0.4225
 5012TIP3    H136527   0.549   4.179  16.146 -1.4628  0.9254  0.6294
 5012TIP3    H236528   0.655   4.077  16.184 -1.2868 -0.4583 -3.3420
 5013TIP3   OH236529   3.305   3.869   1.302  0.0585  0.1563 -0.1347
 5013TIP3    H136530   3.353   3.917   1.370  0.8584 -0.0579 -0.5415
 5013TIP3    H236531   3.321   3.919   1.222  0.6443 -0.6165 -0.5044
 5014TIP3   OH236532   1.181   2.157   1.688 -0.1830 -0.0638 -0.4274
 5014TIP3    H136533   1.178   2.098   1.763 -1.3567  1.4000  0.7174
 5014TIP3    H236534   1.095   2.150   1.648 -0.3406  0.8756 -0.2630
 5015TIP3   OH236535   2.269   1.417   4.383  0.2218 -0.1542 -0.2262
 5015TIP3    H136536   2.197   1.479   4.382  1.1123  0.8937 -0.5809
 5015TIP3    H236537   2.246   1.354   4.451 -0.7345  0.5094  0.0660
 5016TIP3   OH236538   4.488   4.135   3.310 -0.6453 -0.3896  0.0221
 5016TIP3    H136539   4.552   4.203   3.288 -2.1831  0.5074 -1.7592
 5016TIP3    H236540   4.534   4.053   3.292 -0.5084  0.2623 -2.8783
 5017TIP3   OH236541   0.672   3.948   4.966 -0.4297  0.4424 -0.2368
 5017TIP3    H136542   0.595   3.915   5.013 -0.6710 -0.2376 -1.0889
 5017TIP3    H236543   0.729   3.872   4.958 -0.5784  0.4515 -1.4164
 5018TIP3   OH236544   0.422   0.040  11.135  0.4185  0.3336 -0.3984
 5018TIP3    H136545   0.424   0.018  11.042  0.9329  1.8184 -0.7553
 5018TIP3    H236546   0.358   0.111  11.141 -0.2131 -0.3092  0.5084
 5019TIP3   OH236547   3.005   3.139  16.625 -1.0349 -0.1798  0.2145
 5019TIP3    H136548   3.075   3.128  16.561 -0.7224  0.6816  0.4105
 5019TIP3    H236549   2.959   3.054  16.625 -0.5566 -0.4421 -0.5668
 5020TIP3   OH236550   0.925   2.377   1.729 -0.1414  0.2213 -0.1529
 5020TIP3    H136551   0.969   2.461   1.740 -0.3253  0.1453  1.2771
 5020TIP3    H236552   0.833   2.400   1.712 -0.3980  0.3109  1.2647
 5021TIP3   OH236553   3.767   3.699  16.969 -0.6111 -0.4153 -0.1474
 5021TIP3    H136554   3.798   3.773  16.916 -0.1472 -0.9452 -0.6217
 5021TIP3    H236555   3.685   3.729  17.006 -0.3233  0.4183 -0.1800
 5022TIP3   OH236556   4.385   5.604   4.429  0.2105  0.2440  1.0953
 5022TIP3    H136557   4.301   5.643   4.405  0.6595  0.9452  0.6692
 5022TIP3    H236558   4.408   5.547   4.356  1.0096  1.4865  0.3574
 5023TIP3   OH236559   0.721   0.751  12.165  0.0056 -0.0451  0.1346
 5023TIP3    H136560   0.799   0.766  12.220 -1.4531 -0.2302  2.3263
 5023TIP3    H236561   0.716   0.656  12.156 -0.6873 -0.1198  1.1377
 5024TIP3   OH236562   1.530   3.882  11.551  0.4147  0.4868 -0.1308
 5024TIP3    H136563   1.485   3.810  11.593  0.1589  0.7633  0.0659
 5024TIP3    H236564   1.614   3.844  11.522 -0.2092 -0.1857 -1.0806
 5025TIP3   OH236565   1.877   2.153  16.386 -0.1096 -0.1449  0.0125
 5025TIP3    H136566   1.823   2.082  16.422 -0.4079  0.3946  0.6280
 5025TIP3    H236567   1.966   2.119  16.388 -0.2184 -0.3969  0.5618
 5026TIP3   OH236568   2.145   0.610  16.373  0.4950  0.2880 -0.3535
 5026TIP3    H136569   2.156   0.538  16.436 -3.2107 -0.1076 -0.0131
 5026TIP3    H236570   2.157   0.689  16.425 -0.0187 -0.0627  0.3079
 5027TIP3   OH236571   0.508   3.973   0.356  0.0208 -0.2937  0.8058
 5027TIP3    H136572   0.563   4.030   0.303  0.1826 -1.7147 -0.5746
 5027TIP3    H236573   0.568   3.935   0.421  0.6560 -1.6578 -0.5470
 5028TIP3   OH236574   0.397   2.585  11.168  0.3748 -0.4049  0.4441
 5028TIP3    H136575   0.383   2.506  11.220 -0.7227  0.4931  1.5612
 5028TIP3    H236576   0.314   2.598  11.122  0.2809  0.4890  0.8434
 5029TIP3   OH236577   1.119   5.506   4.299  0.7563  0.7286  0.2284
 5029TIP3    H136578   1.180   5.580   4.308  0.0684  1.2252  0.9458
 5029TIP3    H236579   1.036   5.547   4.276  0.8486 -0.0029 -1.4779
 5030TIP3   OH236580   4.957   5.178  17.154 -0.2826 -0.0113 -0.0324
 5030TIP3    H136581   4.946   5.131  17.071 -0.4835  0.7246 -0.4260
 5030TIP3    H236582   4.870   5.178  17.194  0.1042 -1.5479  0.8192
 5031TIP3   OH236583   1.227   4.369   5.312  0.4282  0.1233  0.5330
 5031TIP3    H136584   1.309   4.419   5.308  0.1151  0.6012  0.0794
 5031TIP3    H236585   1.161   4.433   5.338 -0.2056  0.2214 -1.2987
 5032TIP3   OH236586   5.849   4.234   3.578 -0.0572  0.0908 -0.1718
 5032TIP3    H136587   5.770   4.259   3.529  1.1947  2.2225 -1.1598
 5032TIP3    H236588   5.843   4.284   3.659  0.5226  0.6445 -0.4675
 5033TIP3   OH236589   4.724   0.659  12.917  0.2778 -0.2135 -0.5487
 5033TIP3    H136590   4.755   0.625  13.001 -0.4957 -2.6968 -1.2268
 5033TIP3    H236591   4.802   0.662  12.862  0.4950 -0.1059 -0.2360
 5034TIP3   OH236592   5.024   2.641   4.622  0.0948 -0.3870  0.9671
 5034TIP3    H136593   4.999   2.556   4.587  0.5256 -0.2943  0.4210
 5034TIP3    H236594   5.073   2.683   4.551 -0.5745  0.5316  1.0378
 5035TIP3   OH236595   3.969   5.879  16.548 -0.3666  0.2849  0.0079
 5035TIP3    H136596   3.905   5.911  16.611 -1.5042  1.8071 -1.8610
 5035TIP3    H236597   4.019   5.956  16.523  0.9392 -0.5457  0.0161
 5036TIP3   OH236598   0.244   5.220  11.878  0.0507 -0.1192 -0.3564
 5036TIP3    H136599   0.187   5.153  11.916  0.1289  0.8920  1.6008
 5036TIP3    H236600   0.310   5.237  11.946  0.7136  1.1242 -1.2872
 5037TIP3   OH236601   1.770   4.021  11.329  0.3703  0.7886  0.0674
 5037TIP3    H136602   1.848   4.074  11.342  0.6022  0.2875  0.6991
 5037TIP3    H236603   1.753   3.981  11.414 -0.0943  0.2419 -0.2790
 5038TIP3   OH236604   0.846   2.044  10.560  0.2546  0.0136 -0.3925
 5038TIP3    H136605   0.871   2.129  10.522 -0.0368  0.2723  0.0011
 5038TIP3    H236606   0.912   1.984  10.526  0.4630  0.3968 -0.6778
 5039TIP3   OH236607   4.162   6.152   2.678 -0.5841  0.0966 -0.2054
 5039TIP3    H136608   4.131   6.065   2.653 -1.0608  0.4682 -0.9125
 5039TIP3    H236609   4.184   6.194   2.595  0.4488  0.3555  0.1870
 5040TIP3   OH236610   6.589   5.760   2.134 -0.4383 -0.4340  0.0222
 5040TIP3    H136611   6.643   5.834   2.163  0.2633 -0.0714 -2.1367
 5040TIP3    H236612   6.539   5.795   2.060 -0.2712 -2.0619 -0.8632
 5041TIP3   OH236613   1.037   4.764  14.107  0.7523  0.6917  0.4310
 5041TIP3    H136614   0.964   4.710  14.138 -1.5480  1.4876 -3.2104
 5041TIP3    H236615   1.091   4.703  14.056  1.1937  0.6947  0.8874
 5042TIP3   OH236616   1.319   6.303   1.602 -0.1629  0.1800  0.3316
 5042TIP3    H136617   1.315   6.211   1.577  1.4203  0.0768  0.4083
 5042TIP3    H236618   1.337   6.301   1.696  1.2704  0.5498  0.0767
 5043TIP3   OH236619   2.779   2.935   3.476  0.3909  0.1427 -0.1443
 5043TIP3    H136620   2.699   2.957   3.428 -1.0689 -0.0368  2.1485
 5043TIP3    H236621   2.805   2.849   3.443 -1.2733 -0.5074  0.2280
 5044TIP3   OH236622   3.966   3.047   3.214  0.2003 -0.6138 -0.0663
 5044TIP3    H136623   3.972   3.132   3.169 -0.5728 -0.4180  0.1876
 5044TIP3    H236624   4.009   2.985   3.155  0.4374 -0.1120 -0.4280
 5045TIP3   OH236625   0.289   2.322   4.594 -0.2105 -0.8885 -0.6587
 5045TIP3    H136626   0.372   2.323   4.546 -0.4700 -1.1685 -1.1069
 5045TIP3    H236627   0.243   2.401   4.564 -0.0419 -0.6458 -0.2899
 5046TIP3   OH236628   4.873   6.089  10.357  0.4928  0.5430  0.7038
 5046TIP3    H136629   4.910   6.172  10.389  0.0655  1.3104 -0.7541
 5046TIP3    H236630   4.942   6.053  10.301  0.7623 -0.2083  1.5049
 5047TIP3   OH236631   3.736   0.626  13.526  0.3160  0.0995  0.2677
 5047TIP3    H136632   3.698   0.635  13.439 -0.3688  0.4042  0.5899
 5047TIP3    H236633   3.699   0.544  13.560 -0.0152  0.3637  0.5570
 5048TIP3   OH236634   1.689   0.024  13.908 -0.3328  0.3346 -0.2845
 5048TIP3    H136635   1.702   0.044  13.815  2.1428  1.2706  0.2348
 5048TIP3    H236636   1.606   0.065  13.930 -0.8910  0.1997 -2.0551
 5049TIP3   OH236637   5.806   4.861  15.406 -0.2928  0.0996  0.0945
 5049TIP3    H136638   5.785   4.832  15.317 -0.4445  0.4948  0.0011
 5049TIP3    H236639   5.779   4.953  15.408  2.0955  0.8302 -0.2627
 5050TIP3   OH236640   1.132   2.271   2.345 -0.1144 -0.0329  0.3071
 5050TIP3    H136641   1.044   2.245   2.372  0.5320 -1.0950  1.4337
 5050TIP3    H236642   1.139   2.241   2.254 -0.9897  0.2899  0.1197
 5051TIP3   OH236643   2.413   6.243   2.888 -0.2555  0.0237  0.7776
 5051TIP3    H136644   2.341   6.220   2.946 -1.2773 -1.2093 -0.9272
 5051TIP3    H236645   2.389   6.327   2.850 -0.9314 -0.5133  0.0096
 5052TIP3   OH236646   4.763   4.632  12.159  0.2225  0.1782  0.5550
 5052TIP3    H136647   4.724   4.695  12.219  1.0870  2.0397 -0.7880
 5052TIP3    H236648   4.688   4.584  12.122 -0.6198  1.8002  0.0964
 5053TIP3   OH236649   4.555   3.447  16.464 -0.3125 -0.0231  0.2746
 5053TIP3    H136650   4.512   3.510  16.521  0.6345 -1.0089  2.1455
 5053TIP3    H236651   4.641   3.433  16.504  0.4999 -0.5277 -1.5657
 5054TIP3   OH236652   0.950   4.500   2.864  0.0211 -0.0781  0.1322
 5054TIP3    H136653   0.991   4.515   2.949  0.9071 -1.7475  0.0142
 5054TIP3    H236654   1.004   4.433   2.822 -1.4000 -0.5336 -1.0395
 5055TIP3   OH236655   3.303   0.440   3.236 -0.2355 -0.4708 -0.0562
 5055TIP3    H136656   3.301   0.516   3.177  0.9114  0.5790  1.2270
 5055TIP3    H236657   3.283   0.366   3.179 -2.5368  0.9185 -1.1108
 5056TIP3   OH236658   5.037   4.589  12.954 -0.0628  0.0976 -0.1443
 5056TIP3    H136659   4.978   4.630  13.016 -0.1312  0.8029 -0.6763
 5056TIP3    H236660   4.981   4.537  12.897 -0.4198  2.3743 -1.9327
 5057TIP3   OH236661   5.213   2.846   2.715  0.6029 -0.3069 -0.3350
 5057TIP3    H136662   5.246   2.837   2.805  1.4916 -0.9853 -0.7303
 5057TIP3    H236663   5.210   2.941   2.701 -1.1482 -0.1284  0.9964
 5058TIP3   OH236664   2.206   5.167  15.965  0.1547  0.1297 -0.2191
 5058TIP3    H136665   2.131   5.217  15.932 -1.9444 -1.0184  2.6052
 5058TIP3    H236666   2.179   5.076  15.956  2.2837 -0.3954 -1.5039
 5059TIP3   OH236667   3.342   2.912   1.426 -0.2644  0.7249  0.2227
 5059TIP3    H136668   3.412   2.848   1.411  0.5665  1.7985 -0.5613
 5059TIP3    H236669   3.358   2.944   1.515 -2.1231 -1.8854  1.5571
 5060TIP3   OH236670   4.383   0.464  14.689  0.1942 -0.1336  0.2835
 5060TIP3    H136671   4.450   0.441  14.624 -1.8021 -2.3388 -1.0352
 5060TIP3    H236672   4.418   0.543  14.731  1.7539  1.0874 -3.1297
 5061TIP3   OH236673   2.557   4.094  13.369  0.0252  0.4137  0.9566
 5061TIP3    H136674   2.633   4.089  13.426 -0.0926 -2.7773  0.9364
 5061TIP3    H236675   2.486   4.122  13.426  0.4529 -0.1678  1.7809
 5062TIP3   OH236676   4.923   4.997   1.274 -0.2571 -0.2584  0.5657
 5062TIP3    H136677   4.885   4.911   1.291 -0.2396 -0.3575  0.1076
 5062TIP3    H236678   4.945   5.031   1.361 -1.8167 -0.0038  0.8704
 5063TIP3   OH236679   2.419   0.109  11.971 -0.0083  0.1010 -0.2623
 5063TIP3    H136680   2.454   0.170  11.905  0.6883  0.5432  0.5055
 5063TIP3    H236681   2.430   0.023  11.931  1.8610  0.2402 -0.1108
 5064TIP3   OH236682   3.329   0.788  13.070 -0.0122  0.7686 -0.1243
 5064TIP3    H136683   3.242   0.812  13.038 -1.8121 -1.0534  3.0799
 5064TIP3    H236684   3.370   0.742  12.996 -1.7024  1.7575 -1.7220
 5065TIP3   OH236685   3.920   2.151   2.238 -0.4056  0.1764  0.0503
 5065TIP3    H136686   3.938   2.057   2.245  1.1911  0.4659  0.0308
 5065TIP3    H236687   3.979   2.192   2.301  0.0676  1.2853 -1.0731
 5066TIP3   OH236688   1.653   4.134  15.283  0.2173  0.4013 -0.1214
 5066TIP3    H136689   1.678   4.103  15.196 -2.5390 -0.4764 -0.6338
 5066TIP3    H236690   1.641   4.229  15.271 -1.4216  0.0958 -1.0262
 5067TIP3   OH236691   1.274   2.734  13.672  0.0158 -0.1917  0.3447
 5067TIP3    H136692   1.245   2.684  13.748  2.2163 -1.3977  0.4227
 5067TIP3    H236693   1.278   2.825  13.703 -1.6146 -0.2985  0.9011
 5068TIP3   OH236694   1.669   4.462   3.707 -0.5193 -0.0480 -0.2292
 5068TIP3    H136695   1.731   4.402   3.748 -2.1141 -0.7582  1.1725
 5068TIP3    H236696   1.676   4.443   3.613  1.3096 -0.1688 -0.0870
 5069TIP3   OH236697   4.019   2.995  13.546 -0.2637 -0.5959  0.4463
 5069TIP3    H136698   4.047   2.904  13.543  1.0135 -0.1512 -1.8612
 5069TIP3    H236699   3.924   2.992  13.535 -0.0699 -1.5813 -1.0911
 5070TIP3   OH236700   2.343   4.256  11.003  1.0344  0.5003 -0.0679
 5070TIP3    H136701   2.290   4.178  10.982 -1.3274  1.8966  0.5019
 5070TIP3    H236702   2.372   4.288  10.918 -0.5856  0.7404 -0.5514
 5071TIP3   OH236703   5.524   4.776   3.454 -0.0574  0.4636  0.6357
 5071TIP3    H136704   5.546   4.802   3.365  0.3282 -0.2223  0.5315
 5071TIP3    H236705   5.486   4.855   3.493 -0.1198  0.7964 -0.0960
 5072TIP3   OH236706   0.881   2.994   3.863  0.3582 -0.4781 -0.0279
 5072TIP3    H136707   0.810   2.975   3.802 -0.1347 -1.5745  0.8810
 5072TIP3    H236708   0.851   2.960   3.947  2.3658 -1.8698  0.1644
 5073TIP3   OH236709   3.958   4.876   3.952  0.1557  0.2090 -0.2115
 5073TIP3    H136710   3.878   4.828   3.930  0.6163 -0.8120  0.3655
 5073TIP3    H236711   4.012   4.814   4.000  0.4566  1.5161  1.1756
 5074TIP3   OH236712   2.674   1.051  12.414  0.2126  0.3782 -0.2605
 5074TIP3    H136713   2.747   1.093  12.367  0.4856  0.9386  0.6396
 5074TIP3    H236714   2.596   1.081  12.368  0.5233  0.2179 -0.8980
 5075TIP3   OH236715   3.177   4.964   6.237  0.1175  0.0469  0.2531
 5075TIP3    H136716   3.234   5.007   6.173  0.6630 -1.1231 -0.0579
 5075TIP3    H236717   3.222   4.977   6.321  0.6770 -0.5743  0.0560
 5076TIP3   OH236718   5.256   5.411  14.198 -0.2584  0.4347 -0.2273
 5076TIP3    H136719   5.287   5.500  14.211 -0.3077  0.3085  0.8247
 5076TIP3    H236720   5.331   5.365  14.160 -0.4690  1.0884 -1.4472
 5077TIP3   OH236721   0.725   0.739  15.227 -0.1811  0.3416 -0.4598
 5077TIP3    H136722   0.773   0.817  15.201  0.3450  0.5455  1.0956
 5077TIP3    H236723   0.783   0.666  15.202 -0.2328  0.4751 -0.9841
 5078TIP3   OH236724   0.340   0.238   4.619  0.1201  0.1121 -0.0779
 5078TIP3    H136725   0.377   0.323   4.639 -1.2113  0.4546  1.0029
 5078TIP3    H236726   0.353   0.228   4.524 -0.2589  1.7835 -0.3241
 5079TIP3   OH236727   1.575   5.179   1.191 -0.5513 -0.1492 -0.0863
 5079TIP3    H136728   1.589   5.270   1.214  2.0577 -0.3131 -0.9325
 5079TIP3    H236729   1.568   5.179   1.095  0.0745 -0.9119 -0.1330
 5080TIP3   OH236730   2.271   2.621   5.555 -0.5180 -0.0587 -0.0076
 5080TIP3    H136731   2.321   2.553   5.599  2.1640  1.4084 -0.6970
 5080TIP3    H236732   2.221   2.574   5.488 -0.1661 -1.5809  0.7838
 5081TIP3   OH236733   3.286   2.198  16.929  0.1300  0.0544  0.0213
 5081TIP3    H136734   3.196   2.217  16.901 -0.0341  0.0015  0.5051
 5081TIP3    H236735   3.286   2.215  17.023  0.2218 -1.4783  0.3097
 5082TIP3   OH236736   0.681   3.824   1.821  0.1161 -0.4236 -0.0397
 5082TIP3    H136737   0.647   3.761   1.884 -1.4798  2.2842  1.8898
 5082TIP3    H236738   0.753   3.778   1.777 -1.6703 -3.9039  0.5441
 5083TIP3   OH236739   2.355   2.100   3.756 -0.1748 -0.4081  0.3260
 5083TIP3    H136740   2.409   2.043   3.702 -1.2323 -1.1739  0.0673
 5083TIP3    H236741   2.266   2.088   3.723 -0.4665  1.0787  0.5380
 5084TIP3   OH236742   5.662   5.629   4.499 -0.1400 -0.0648 -0.7983
 5084TIP3    H136743   5.715   5.567   4.449 -1.7783 -1.0050 -1.4055
 5084TIP3    H236744   5.587   5.578   4.529 -1.7542  1.6934 -1.6822
 5085TIP3   OH236745   4.109   2.364  15.838 -1.2448 -0.2860 -0.3788
 5085TIP3    H136746   4.071   2.412  15.911  1.7051  0.1492  0.9645
 5085TIP3    H236747   4.121   2.275  15.872  0.9356  0.1292  0.0328
 5086TIP3   OH236748   4.356   2.134   3.458  0.6139  0.0179  0.0846
 5086TIP3    H136749   4.316   2.194   3.520  3.3111  1.0860  0.8574
 5086TIP3    H236750   4.406   2.072   3.512  1.0404 -0.5144 -0.8900
 5087TIP3   OH236751   5.265   0.953  14.500  0.0407  0.0893  0.1742
 5087TIP3    H136752   5.222   0.970  14.584 -0.6388 -0.0696 -0.1369
 5087TIP3    H236753   5.304   0.866  14.510 -0.3084 -0.0638  0.2198
 5088TIP3   OH236754   3.421   6.066   4.523  0.9046 -0.3714 -0.1630
 5088TIP3    H136755   3.407   6.017   4.604 -0.2346  0.7379  0.3368
 5088TIP3    H236756   3.495   6.124   4.543 -0.0958  0.7079  0.4841
 5089TIP3   OH236757   5.113   6.814   3.461 -0.1393  0.3730 -0.3386
 5089TIP3    H136758   5.036   6.834   3.514 -0.1431 -1.2418  0.2952
 5089TIP3    H236759   5.094   6.728   3.422  0.5617  0.7983 -1.6506
 5090TIP3   OH236760   3.872   5.623  12.817  0.0738 -0.0307  0.1731
 5090TIP3    H136761   3.939   5.691  12.814 -0.2238  0.2011 -1.7115
 5090TIP3    H236762   3.789   5.670  12.818 -0.1094 -0.3447  1.4246
 5091TIP3   OH236763   1.388   0.609  15.646 -0.1744  0.2296 -0.1232
 5091TIP3    H136764   1.375   0.638  15.737  1.4850 -3.4280  1.3769
 5091TIP3    H236765   1.353   0.681  15.593 -1.7498  2.2057  3.3925
 5092TIP3   OH236766   0.462   4.686   4.120  0.0960  0.3149 -0.8362
 5092TIP3    H136767   0.425   4.672   4.207  0.3581  1.8345 -0.4617
 5092TIP3    H236768   0.391   4.727   4.070 -0.5421 -1.9035 -1.7942
 5093TIP3   OH236769   5.971   6.629   0.280  0.2416 -0.3505 -0.1333
 5093TIP3    H136770   5.994   6.537   0.266 -0.1350 -0.5347  0.4588
 5093TIP3    H236771   5.961   6.637   0.375 -0.4869  0.1181 -0.2468
 5094TIP3   OH236772   2.919   1.156  13.213 -0.7196 -0.0846 -0.7692
 5094TIP3    H136773   2.986   1.089  13.227 -0.6368 -0.2486 -1.9574
 5094TIP3    H236774   2.955   1.234  13.254  0.1291 -0.2207 -1.2447
 5095TIP3   OH236775   5.475   2.188  16.695 -0.1953  0.5558  0.0391
 5095TIP3    H136776   5.556   2.138  16.685  0.3917  1.5805 -0.4742
 5095TIP3    H236777   5.462   2.194  16.789 -0.0712 -0.2443  0.1117
 5096TIP3   OH236778   4.172   4.363  16.752  0.7317  0.3088  0.0975
 5096TIP3    H136779   4.095   4.307  16.738  0.6622  0.4487 -0.0812
 5096TIP3    H236780   4.207   4.335  16.836 -0.6377  1.5323  1.1159
 5097TIP3   OH236781   5.124   6.272   3.027 -0.6348 -0.2651 -0.0637
 5097TIP3    H136782   5.097   6.263   2.936  2.0221  0.8654 -1.0219
 5097TIP3    H236783   5.080   6.200   3.073 -1.6598 -1.1016 -2.3161
 5098TIP3   OH236784   2.011   6.592  11.239 -0.7088 -0.0278 -0.1198
 5098TIP3    H136785   2.106   6.591  11.247 -0.6080  3.2087 -0.2802
 5098TIP3    H236786   1.995   6.587  11.145 -0.6393  0.5158 -0.1635
 5099TIP3   OH236787   2.627   1.079  14.715  0.0482  0.0159 -0.2115
 5099TIP3    H136788   2.679   1.089  14.635  0.4543  0.3141  0.0905
 5099TIP3    H236789   2.598   0.988  14.713  2.5991 -0.8404  0.8462
 5100TIP3   OH236790   4.438   5.524  13.710  0.0720 -0.4087 -0.4209
 5100TIP3    H136791   4.457   5.616  13.729  0.0447  0.1721 -3.0444
 5100TIP3    H236792   4.351   5.510  13.748 -0.3008  0.8842 -0.7523
 5101TIP3   OH236793   0.141   5.062   4.782  0.4582 -0.1209 -0.1133
 5101TIP3    H136794   0.187   5.070   4.866  0.0090 -1.0596  0.2300
 5101TIP3    H236795   0.053   5.033   4.806  0.4560 -0.8067 -0.9517
 5102TIP3   OH236796   4.052   3.163  14.918  0.8400 -0.2276  0.4675
 5102TIP3    H136797   4.031   3.252  14.946  1.6011  0.2129 -0.3139
 5102TIP3    H236798   4.047   3.110  14.997 -0.8614  0.2846  0.7103
 5103TIP3   OH236799   1.044   1.908   4.576  0.4488  0.1484  0.2840
 5103TIP3    H136800   0.990   1.981   4.607  1.9239  1.5395 -0.4050
 5103TIP3    H236801   1.014   1.892   4.487 -0.5616 -0.7760  0.7706
 5104TIP3   OH236802   3.753   2.879  11.491  0.7301  0.0284 -0.3865
 5104TIP3    H136803   3.693   2.930  11.436 -0.8695 -0.3863  0.9664
 5104TIP3    H236804   3.706   2.799  11.510  1.7041 -0.2856  0.7461
 5105TIP3   OH236805   1.243   2.818   0.769  0.0544  0.0392  0.6714
 5105TIP3    H136806   1.284   2.856   0.847 -1.8370  2.2988  0.6175
 5105TIP3    H236807   1.163   2.778   0.802  0.1979 -0.6941  0.1448
 5106TIP3   OH236808   3.303   5.284   4.308  0.2935  0.2827 -0.2051
 5106TIP3    H136809   3.382   5.338   4.303  1.4757 -1.4380 -0.1832
 5106TIP3    H236810   3.332   5.196   4.288 -1.2390 -0.7448  1.8922
 5107TIP3   OH236811   5.108   2.203  13.989  0.4162 -0.0143 -0.0846
 5107TIP3    H136812   5.195   2.170  13.969  0.0130 -1.2247  0.1152
 5107TIP3    H236813   5.112   2.226  14.082  0.4212 -0.3874  0.0074
 5108TIP3   OH236814   1.032   3.012  11.464 -0.2300 -0.7771  0.4493
 5108TIP3    H136815   1.039   2.996  11.369 -1.1216  0.4464  0.1659
 5108TIP3    H236816   1.113   3.056  11.486 -0.8145  0.6198 -0.1187
 5109TIP3   OH236817   0.357   1.027   3.346  0.3622  0.1972  0.1989
 5109TIP3    H136818   0.355   1.122   3.336  1.3695  0.2891  0.9176
 5109TIP3    H236819   0.292   1.009   3.414  0.9387  0.4613  0.8187
 5110TIP3   OH236820   3.916   3.464  16.972  0.6435 -0.1500 -0.0868
 5110TIP3    H136821   3.865   3.542  16.951  2.3934  0.7610 -1.0607
 5110TIP3    H236822   3.907   3.408  16.896  0.3977 -0.3694  0.1026
 5111TIP3   OH236823   5.992   3.985   6.427  0.0633 -0.1421 -0.0521
 5111TIP3    H136824   6.021   4.018   6.512  1.9362  0.2589 -0.8108
 5111TIP3    H236825   5.916   3.931   6.446  1.6089 -1.6165  2.1327
 5112TIP3   OH236826   6.526   5.559   0.019 -0.9760  0.6404 -0.3239
 5112TIP3    H136827   6.440   5.569  -0.023 -1.7335 -0.9079  0.7836
 5112TIP3    H236828   6.588   5.589  -0.046 -2.2440 -0.0574 -1.9065
 5113TIP3   OH236829   5.407   5.146  11.059 -0.1928  0.2956  0.3051
 5113TIP3    H136830   5.373   5.227  11.022 -2.2405 -1.4706 -1.8684
 5113TIP3    H236831   5.457   5.106  10.987 -0.8784 -1.2978  0.7008
 5114TIP3   OH236832   2.619   3.048  15.632 -0.1646  0.1529 -0.9458
 5114TIP3    H136833   2.667   3.092  15.562 -1.7905  1.9076 -1.0072
 5114TIP3    H236834   2.651   3.088  15.713  2.3076 -2.4504 -0.5796
 5115TIP3   OH236835   4.127   3.433  12.944  0.4317 -0.2173  1.0046
 5115TIP3    H136836   4.090   3.509  12.898  1.3152 -0.7289 -0.5818
 5115TIP3    H236837   4.162   3.378  12.875 -0.1110 -2.0529  2.1456
 5116TIP3   OH236838   5.373   2.849  17.282  0.6578 -0.3478  0.9127
 5116TIP3    H136839   5.285   2.821  17.307  0.3753  0.2440  0.5873
 5116TIP3    H236840   5.407   2.777  17.228 -0.8926  0.8473 -1.7477
 5117TIP3   OH236841   1.312   4.308   3.509 -0.3213 -0.3377  0.0998
 5117TIP3    H136842   1.235   4.348   3.550  0.4922 -0.3945  1.7319
 5117TIP3    H236843   1.289   4.216   3.500 -1.1493 -0.0299 -1.1611
 5118TIP3   OH236844   2.181   0.800   2.376 -0.3042 -0.4245 -0.8279
 5118TIP3    H136845   2.202   0.860   2.304 -0.7545  1.4904  0.5998
 5118TIP3    H236846   2.266   0.779   2.415 -0.1958 -0.2273 -0.9546
 5119TIP3   OH236847   5.393   4.981  11.654  0.1771 -0.4863 -0.2290
 5119TIP3    H136848   5.298   4.975  11.651  0.2405 -1.3085 -0.7179
 5119TIP3    H236849   5.422   4.957  11.566  0.8689 -0.9361  0.1121
 5120TIP3   OH236850   1.111   0.023   3.627 -0.2161 -0.3031 -0.3329
 5120TIP3    H136851   1.021   0.055   3.628  0.1691  0.7824  0.8436
 5120TIP3    H236852   1.127  -0.001   3.535 -1.5904 -0.2316 -0.6021
 5121TIP3   OH236853   2.766   4.353  17.158  0.6908 -0.4222  0.0691
 5121TIP3    H136854   2.825   4.372  17.086 -1.5557 -2.0906 -2.3038
 5121TIP3    H236855   2.685   4.399  17.135 -0.6023 -2.3563  0.6753
 5122TIP3   OH236856   6.653   6.634   4.497  0.0547  0.4503  0.1794
 5122TIP3    H136857   6.654   6.717   4.449  1.1620  0.7464  0.7039
 5122TIP3    H236858   6.586   6.646   4.564 -1.5208  0.0304 -1.2621
 5123TIP3   OH236859   4.342   5.254  12.435 -0.1886 -0.1386 -0.0223
 5123TIP3    H136860   4.334   5.331  12.379 -0.2504  0.1414  0.3707
 5123TIP3    H236861   4.376   5.186  12.376  1.2082  0.5544 -0.0496
 5124TIP3   OH236862   4.409   5.437   4.222  0.3019  0.0681 -0.0709
 5124TIP3    H136863   4.397   5.505   4.155  0.1436  0.3332  0.2259
 5124TIP3    H236864   4.427   5.357   4.172  2.7747  0.7684 -0.3705
 5125TIP3   OH236865   5.516   5.416  14.860 -0.1093 -0.0166 -0.0907
 5125TIP3    H136866   5.477   5.480  14.800  1.0284  2.1645  1.3939
 5125TIP3    H236867   5.569   5.360  14.804 -2.3779 -0.6519 -1.6312
 5126TIP3   OH236868   2.833   1.087  16.995  0.1513  0.2272 -0.1664
 5126TIP3    H136869   2.888   1.165  16.997 -0.9151  0.9766  2.2143
 5126TIP3    H236870   2.743   1.121  16.998 -0.3089 -1.0769  2.1098
 5127TIP3   OH236871   4.542   6.275  11.099  0.2993 -0.4437 -0.0459
 5127TIP3    H136872   4.519   6.366  11.117 -0.3246 -0.7275  0.5845
 5127TIP3    H236873   4.578   6.277  11.010  1.6997  0.6554  0.5173
 5128TIP3   OH236874   4.202   6.424  11.160  0.3235  0.6306 -0.6784
 5128TIP3    H136875   4.193   6.519  11.154 -3.5183  0.3811 -0.3292
 5128TIP3    H236876   4.133   6.390  11.103 -1.1225 -1.9062  2.4255
 5129TIP3   OH236877   1.763   2.797   2.591  0.7367 -0.1952 -0.6054
 5129TIP3    H136878   1.723   2.865   2.536  1.8769  0.0521 -1.1370
 5129TIP3    H236879   1.708   2.720   2.578 -1.1073  0.8601  0.7003
 5130TIP3   OH236880   3.092   1.127   5.676 -0.2394 -0.0829  0.8003
 5130TIP3    H136881   3.025   1.062   5.694 -0.7066  0.8778  2.5899
 5130TIP3    H236882   3.147   1.127   5.754  0.5616  0.6954  0.2478
 5131TIP3   OH236883   6.605   6.362   2.746  0.4123  0.2715 -0.4462
 5131TIP3    H136884   6.536   6.411   2.700 -0.4663 -0.3515  0.1730
 5131TIP3    H236885   6.682   6.417   2.740 -0.7415  2.0855  0.8740
 5132TIP3   OH236886   5.769   2.474   4.417  0.0423 -0.2975  0.3122
 5132TIP3    H136887   5.770   2.419   4.339  0.3027  0.9017 -0.5436
 5132TIP3    H236888   5.806   2.419   4.486  1.7594 -0.6860 -0.8805
 5133TIP3   OH236889   6.487   0.504   6.523 -0.1961  0.3759 -0.5070
 5133TIP3    H136890   6.567   0.555   6.508  0.3534 -0.5256 -0.6652
 5133TIP3    H236891   6.518   0.418   6.551 -1.0838 -0.2610 -1.4286
 5134TIP3   OH236892   1.980   4.025  11.843 -0.0090 -0.3978 -0.2432
 5134TIP3    H136893   2.057   3.969  11.843 -0.6294 -1.2468 -0.4917
 5134TIP3    H236894   2.011   4.107  11.884  0.2722 -1.7748  2.4302
 5135TIP3   OH236895   0.094   2.201   4.750  0.4229 -0.3283  0.7112
 5135TIP3    H136896   0.111   2.108   4.738  0.2139 -0.2001 -0.6166
 5135TIP3    H236897   0.173   2.244   4.716  0.6969 -0.0228  1.6937
 5136TIP3   OH236898   5.299   3.508  16.767  0.5785  0.0215 -0.0724
 5136TIP3    H136899   5.261   3.457  16.838 -0.9146 -0.9685 -1.5444
 5136TIP3    H236900   5.226   3.526  16.708  1.7337  1.0488 -1.2360
 5137TIP3   OH236901   0.832   1.800  15.493  0.3891 -0.3218  0.1801
 5137TIP3    H136902   0.880   1.880  15.473  2.2432 -1.2734  0.7100
 5137TIP3    H236903   0.789   1.818  15.576  1.0315  0.0312  0.4430
 5138TIP3   OH236904   2.171   4.476   5.980 -0.1961  0.2656 -0.2940
 5138TIP3    H136905   2.234   4.485   6.052 -1.0322  2.3805  0.2133
 5138TIP3    H236906   2.095   4.432   6.019 -0.0955  0.1426 -0.2374
 5139TIP3   OH236907   6.345   6.281  12.896  0.0167  0.8768  0.8704
 5139TIP3    H136908   6.432   6.248  12.872  0.3146  1.5738  0.9796
 5139TIP3    H236909   6.317   6.331  12.819 -1.4771 -1.6422 -0.2630
 5140TIP3   OH236910   0.868   0.048  12.117  0.0065  0.4413 -0.2436
 5140TIP3    H136911   0.945   0.101  12.097 -1.1637  1.6632 -1.6416
 5140TIP3    H236912   0.887  -0.038  12.079  1.4730  0.1316  1.1228
 5141TIP3   OH236913   3.241   5.823  17.129  0.0113 -0.0486  0.3199
 5141TIP3    H136914   3.203   5.862  17.208  2.0835  0.8053  0.9572
 5141TIP3    H236915   3.187   5.747  17.111 -1.5779  0.7560  1.5379
 5142TIP3   OH236916   1.768   5.070   5.902  0.1623  0.4188  1.0848
 5142TIP3    H136917   1.742   5.161   5.889 -0.5201  0.3895  2.2140
 5142TIP3    H236918   1.685   5.022   5.911  0.4663 -0.5497 -1.0017
 5143TIP3   OH236919   1.336   5.675   3.794  0.4982  0.5710  0.6620
 5143TIP3    H136920   1.301   5.593   3.759 -0.9228  0.7880  1.5101
 5143TIP3    H236921   1.415   5.649   3.842  2.8598  0.3653 -3.1578
 5144TIP3   OH236922   2.770   0.652  14.375  0.0204  0.0215  0.0250
 5144TIP3    H136923   2.816   0.719  14.325 -0.5964 -0.3425 -1.0381
 5144TIP3    H236924   2.705   0.616  14.315 -0.1617 -1.0167  0.8141
 5145TIP3   OH236925   4.785   4.017   3.638 -0.6014  0.0340  0.4599
 5145TIP3    H136926   4.716   4.027   3.704 -0.1214 -0.0050  0.9647
 5145TIP3    H236927   4.790   4.102   3.595 -1.2825 -0.0978  0.1075
 5146TIP3   OH236928   3.599   4.966  12.958  0.3159  0.4489  0.2630
 5146TIP3    H136929   3.684   4.992  12.922  0.1081  2.0378  0.8514
 5146TIP3    H236930   3.613   4.962  13.053 -0.4185  1.4476  0.4343
 5147TIP3   OH236931   2.305   2.348  12.310  0.3627  0.0850 -0.1349
 5147TIP3    H136932   2.238   2.299  12.262  0.7263 -1.2034  0.6368
 5147TIP3    H236933   2.320   2.296  12.389  0.4403  1.6942  0.9217
 5148TIP3   OH236934   5.299   3.632   5.328  0.0415  0.1210 -0.0883
 5148TIP3    H136935   5.305   3.624   5.423 -0.8761 -0.3045 -0.0656
 5148TIP3    H236936   5.252   3.553   5.300 -0.5292  0.7112 -0.8005
 5149TIP3   OH236937   3.013   1.003  15.024 -0.3042  0.4203 -0.1384
 5149TIP3    H136938   2.934   1.058  15.022  0.3691  1.3648 -3.1333
 5149TIP3    H236939   2.993   0.931  14.964  1.0307  0.5549 -0.7430
 5150TIP3   OH236940   5.339   0.047   3.597 -0.3047 -0.0824  0.0942
 5150TIP3    H136941   5.409   0.033   3.533  0.0564  0.6991  0.3192
 5150TIP3    H236942   5.259   0.033   3.547 -0.0680  1.8631 -0.8796
 5151TIP3   OH236943   2.575   0.067  14.277 -0.0767 -0.3596  0.5289
 5151TIP3    H136944   2.519   0.039  14.350 -0.4834  2.0119  1.1472
 5151TIP3    H236945   2.517   0.116  14.219  0.9719  0.5966  0.2784
 5152TIP3   OH236946   5.214   0.255  15.274 -0.4098 -0.3181  0.0330
 5152TIP3    H136947   5.247   0.276  15.186  2.6403 -1.0335  0.9368
 5152TIP3    H236948   5.256   0.320  15.330 -1.2341 -0.7446  1.1459
 5153TIP3   OH236949   3.083   5.843   3.063  0.7359  0.2570 -0.0796
 5153TIP3    H136950   3.136   5.920   3.047 -0.9870  1.4554 -0.1536
 5153TIP3    H236951   3.000   5.877   3.097  0.7153 -1.6644  1.9527
 5154TIP3   OH236952   0.070   3.342   5.270 -0.0596 -0.2517 -0.1097
 5154TIP3    H136953   0.077   3.380   5.182 -1.1744 -0.8194 -0.4569
 5154TIP3    H236954   0.101   3.253   5.260  2.1196  0.3961  0.6081
 5155TIP3   OH236955   6.448   3.632  17.052 -0.3955  0.2823 -0.7113
 5155TIP3    H136956   6.394   3.646  17.130  0.2750 -3.2261  0.4808
 5155TIP3    H236957   6.395   3.573  16.997  1.2242 -1.3618 -0.5591
 5156TIP3   OH236958   4.719   2.076  12.664  0.0781 -0.2323  0.1245
 5156TIP3    H136959   4.814   2.085  12.655  0.2368  0.2068  2.1138
 5156TIP3    H236960   4.707   2.002  12.723 -0.8692 -1.3412 -1.4336
 5157TIP3   OH236961   1.506   4.349  13.496  0.6589 -0.2460 -0.1617
 5157TIP3    H136962   1.524   4.437  13.462  1.9284 -0.8306 -1.0991
 5157TIP3    H236963   1.544   4.349  13.584  1.2428 -0.0574 -0.4118
 5158TIP3   OH236964   1.514   1.253   3.762  0.1765  0.3070 -0.1601
 5158TIP3    H136965   1.509   1.346   3.782 -2.1044  0.1127  0.2823
 5158TIP3    H236966   1.535   1.211   3.845  0.9904  0.3854 -0.3174
 5159TIP3   OH236967   5.819   1.482  14.171  0.2235 -0.0567  0.4121
 5159TIP3    H136968   5.761   1.465  14.245 -0.7978  0.7716 -0.1608
 5159TIP3    H236969   5.759   1.506  14.099  1.1339 -1.6490 -0.9064
 5160TIP3   OH236970   2.039   6.424  17.200 -0.3803 -0.2615 -0.0291
 5160TIP3    H136971   2.042   6.488  17.128 -0.4300  0.2338  0.4066
 5160TIP3    H236972   2.070   6.473  17.276 -1.7184 -0.3774  0.6052
 5161TIP3   OH236973   3.328   6.594   4.882  0.3262  0.0308 -0.5891
 5161TIP3    H136974   3.263   6.651   4.922  1.0236  0.0883  0.4770
 5161TIP3    H236975   3.292   6.506   4.892  1.1388 -0.0998  1.4712
 5162TIP3   OH236976   2.357   1.846  13.106  0.2867  0.5016 -0.6730
 5162TIP3    H136977   2.397   1.769  13.146  2.7924  1.7209 -0.7166
 5162TIP3    H236978   2.391   1.920  13.157  0.3199  1.7893 -2.5111
 5163TIP3   OH236979   4.444   4.318  14.028 -0.2063  0.4725  0.1601
 5163TIP3    H136980   4.467   4.285  13.941 -0.9276  1.2603 -0.3423
 5163TIP3    H236981   4.518   4.292  14.084  0.4295  0.2682 -0.7564
 5164TIP3   OH236982   2.311   2.599   2.372  0.4118  0.0157  0.2156
 5164TIP3    H136983   2.371   2.673   2.383  1.6375 -1.0251  0.6324
 5164TIP3    H236984   2.226   2.633   2.401  0.6815  1.6430 -0.8247
 5165TIP3   OH236985   4.542   5.435   2.847  0.4113  0.5110 -1.0089
 5165TIP3    H136986   4.593   5.360   2.817 -0.4182 -0.3613 -0.2755
 5165TIP3    H236987   4.604   5.508   2.846  2.3692 -0.9729  2.0396
 5166TIP3   OH236988   6.632   2.046  13.637 -0.2450 -0.1228 -0.5053
 5166TIP3    H136989   6.660   2.021  13.549 -0.5218  0.8453 -0.8747
 5166TIP3    H236990   6.536   2.048  13.632 -0.2581  0.0300 -0.2168
 5167TIP3   OH236991   4.190   4.176   3.071 -0.3348  1.0286  0.1564
 5167TIP3    H136992   4.174   4.195   3.164  0.9512  1.5675  0.2694
 5167TIP3    H236993   4.226   4.257   3.036  1.2196  0.1349 -0.3307
 5168TIP3   OH236994   3.078   1.560   5.086  0.1680  0.0207  0.3446
 5168TIP3    H136995   3.061   1.528   5.175  0.9703 -1.3923  0.0128
 5168TIP3    H236996   3.140   1.632   5.099 -2.5802  2.3331  1.1948
 5169TIP3   OH236997   4.364   2.251  16.146  0.5099  0.5034  0.1137
 5169TIP3    H136998   4.393   2.161  16.128  0.6183  0.2464  1.5183
 5169TIP3    H236999   4.273   2.242  16.173  0.4805  0.8328  0.1278
 5170TIP3   OH237000   2.422   1.596   3.824 -0.3555  0.0203 -0.1495
 5170TIP3    H137001   2.422   1.684   3.788  0.0514  0.3500  0.6462
 5170TIP3    H237002   2.417   1.539   3.748  2.4241  0.6535 -0.8547
 5171TIP3   OH237003   2.934   5.003  14.121 -0.2521  0.1214  0.4822
 5171TIP3    H137004   3.016   4.962  14.147 -0.2746 -0.0160  0.3304
 5171TIP3    H237005   2.866   4.944  14.154 -0.2866  0.1024  0.3737
 5172TIP3   OH237006   3.705   6.281  16.611 -0.3265  0.3067  0.6932
 5172TIP3    H137007   3.777   6.330  16.571 -1.5473  0.6498 -1.1453
 5172TIP3    H237008   3.630   6.341  16.606 -1.1348 -0.6706  1.0856
 5173TIP3   OH237009   0.278   5.048   1.513 -0.1414 -0.4389  0.6276
 5173TIP3    H137010   0.225   5.067   1.590  1.0293 -2.6261  2.0281
 5173TIP3    H237011   0.328   4.970   1.537  0.2385 -1.1741 -2.3575
 5174TIP3   OH237012   3.211   1.738  14.074 -0.1445 -0.5134 -0.3035
 5174TIP3    H137013   3.129   1.724  14.028 -0.5518  0.2236  0.1815
 5174TIP3    H237014   3.200   1.694  14.158  0.9953 -2.7623 -1.3066
 5175TIP3   OH237015   5.581   1.358   3.150  0.3345 -0.1002  0.0087
 5175TIP3    H137016   5.550   1.277   3.191  1.0965 -0.3759  0.0635
 5175TIP3    H237017   5.657   1.331   3.098  0.8927  0.6524  0.4150
 5176TIP3   OH237018   0.358   4.826  16.613 -0.5440  0.0831  0.0804
 5176TIP3    H137019   0.422   4.797  16.548 -2.3343 -0.6589 -1.3994
 5176TIP3    H237020   0.381   4.779  16.693  2.0788  1.4902  0.2247
 5177TIP3   OH237021   5.354   2.583  10.296 -0.4699  0.4563  0.2633
 5177TIP3    H137022   5.384   2.581  10.205 -1.2745  0.3702 -0.0035
 5177TIP3    H237023   5.391   2.505  10.336  1.1342  1.2638  0.4142
 5178TIP3   OH237024   0.308   3.911   2.096  0.1258 -0.1141 -0.4348
 5178TIP3    H137025   0.315   3.839   2.033 -1.2273  0.1006 -0.8514
 5178TIP3    H237026   0.367   3.978   2.062  0.6543 -0.6435 -0.5766
 5179TIP3   OH237027   3.674   5.021   6.372 -0.1651  0.3892 -0.0884
 5179TIP3    H137028   3.691   5.082   6.444 -1.8235  0.2344  0.4492
 5179TIP3    H237029   3.761   4.999   6.338  0.4769  2.9126 -0.1735
 5180TIP3   OH237030   2.511   4.755  11.860 -0.3094 -0.0778  0.0067
 5180TIP3    H137031   2.449   4.744  11.788  0.3162 -0.3547 -0.4937
 5180TIP3    H237032   2.586   4.799  11.821  0.0377 -0.2410  0.4872
 5181TIP3   OH237033   6.111   5.484  11.027 -0.0956  0.7502 -0.2843
 5181TIP3    H137034   6.192   5.534  11.016  1.2559 -1.3573 -0.2109
 5181TIP3    H237035   6.048   5.527  10.970  1.8733  0.7660 -2.5225
 5182TIP3   OH237036   5.255   3.769  13.277 -0.5478 -0.0719  0.0427
 5182TIP3    H137037   5.217   3.778  13.190 -1.2800 -0.3229  0.3331
 5182TIP3    H237038   5.235   3.852  13.320  0.5359  0.3787 -0.2995
 5183TIP3   OH237039   3.066   1.631  14.683  0.4544 -0.3225  0.1357
 5183TIP3    H137040   3.046   1.567  14.615  0.3787  1.5233 -1.6163
 5183TIP3    H237041   3.027   1.594  14.763 -1.9398 -1.2033 -1.3790
 5184TIP3   OH237042   1.642   5.219   3.896  0.7770  0.0336 -0.3512
 5184TIP3    H137043   1.689   5.138   3.878 -0.3515 -0.9004  0.7938
 5184TIP3    H237044   1.589   5.234   3.818  0.9288 -0.3662 -0.5322
 5185TIP3   OH237045   0.517   4.309   4.769 -0.3884  0.3097  0.0262
 5185TIP3    H137046   0.605   4.343   4.754 -0.8846  1.1515 -0.9715
 5185TIP3    H237047   0.526   4.253   4.847  1.4390 -1.2043 -1.2340
 5186TIP3   OH237048   0.171   6.770  13.144  0.1275 -0.3929 -0.3722
 5186TIP3    H137049   0.239   6.703  13.143  1.7863  1.2257 -0.1782
 5186TIP3    H237050   0.098   6.731  13.096  0.8487 -2.5161  0.1926
 5187TIP3   OH237051   0.066   0.528  11.356 -0.4031  0.4037 -0.1924
 5187TIP3    H137052  -0.024   0.505  11.333 -0.1035 -0.4331 -0.5532
 5187TIP3    H237053   0.119   0.494  11.284  0.2098  0.8301  0.0513
 5188TIP3   OH237054   2.790   5.231  11.319  0.7191  0.3546 -0.4260
 5188TIP3    H137055   2.763   5.321  11.306  0.9421  0.2954 -1.3779
 5188TIP3    H237056   2.837   5.208  11.238  0.0606 -0.8297 -0.4872
 5189TIP3   OH237057   5.907   2.714   5.369  0.2210  0.3496 -0.0502
 5189TIP3    H137058   5.966   2.641   5.350  0.3968  0.2458  0.9002
 5189TIP3    H237059   5.836   2.675   5.419 -1.3191  0.2287 -2.2182
 5190TIP3   OH237060   6.127   5.021  16.552  0.1986  0.2415 -0.1075
 5190TIP3    H137061   6.173   5.025  16.636 -0.7548 -0.8842  0.4856
 5190TIP3    H237062   6.040   4.988  16.574 -0.4501  1.0500 -1.3939
 5191TIP3   OH237063   6.449   6.294  15.268 -0.7532  0.4208  0.3999
 5191TIP3    H137064   6.368   6.325  15.228 -0.3457  0.9302 -0.0372
 5191TIP3    H237065   6.468   6.358  15.337 -2.1513 -1.1557  2.3174
 5192TIP3   OH237066   3.289   6.450  11.964 -0.5211 -0.6099 -0.4129
 5192TIP3    H137067   3.200   6.428  11.936 -0.9019  1.9799 -1.3866
 5192TIP3    H237068   3.283   6.456  12.059 -2.3341  3.0466 -0.6478
 5193TIP3   OH237069   2.235   6.181  12.112  0.1271  0.0166 -0.2849
 5193TIP3    H137070   2.219   6.089  12.089  1.0541 -0.8789  2.4727
 5193TIP3    H237071   2.298   6.177  12.184 -1.8025  2.6924  1.6663
 5194TIP3   OH237072   6.146   4.968  13.597 -0.5141 -0.0623  0.3132
 5194TIP3    H137073   6.059   5.008  13.584  1.3664  3.6146 -1.6472
 5194TIP3    H237074   6.168   4.988  13.687 -0.6659  1.1498  0.0857
 5195TIP3   OH237075   5.663   4.099  16.561  0.2168  0.3515  0.1229
 5195TIP3    H137076   5.652   4.147  16.479 -0.6552 -0.2422 -0.1153
 5195TIP3    H237077   5.753   4.118  16.588  1.0479 -0.7759 -1.8067
 5196TIP3   OH237078   3.306   1.989  15.150 -0.6748  0.4200  0.1015
 5196TIP3    H137079   3.246   1.942  15.091  1.9498  0.2922 -2.6042
 5196TIP3    H237080   3.249   2.033  15.212 -3.5151 -0.8761 -1.4687
 5197TIP3   OH237081   3.731   1.632  13.162 -0.6338 -0.4407 -0.5017
 5197TIP3    H137082   3.667   1.690  13.122 -1.6516 -0.1664  1.4685
 5197TIP3    H237083   3.782   1.689  13.219 -0.1827 -1.0966 -0.2493
 5198TIP3   OH237084   3.030   5.055  15.970 -0.3265  0.1063 -0.1157
 5198TIP3    H137085   3.010   5.131  16.024  1.0627  0.2939  0.1420
 5198TIP3    H237086   3.124   5.041  15.981 -0.9109 -3.0171  1.6454
 5199TIP3   OH237087   5.415   1.891   1.949 -0.0647 -0.7299 -0.2111
 5199TIP3    H137088   5.339   1.833   1.944 -0.4136 -0.1541 -1.9110
 5199TIP3    H237089   5.467   1.869   1.872  0.4836  0.2608 -0.1333
 5200TIP3   OH237090   5.724   5.374  12.496 -0.3213  0.2847  0.6862
 5200TIP3    H137091   5.670   5.307  12.454 -0.7357  1.0519 -0.0131
 5200TIP3    H237092   5.669   5.452  12.497  0.6716  1.0012  0.2362
 5201TIP3   OH237093   2.747   3.448  12.372  0.3759  0.0250 -0.3224
 5201TIP3    H137094   2.701   3.367  12.398 -0.9469  1.4068  1.8449
 5201TIP3    H237095   2.789   3.478  12.453 -1.8985  3.2437 -0.2463
 5202TIP3   OH237096   5.439   1.724  13.684 -0.0707  0.1086 -0.5148
 5202TIP3    H137097   5.517   1.769  13.651 -0.2303  1.2054  0.5360
 5202TIP3    H237098   5.376   1.795  13.700 -0.3814 -0.4847  1.0246
 5203TIP3   OH237099   0.235   1.859   3.265  0.8800  0.2184  0.4336
 5203TIP3    H137100   0.277   1.785   3.308 -0.0995 -0.4918  0.1627
 5203TIP3    H237101   0.290   1.877   3.188  1.5220  0.2495  0.8914
 5204TIP3   OH237102   2.462   0.891   5.137  0.1898 -0.7286  0.4258
 5204TIP3    H137103   2.527   0.957   5.110 -0.8789  0.5222  0.8840
 5204TIP3    H237104   2.437   0.917   5.226 -2.5414  0.0620 -0.5413
 5205TIP3   OH237105   1.462   6.705  16.833  0.2525  0.1221 -0.0443
 5205TIP3    H137106   1.467   6.730  16.926  0.7440 -2.3824  0.6520
 5205TIP3    H237107   1.369   6.691  16.817  0.0607  1.5768 -0.2189
 5206TIP3   OH237108   6.189   2.400  12.167  0.0886  0.1495  0.3945
 5206TIP3    H137109   6.197   2.328  12.104  0.2847  2.0426 -1.7974
 5206TIP3    H237110   6.098   2.429  12.159 -0.5468 -1.0252  2.6659
 5207TIP3   OH237111   6.773   5.589  14.947 -0.0919  0.1514  0.1653
 5207TIP3    H137112   6.685   5.566  14.977  0.4993  0.2017  1.9716
 5207TIP3    H237113   6.827   5.587  15.026  1.2520  1.4963 -0.6923
 5208TIP3   OH237114   1.543   2.938  16.119  0.0368 -0.1239 -0.0564
 5208TIP3    H137115   1.610   2.870  16.112 -0.4682 -0.6769  0.4500
 5208TIP3    H237116   1.580   3.013  16.072 -0.2328 -1.3574 -2.2503
 5209TIP3   OH237117   3.206   3.384   1.718 -0.0946 -0.3433 -0.6093
 5209TIP3    H137118   3.275   3.422   1.773  0.6055  0.5031 -2.0240
 5209TIP3    H237119   3.131   3.441   1.730 -0.0052 -0.2689 -0.3971
 5210TIP3   OH237120   0.678   4.234  12.813 -0.2612 -0.3928  0.3509
 5210TIP3    H137121   0.631   4.225  12.730  1.1852 -0.4659 -0.4882
 5210TIP3    H237122   0.756   4.179  12.801  1.2928  1.6688  0.7564
 5211TIP3   OH237123   6.720   0.410   4.975  0.1958 -0.4419  0.2301
 5211TIP3    H137124   6.635   0.377   5.001 -0.2451 -1.0063 -1.7914
 5211TIP3    H237125   6.774   0.332   4.965  0.8032 -0.1238  1.0145
 5212TIP3   OH237126   6.434   6.490  12.477  0.6323  0.4142 -0.1552
 5212TIP3    H137127   6.508   6.433  12.456 -0.8781 -0.6144 -2.9307
 5212TIP3    H237128   6.378   6.435  12.532  1.5473  0.9420  1.3275
 5213TIP3   OH237129   0.907   4.056  15.417 -0.3352  0.4662 -0.0092
 5213TIP3    H137130   0.959   4.126  15.458 -0.5088  1.1502 -0.9623
 5213TIP3    H237131   0.886   3.998  15.490  0.7701  0.8018  0.6037
 5214TIP3   OH237132   5.061   0.304   1.231  0.5935 -0.1837 -0.8206
 5214TIP3    H137133   5.042   0.213   1.250  1.4233 -0.5501 -1.7057
 5214TIP3    H237134   4.984   0.335   1.183 -0.1371 -0.1208  0.3802
 5215TIP3   OH237135   3.409   0.881   5.852  0.3582 -0.0038  0.1871
 5215TIP3    H137136   3.472   0.953   5.859  0.6521 -0.2202 -0.2219
 5215TIP3    H237137   3.433   0.836   5.772  0.4674 -0.8435  0.6911
 5216TIP3   OH237138   1.842   3.438  10.793 -0.3695  0.2152  0.0245
 5216TIP3    H137139   1.760   3.388  10.789 -0.8119  0.8820  0.5688
 5216TIP3    H237140   1.897   3.399  10.725 -0.2528 -1.7951  1.2216
 5217TIP3   OH237141   4.302   1.485   4.431  0.0662  0.2888 -0.1112
 5217TIP3    H137142   4.226   1.494   4.489 -1.6550 -2.2334 -1.8454
 5217TIP3    H237143   4.296   1.559   4.372  1.8759  2.9296  2.8592
 5218TIP3   OH237144   2.622   2.312   2.941 -0.6043 -0.5570 -0.5189
 5218TIP3    H137145   2.625   2.225   2.901 -0.5184 -0.6763 -0.2525
 5218TIP3    H237146   2.612   2.372   2.867  0.1364 -0.7357 -0.7744
 5219TIP3   OH237147   5.120   1.853  12.930 -0.0664  0.0923  0.7233
 5219TIP3    H137148   5.040   1.805  12.953  0.9300 -1.2302  1.5300
 5219TIP3    H237149   5.103   1.888  12.843 -1.0946 -1.1730  0.4031
 5220TIP3   OH237150   4.282   2.131  15.045  0.2012 -0.0438  0.3793
 5220TIP3    H137151   4.311   2.114  14.955  2.3579  4.0207  0.1804
 5220TIP3    H237152   4.189   2.149  15.038  0.3474  0.1853 -1.0772
 5221TIP3   OH237153   3.468   0.042   2.268 -0.3497  0.0061  0.6803
 5221TIP3    H137154   3.419   0.101   2.210 -2.2241 -0.5236  1.6931
 5221TIP3    H237155   3.496  -0.030   2.211  0.6754  1.1351 -0.2500
 5222TIP3   OH237156   0.955   2.479  11.191  0.0996 -0.1576  0.0856
 5222TIP3    H137157   1.013   2.510  11.261 -2.8983 -0.1221  2.6829
 5222TIP3    H237158   0.924   2.559  11.149 -0.9508  0.0138  1.1598
 5223TIP3   OH237159   4.817   4.119   2.837 -0.2634  0.1196 -0.2738
 5223TIP3    H137160   4.882   4.158   2.896  0.9279  0.6310 -1.8634
 5223TIP3    H237161   4.793   4.037   2.878  1.0261  0.1661  0.6136
 5224TIP3   OH237162   3.457   0.164  10.697  0.1495 -0.1633 -0.1132
 5224TIP3    H137163   3.442   0.256  10.717 -0.4434 -0.5017  1.0934
 5224TIP3    H237164   3.518   0.134  10.765 -0.6577 -0.9567  0.2796
 5225TIP3   OH237165   2.152   4.659   0.683 -0.3313  1.0708  0.3763
 5225TIP3    H137166   2.228   4.602   0.688 -0.9011 -0.0384 -2.3549
 5225TIP3    H237167   2.136   4.687   0.773  1.8007 -0.6382  1.3268
 5226TIP3   OH237168   0.465   6.596   3.031  0.4814  0.1350 -0.2995
 5226TIP3    H137169   0.502   6.592   2.943  1.5778 -1.0640  0.1994
 5226TIP3    H237170   0.452   6.504   3.056 -2.8742  0.5173 -0.4587
 5227TIP3   OH237171   3.300   1.364  11.180 -0.5126 -0.2333 -0.1217
 5227TIP3    H137172   3.374   1.424  11.192 -0.2160 -0.7844  0.8718
 5227TIP3    H237173   3.230   1.403  11.231 -0.6429 -0.1747 -0.3450
 5228TIP3   OH237174   2.130   1.987  17.249  0.0742  0.0120  0.1283
 5228TIP3    H137175   2.217   1.985  17.290  0.5821  1.2792 -0.8331
 5228TIP3    H237176   2.147   1.963  17.157 -0.8068 -1.1941  0.2718
 5229TIP3   OH237177   1.299   4.888  12.847  0.6547  0.2952 -0.1770
 5229TIP3    H137178   1.285   4.981  12.861 -1.3788  0.1170 -0.8262
 5229TIP3    H237179   1.330   4.854  12.931  0.6690  1.3989  0.2645
 5230TIP3   OH237180   1.019   5.861   1.529  0.3272 -0.4463 -0.3364
 5230TIP3    H137181   0.998   5.816   1.447 -1.1426 -1.0124  0.3217
 5230TIP3    H237182   1.025   5.954   1.505  0.4683 -0.6733 -1.1845
 5231TIP3   OH237183   3.611   2.931  14.354 -0.8601 -0.5765  0.3936
 5231TIP3    H137184   3.706   2.929  14.363 -0.9926 -1.2344  1.7680
 5231TIP3    H237185   3.581   2.851  14.398 -2.1065  0.1187  0.8225
 5232TIP3   OH237186   4.583   5.174  14.825 -0.0938 -0.2469 -0.0087
 5232TIP3    H137187   4.499   5.133  14.847 -0.9093  0.9548 -0.8689
 5232TIP3    H237188   4.629   5.179  14.909 -0.3786 -2.0104  0.2755
 5233TIP3   OH237189   3.044   6.580   3.322  0.6192  0.2283 -0.0340
 5233TIP3    H137190   2.963   6.547   3.282  0.3943  2.4161 -1.4497
 5233TIP3    H237191   3.104   6.594   3.248  1.4977  0.7697  0.7694
 5234TIP3   OH237192   4.289   2.333   5.383  0.1012  0.3979  0.3862
 5234TIP3    H137193   4.378   2.366   5.386  0.3839 -0.4301  1.1642
 5234TIP3    H237194   4.275   2.290   5.468  0.0617 -2.2735 -0.9137
 5235TIP3   OH237195   1.482   2.501  16.314 -0.4343 -0.1379  0.4624
 5235TIP3    H137196   1.541   2.445  16.364  0.8305  3.3259  3.0971
 5235TIP3    H237197   1.395   2.483  16.349  0.1465  0.5081  2.2798
 5236TIP3   OH237198   6.416   2.463  11.402  0.3500 -0.0329 -0.2772
 5236TIP3    H137199   6.330   2.504  11.401  0.0462 -0.6734 -0.3948
 5236TIP3    H237200   6.412   2.398  11.471  1.1875  0.8653  0.6427
 5237TIP3   OH237201   4.132   5.647   5.773  0.0267  0.0375  0.0510
 5237TIP3    H137202   4.109   5.734   5.805  0.9533  0.4439 -0.3678
 5237TIP3    H237203   4.053   5.595   5.786 -0.8142  1.1531 -0.4538
 5238TIP3   OH237204   3.289   0.350   5.132 -0.1636 -0.4341 -0.3769
 5238TIP3    H137205   3.279   0.378   5.223  0.0656 -1.2729 -0.0873
 5238TIP3    H237206   3.284   0.254   5.137 -1.1222 -0.4393 -1.3614
 5239TIP3   OH237207   3.460   2.955  17.058  0.4079  0.0437 -0.0310
 5239TIP3    H137208   3.521   2.994  17.120 -1.9683  2.5035  0.8996
 5239TIP3    H237209   3.454   2.863  17.083  0.8818  0.6131  2.2122
 5240TIP3   OH237210   4.098   3.272  17.009  0.1117  0.1852  0.3551
 5240TIP3    H137211   4.048   3.191  16.993 -0.8443  1.2072 -2.1366
 5240TIP3    H237212   4.035   3.342  16.993  2.2460  1.5295 -2.8376
 5241TIP3   OH237213   2.878   5.893  16.071  0.0005  0.1444  0.1074
 5241TIP3    H137214   2.784   5.892  16.089 -0.0978 -1.4754 -0.4495
 5241TIP3    H237215   2.919   5.907  16.156 -0.6485 -2.0723  0.8108
 5242TIP3   OH237216   1.336   6.298   7.013 -0.2444  0.0870 -0.0327
 5242TIP3    H137217   1.249   6.284   6.974 -0.5973  0.0866  0.7421
 5242TIP3    H237218   1.381   6.214   7.001  0.1147  0.4708 -1.5626
 5243TIP3   OH237219   4.853   3.967  16.954 -0.9088 -0.2912 -0.4357
 5243TIP3    H137220   4.774   3.926  16.990 -0.9077  1.5484  1.7205
 5243TIP3    H237221   4.912   3.975  17.028  0.7216 -0.1898 -1.7150
 5244TIP3   OH237222   0.136   3.358  14.422  0.6783 -0.4147 -0.5408
 5244TIP3    H137223   0.163   3.341  14.332 -0.0829  0.3704 -0.9300
 5244TIP3    H237224   0.218   3.359  14.472  1.1719 -0.1239 -1.3467
 5245TIP3   OH237225   3.536   1.312  12.356  0.5166  0.5224 -0.4461
 5245TIP3    H137226   3.494   1.345  12.276  0.7004  0.1609 -0.6892
 5245TIP3    H237227   3.483   1.349  12.427 -0.6212 -0.4766 -0.7612
 5246TIP3   OH237228   4.496   5.317   0.179 -0.5973  0.2792 -0.9834
 5246TIP3    H137229   4.554   5.354   0.245 -0.6931  0.7586 -1.1608
 5246TIP3    H237230   4.411   5.359   0.195 -0.7173  0.1112 -1.1678
 5247TIP3   OH237231   6.705   4.065  15.444 -0.2402  0.4748  0.2216
 5247TIP3    H137232   6.776   4.039  15.385 -0.4868  1.1922 -0.4097
 5247TIP3    H237233   6.745   4.128  15.503 -0.6073  1.7425 -0.8572
 5248TIP3   OH237234   1.268   3.694  16.144 -0.4837  0.7225 -0.2838
 5248TIP3    H137235   1.223   3.652  16.218 -1.6931 -0.8113 -1.8559
 5248TIP3    H237236   1.293   3.622  16.087 -0.8866  1.9933 -2.1145
 5249TIP3   OH237237   1.315   5.320   5.564 -0.2240  0.4153  0.3386
 5249TIP3    H137238   1.283   5.337   5.476  0.3075 -1.5476 -0.2506
 5249TIP3    H237239   1.409   5.305   5.553 -0.3785 -1.1188  1.0496
 5250TIP3   OH237240   2.856   1.121   1.995  1.1448 -0.7932  0.6122
 5250TIP3    H137241   2.886   1.178   1.925  2.7350 -0.2242  1.7197
 5250TIP3    H237242   2.766   1.100   1.972  1.0100  0.9834 -0.5764
 5251TIP3   OH237243   6.273   0.389  16.613  0.7360 -0.4287 -0.5624
 5251TIP3    H137244   6.208   0.356  16.675  1.5227 -1.0022 -0.0364
 5251TIP3    H237245   6.225   0.396  16.530 -0.4629  0.8862  0.2223
 5252TIP3   OH237246   3.145   0.819   0.660 -0.6958 -0.3344 -0.1967
 5252TIP3    H137247   3.092   0.862   0.727 -1.7743  0.3242 -1.4476
 5252TIP3    H237248   3.083   0.766   0.610 -0.1694  0.2380 -1.5083
 5253TIP3   OH237249   0.080   3.922   4.950  0.8620 -0.2932 -0.1718
 5253TIP3    H137250  -0.011   3.950   4.948  0.8343 -0.4056 -0.6466
 5253TIP3    H237251   0.085   3.850   4.886  0.9853 -1.2220  0.8698
 5254TIP3   OH237252   0.312   1.261   3.517  0.7827  0.3022 -0.0891
 5254TIP3    H137253   0.287   1.174   3.547 -1.5444  0.9256 -0.1458
 5254TIP3    H237254   0.285   1.264   3.425  4.4151 -0.2513 -1.2636
 5255TIP3   OH237255   2.787   1.099  14.463 -0.1974 -0.1254 -0.1871
 5255TIP3    H137256   2.837   1.019  14.479  0.4465  0.3942  0.4106
 5255TIP3    H237257   2.843   1.153  14.407 -0.1250  0.4117  0.3976
 5256TIP3   OH237258   2.897   6.519   3.895  0.0528  0.3589  0.1569
 5256TIP3    H137259   2.911   6.538   3.802 -2.3187 -1.9687 -0.7429
 5256TIP3    H237260   2.803   6.534   3.907 -0.0056 -1.2066  1.7221
 5257TIP3   OH237261   1.305   6.409  15.341  0.1784  0.1286 -0.0309
 5257TIP3    H137262   1.272   6.409  15.431  0.1470  1.2361 -0.0358
 5257TIP3    H237263   1.248   6.471  15.295 -2.0934 -2.9787 -1.6757
 5258TIP3   OH237264   3.811   4.569  13.972 -0.2878  0.1202 -0.0808
 5258TIP3    H137265   3.854   4.485  13.956  0.3292  0.5966 -0.9804
 5258TIP3    H237266   3.733   4.567  13.917  1.0631  1.1597 -2.0818
 5259TIP3   OH237267   4.030   2.525  11.632  0.0222 -0.6855  0.2904
 5259TIP3    H137268   3.996   2.468  11.563 -2.1604 -0.7975  1.4369
 5259TIP3    H237269   4.084   2.467  11.686 -2.1528 -1.7032  1.4295
 5260TIP3   OH237270   3.111   4.494  15.453 -0.0021  0.3596  0.5007
 5260TIP3    H137271   3.069   4.572  15.416 -0.1678 -1.0858 -2.4454
 5260TIP3    H237272   3.075   4.488  15.542 -0.8078  3.0049  0.3987
 5261TIP3   OH237273   5.910   1.572   4.939 -0.4078 -0.0421  0.2735
 5261TIP3    H137274   5.885   1.639   5.003  0.9705 -0.7256  1.5612
 5261TIP3    H237275   6.002   1.591   4.920 -0.3197 -0.9267 -0.1715
 5262TIP3   OH237276   4.205   6.199  11.750 -0.1788  0.3685 -0.3586
 5262TIP3    H137277   4.141   6.128  11.749  0.3561 -0.1060 -0.5732
 5262TIP3    H237278   4.289   6.157  11.763 -0.1237  1.1917  2.2172
 5263TIP3   OH237279   0.307   2.792   1.411  0.6473  0.1751  0.2517
 5263TIP3    H137280   0.344   2.755   1.491 -1.2219 -0.7108  0.7322
 5263TIP3    H237281   0.334   2.732   1.342  1.8168  0.6511  0.2910
 5264TIP3   OH237282   3.310   1.665   3.765  0.2852  0.3588  0.4559
 5264TIP3    H137283   3.310   1.755   3.797  1.2786  0.9573 -1.1375
 5264TIP3    H237284   3.303   1.673   3.670 -0.1015 -1.2693  0.3252
 5265TIP3   OH237285   2.367   3.363   1.873 -0.1167 -0.2396 -0.4252
 5265TIP3    H137286   2.381   3.421   1.948  0.1289 -0.7909 -0.0461
 5265TIP3    H237287   2.325   3.285   1.909  0.7977 -0.8775 -0.7158
 5266TIP3   OH237288   4.679   1.553   5.327  0.2219  0.8194  0.9685
 5266TIP3    H137289   4.618   1.599   5.386  1.2165  1.7814  1.2641
 5266TIP3    H237290   4.754   1.531   5.382  0.2540 -0.1453  0.5460
 5267TIP3   OH237291   4.504   4.425   5.481 -0.3373 -0.1804  0.3582
 5267TIP3    H137292   4.567   4.493   5.506 -2.0177  0.8533  1.8965
 5267TIP3    H237293   4.554   4.365   5.425  1.1916  2.3200 -1.0533
 5268TIP3   OH237294   5.244   2.836  15.053 -0.0773  0.1191  0.7980
 5268TIP3    H137295   5.206   2.883  14.979  1.8851  1.1374  0.4024
 5268TIP3    H237296   5.291   2.902  15.102  0.8993 -1.0313  1.4509
 5269TIP3   OH237297   2.501   6.196   4.434  0.0109  0.0862  0.3487
 5269TIP3    H137298   2.580   6.176   4.483 -0.2939 -0.4791  0.6125
 5269TIP3    H237299   2.435   6.135   4.468  0.2175 -1.5006 -1.9375
 5270TIP3   OH237300   6.592   3.617   0.090  0.3230  0.5755  0.2380
 5270TIP3    H137301   6.638   3.658   0.017 -1.7344  2.9585  0.2457
 5270TIP3    H237302   6.612   3.672   0.166  0.0694 -0.2302  0.9096
 5271TIP3   OH237303   3.024   4.685  16.276  0.1311 -0.6103  0.2414
 5271TIP3    H137304   2.933   4.715  16.268  0.5209  0.4769 -0.2609
 5271TIP3    H237305   3.039   4.633  16.198  0.9049  1.8497 -1.2861
 5272TIP3   OH237306   6.661   5.684   5.636  0.3914 -0.2881 -0.0982
 5272TIP3    H137307   6.631   5.763   5.590  1.0244 -0.1401 -0.2623
 5272TIP3    H237308   6.711   5.636   5.570 -1.2931 -1.6036 -0.4644
 5273TIP3   OH237309   2.663   0.351  11.566  0.1620  0.4897 -0.2452
 5273TIP3    H137310   2.744   0.387  11.530 -0.6513  1.5179 -1.0831
 5273TIP3    H237311   2.683   0.332  11.657  1.2993  0.8765 -0.4144
 5274TIP3   OH237312   3.380   2.894   5.167  0.1941  0.0071 -0.6680
 5274TIP3    H137313   3.445   2.946   5.213 -0.4295  0.0624  0.1734
 5274TIP3    H237314   3.298   2.913   5.212 -0.5169  0.4101 -2.1083
 5275TIP3   OH237315   4.251   5.364   4.673  0.5362 -0.4998  0.6136
 5275TIP3    H137316   4.269   5.288   4.728  0.1682 -0.1378  1.2403
 5275TIP3    H237317   4.337   5.391   4.641  0.8138 -0.4355  1.3905
 5276TIP3   OH237318   2.760   1.922  14.316  0.6214 -0.0761  0.1241
 5276TIP3    H137319   2.776   1.830  14.337  0.8443  0.1739  1.0749
 5276TIP3    H237320   2.670   1.938  14.342  0.9957  0.3167  1.1891
 5277TIP3   OH237321   2.169   1.062   3.757 -0.1895 -0.1567  0.1565
 5277TIP3    H137322   2.102   1.012   3.710  1.2205 -2.1756  0.2252
 5277TIP3    H237323   2.156   1.041   3.849  0.9492 -1.0921  0.1146
 5278TIP3   OH237324   2.869   5.919  17.220  0.6103  0.2603 -0.8255
 5278TIP3    H137325   2.802   5.863  17.182  1.0360  0.3498 -1.7361
 5278TIP3    H237326   2.886   5.986  17.153  1.6778  0.1758 -0.6563
 5279TIP3   OH237327   0.484   2.203  12.355 -0.1397  0.3319  0.1276
 5279TIP3    H137328   0.575   2.196  12.326 -0.4804 -0.5565 -0.7373
 5279TIP3    H237329   0.432   2.183  12.277 -1.0945  2.3145  0.2179
 5280TIP3   OH237330   2.081   4.173   1.087  0.6736  0.3192 -0.6911
 5280TIP3    H137331   2.124   4.226   1.155  1.6881 -1.5424  0.1373
 5280TIP3    H237332   2.065   4.089   1.129 -0.2530 -0.2906 -2.2478
 5281TIP3   OH237333   6.426   1.988  13.155  0.7662  0.5737  0.0708
 5281TIP3    H137334   6.452   1.896  13.149 -1.3100 -0.1296  1.2141
 5281TIP3    H237335   6.491   2.035  13.103  1.3171 -1.6395 -1.3092
 5282TIP3   OH237336   2.598   0.375   0.624  0.0812 -0.0472 -0.0011
 5282TIP3    H137337   2.507   0.361   0.653  0.2276 -0.0820  0.4446
 5282TIP3    H237338   2.648   0.309   0.671  0.7820  1.9339  2.1491
 5283TIP3   OH237339   5.854   2.866  12.923  0.1810 -0.3423  0.2450
 5283TIP3    H137340   5.863   2.956  12.893 -0.8646 -0.4309 -0.3931
 5283TIP3    H237341   5.832   2.816  12.843  0.4755 -1.1058  0.6325
 5284TIP3   OH237342   1.051   5.543   4.852 -0.6304  0.3681 -0.2935
 5284TIP3    H137343   0.977   5.562   4.911 -0.2088  0.5397  0.1826
 5284TIP3    H237344   1.027   5.585   4.770 -1.9202 -1.1501 -0.7237
 5285TIP3   OH237345   1.101   3.782  17.207 -0.5705  0.0499  0.1601
 5285TIP3    H137346   1.144   3.700  17.184  0.1404  0.3998  0.2194
 5285TIP3    H237347   1.115   3.839  17.131 -1.5309 -0.0625 -0.1125
 5286TIP3   OH237348   2.518   0.544  17.183 -0.2206  0.1362 -0.0775
 5286TIP3    H137349   2.569   0.619  17.153 -2.0435  1.0682 -0.9263
 5286TIP3    H237350   2.577   0.469  17.174  0.2286  0.8190 -3.3206
 5287TIP3   OH237351   3.975   2.451   1.857  0.1053  0.6132 -0.0009
 5287TIP3    H137352   4.032   2.414   1.789  2.8149  1.3516  1.7954
 5287TIP3    H237353   3.935   2.528   1.815  0.1091 -0.1382 -1.4121
 5288TIP3   OH237354   5.660   5.876   4.786 -0.5442  0.3422  0.1330
 5288TIP3    H137355   5.645   5.941   4.854  1.0668  1.9895 -1.0440
 5288TIP3    H237356   5.725   5.817   4.824 -0.8816  0.2813  0.6251
 5289TIP3   OH237357   3.966   0.998   0.620 -0.1404  0.7589 -0.1272
 5289TIP3    H137358   3.980   1.018   0.528 -0.8310 -1.2518 -0.6856
 5289TIP3    H237359   4.054   0.999   0.659  0.1539  1.5500 -0.8022
 5290TIP3   OH237360   2.002   2.407   2.134 -0.3161 -0.2044  0.1897
 5290TIP3    H137361   1.941   2.446   2.071  0.6769  0.1579 -0.5734
 5290TIP3    H237362   2.034   2.482   2.185  1.7592  0.0681 -1.4192
 5291TIP3   OH237363   5.158   5.752  14.384 -0.1495 -0.5671  0.1363
 5291TIP3    H137364   5.090   5.811  14.350  0.9863  1.1433  0.7843
 5291TIP3    H237365   5.166   5.776  14.476  1.8202 -0.2460 -0.0911
 5292TIP3   OH237366   2.870   0.458   1.327 -0.7455  0.5753  0.2332
 5292TIP3    H137367   2.811   0.532   1.341 -2.8231 -1.6147  3.6235
 5292TIP3    H237368   2.812   0.381   1.324  1.6114 -1.2474 -0.0526
 5293TIP3   OH237369   4.179   5.752   4.856 -0.4272  0.2772  0.1439
 5293TIP3    H137370   4.251   5.718   4.803  0.1489 -1.0392  1.7349
 5293TIP3    H237371   4.220   5.812   4.918 -1.0154  1.3453 -0.5000
 5294TIP3   OH237372   2.198   5.621   1.608  0.0426 -0.0156  0.1449
 5294TIP3    H137373   2.129   5.558   1.589  1.1119 -0.7564 -1.3977
 5294TIP3    H237374   2.167   5.703   1.570 -0.0095 -0.3294 -0.4843
 5295TIP3   OH237375   0.498   6.213   3.458 -0.2935 -0.3701  0.2645
 5295TIP3    H137376   0.507   6.156   3.535 -2.6422  0.4555  1.1663
 5295TIP3    H237377   0.405   6.212   3.438 -0.1379  1.8702 -0.7116
 5296TIP3   OH237378   4.949   3.402  16.067 -0.0521  0.5141 -0.1639
 5296TIP3    H137379   4.875   3.424  16.011  0.4565  0.6210 -0.8127
 5296TIP3    H237380   4.956   3.475  16.128 -0.5303  0.4608 -0.0417
 5297TIP3   OH237381   2.398   3.310   0.893 -0.4853  0.0019 -0.3817
 5297TIP3    H137382   2.481   3.356   0.909 -0.4766 -0.4523  0.9326
 5297TIP3    H237383   2.397   3.293   0.799  0.3308  1.1305 -0.5976
 5298TIP3   OH237384   3.874   0.369  16.708 -0.6207  0.5754 -0.1097
 5298TIP3    H137385   3.799   0.315  16.733 -0.5637  1.2223  1.5140
 5298TIP3    H237386   3.942   0.347  16.771  0.0537  1.1038 -0.6462
 5299TIP3   OH237387   1.459   4.989   5.336  0.1183 -0.9055 -0.0573
 5299TIP3    H137388   1.368   5.015   5.320 -0.4122 -2.6990  0.0144
 5299TIP3    H237389   1.466   4.986   5.431  0.3682 -0.4322 -0.0553
 5300TIP3   OH237390   6.084   5.625   2.242 -0.2919 -0.1204  0.5074
 5300TIP3    H137391   6.004   5.649   2.195 -0.5833  0.7030  1.4294
 5300TIP3    H237392   6.054   5.604   2.330  0.5967  0.7791  1.0185
 5301TIP3   OH237393   3.178   4.261  14.630  0.7801  0.3957 -0.4694
 5301TIP3    H137394   3.197   4.328  14.565  1.5014  0.2039 -0.4595
 5301TIP3    H237395   3.195   4.178  14.585 -1.5323  0.1502 -0.9526
 5302TIP3   OH237396   3.210   1.328  13.458 -0.2639 -0.1350 -0.1582
 5302TIP3    H137397   3.274   1.267  13.495 -0.4016 -0.3254 -0.2357
 5302TIP3    H237398   3.206   1.305  13.365  0.5963  0.7947 -0.4290
 5303TIP3   OH237399   5.798   3.687   0.436  0.5192 -0.2065  0.2846
 5303TIP3    H137400   5.760   3.744   0.369  1.9322  0.2109 -0.1812
 5303TIP3    H237401   5.722   3.657   0.487 -0.5321 -0.2066 -1.2321
 5304TIP3   OH237402   1.055   1.712   0.635 -0.1193 -0.0030 -0.2598
 5304TIP3    H137403   1.006   1.718   0.554  0.2876  0.2353 -0.4910
 5304TIP3    H237404   1.054   1.800   0.671  0.2119  0.0249 -0.3114
 5305TIP3   OH237405   2.730   3.957   0.107 -0.2114  0.2515  0.0468
 5305TIP3    H137406   2.749   4.047   0.131  0.2707 -0.0234  0.7187
 5305TIP3    H237407   2.708   3.960   0.014  0.1374  1.0051 -0.0089
 5306TIP3   OH237408   4.428   1.923   2.247  0.3282  0.0080  0.7307
 5306TIP3    H137409   4.482   1.864   2.298  1.9016 -0.2597 -1.1813
 5306TIP3    H237410   4.489   1.965   2.185 -1.4920  0.2586 -0.9688
 5307TIP3   OH237411   1.782   0.714   3.569  0.5262 -0.3678  0.0939
 5307TIP3    H137412   1.783   0.664   3.487  0.8087 -0.2023 -0.0041
 5307TIP3    H237413   1.758   0.803   3.543  0.4058 -0.3634  0.2184
 5308TIP3   OH237414   0.795   2.531   5.239  0.0770 -0.5040  0.0898
 5308TIP3    H137415   0.714   2.483   5.253  0.0672 -0.1360  1.3457
 5308TIP3    H237416   0.779   2.618   5.275  0.9398 -0.3525  0.1322
 5309TIP3   OH237417   1.708   5.926  16.077 -0.3462 -0.2330  0.1270
 5309TIP3    H137418   1.736   5.835  16.072  0.1056 -0.0960  0.1001
 5309TIP3    H237419   1.676   5.947  15.989 -1.2290 -0.6143  0.3581
 5310TIP3   OH237420   4.711   5.149   5.150 -0.1232 -0.3945 -0.1042
 5310TIP3    H137421   4.677   5.238   5.141  0.1070 -0.1232  1.4841
 5310TIP3    H237422   4.645   5.094   5.108 -0.5389  0.4665 -0.6120
 5311TIP3   OH237423   3.779   3.596  14.105 -0.0033  0.9026  0.2382
 5311TIP3    H137424   3.708   3.632  14.157  1.2720  1.1546  1.8244
 5311TIP3    H237425   3.795   3.662  14.037 -0.8472  1.1231  0.2449
 5312TIP3   OH237426   5.147   1.355   1.273 -0.0879 -0.2174 -0.2431
 5312TIP3    H137427   5.073   1.340   1.332 -1.0673  0.2925 -1.3508
 5312TIP3    H237428   5.118   1.321   1.189  1.2099 -0.6718 -0.5227
 5313TIP3   OH237429   1.131   3.677   0.998  0.0566  0.4757 -0.3933
 5313TIP3    H137430   1.037   3.696   0.996  0.1781  1.3057  0.7999
 5313TIP3    H237431   1.171   3.758   1.030  1.0335 -0.3386  0.4974
 5314TIP3   OH237432   3.396   1.687   1.037 -0.4142 -0.2566 -0.5510
 5314TIP3    H137433   3.319   1.670   1.091 -0.4853 -1.8884 -1.1121
 5314TIP3    H237434   3.363   1.685   0.947 -0.0363  0.8838 -0.7172
 5315TIP3   OH237435   3.654   5.928   5.380 -0.2346 -0.3241 -0.3911
 5315TIP3    H137436   3.663   5.857   5.316  2.3178  0.6178 -1.1549
 5315TIP3    H237437   3.725   5.913   5.443 -1.3870 -0.0140  0.9980
 5316TIP3   OH237438   4.563   1.535  11.869 -0.0632  0.0052  0.0860
 5316TIP3    H137439   4.618   1.579  11.934  0.3033  0.0361 -0.2423
 5316TIP3    H237440   4.488   1.594  11.858  0.5455  0.6833 -0.5300
 5317TIP3   OH237441   1.848   3.676  14.471  0.4159 -0.2510 -0.3925
 5317TIP3    H137442   1.919   3.738  14.489  0.6614 -1.1056  1.7519
 5317TIP3    H237443   1.846   3.619  14.548 -1.9761 -0.8404 -0.8456
 5318TIP3   OH237444   5.156   3.394   5.260 -0.1427  0.3829  0.0550
 5318TIP3    H137445   5.080   3.340   5.283  2.1207 -2.4928  1.1900
 5318TIP3    H237446   5.200   3.345   5.190  0.9997  1.6786 -0.1568
 5319TIP3   OH237447   6.181   4.359   2.053 -0.3713 -0.0998  0.3317
 5319TIP3    H137448   6.204   4.282   2.000  1.0362  0.2038  0.4888
 5319TIP3    H237449   6.095   4.385   2.020 -1.1209 -2.0573  0.6490
 5320TIP3   OH237450   3.673   2.935   5.242  0.4226  0.5223 -0.0761
 5320TIP3    H137451   3.689   2.915   5.334  0.0729  0.1317 -0.1020
 5320TIP3    H237452   3.686   3.030   5.236 -1.0685  0.8029  0.7023
 5321TIP3   OH237453   2.670   0.277   1.333  0.0100  0.1779 -0.3729
 5321TIP3    H137454   2.641   0.288   1.242  1.0856 -0.6270 -0.8234
 5321TIP3    H237455   2.626   0.198   1.363 -3.5931  2.5883  1.1828
 5322TIP3   OH237456   5.442   3.320  14.952 -0.4717  0.3355  0.1056
 5322TIP3    H137457   5.464   3.414  14.952  1.7965 -0.1536  0.2543
 5322TIP3    H237458   5.350   3.317  14.979 -0.3305  2.4696  0.9602
 5323TIP3   OH237459   2.824   1.732  16.671 -0.1232 -0.4100  0.4643
 5323TIP3    H137460   2.877   1.773  16.740 -1.3856  0.9863  0.6572
 5323TIP3    H237461   2.885   1.677  16.622  1.6335  1.6147  0.2933
 5324TIP3   OH237462   5.683   4.603   2.115 -0.1779  0.2719 -0.4061
 5324TIP3    H137463   5.775   4.629   2.123  0.1706 -0.5041 -1.8113
 5324TIP3    H237464   5.682   4.512   2.148 -0.7284  0.7851  1.0399
 5325TIP3   OH237465   6.590   2.555  12.642  0.1086 -0.1435 -0.6396
 5325TIP3    H137466   6.630   2.490  12.585 -1.8431 -2.1379  0.1935
 5325TIP3    H237467   6.516   2.590  12.591 -0.2761 -0.3081 -0.2024
 5326TIP3   OH237468   6.664   6.224   2.420  0.3238 -0.0116  0.1918
 5326TIP3    H137469   6.695   6.144   2.463  0.0477  1.2490  2.8251
 5326TIP3    H237470   6.578   6.241   2.459 -1.9555 -1.1313 -3.9532
 5327TIP3   OH237471   2.304   0.204  12.468  0.8779 -0.3003 -0.0130
 5327TIP3    H137472   2.333   0.136  12.530  3.4683 -0.2303 -1.0946
 5327TIP3    H237473   2.326   0.169  12.382 -0.0402  0.8714 -0.7330
 5328TIP3   OH237474   4.446   6.238  15.146  0.5035  0.4374  0.6438
 5328TIP3    H137475   4.415   6.327  15.160  1.1361  0.5031  1.6347
 5328TIP3    H237476   4.480   6.210  15.231 -1.0456 -1.2811  0.7201
 5329TIP3   OH237477   6.121   5.617   1.803 -0.5466  0.2485 -0.2868
 5329TIP3    H137478   6.171   5.610   1.722 -0.2771  3.9256 -0.5367
 5329TIP3    H237479   6.059   5.544   1.801  0.7344 -0.8025 -2.8621
 5330TIP3   OH237480   2.339   4.475  11.756  0.1115 -0.1651 -0.2847
 5330TIP3    H137481   2.290   4.552  11.786 -0.9042 -1.1839  0.7136
 5330TIP3    H237482   2.346   4.488  11.661 -0.1154  1.1197 -0.1422
 5331TIP3   OH237483   3.717   2.935  16.991 -0.1294  0.0790 -0.2284
 5331TIP3    H137484   3.732   2.947  17.085 -0.8986 -2.2624  0.2152
 5331TIP3    H237485   3.622   2.927  16.983 -0.1406  1.2071 -1.3340
 5332TIP3   OH237486   1.738   0.798   0.729 -0.0073 -0.0236  0.6370
 5332TIP3    H137487   1.753   0.870   0.667  1.8140 -1.6476 -0.8604
 5332TIP3    H237488   1.643   0.790   0.733 -0.2948  2.9307  1.4105
 5333TIP3   OH237489   4.198   6.032   0.335 -0.0839  0.5809  0.3745
 5333TIP3    H137490   4.277   5.983   0.313 -0.1852  0.3191  0.5847
 5333TIP3    H237491   4.168   6.068   0.251  0.4796  1.0202  0.3556
 5334TIP3   OH237492   3.508   0.364   2.710  0.2878  0.0950 -0.0726
 5334TIP3    H137493   3.501   0.328   2.621  0.0790 -1.3789  0.5282
 5334TIP3    H237494   3.585   0.321   2.747 -0.1461  0.0461  0.7702
 5335TIP3   OH237495   3.856   1.775  12.028 -0.4722 -0.1698 -0.2133
 5335TIP3    H137496   3.913   1.718  11.975  0.2842 -1.3823  1.8675
 5335TIP3    H237497   3.887   1.864  12.009 -0.8849 -0.4892 -2.5709
 5336TIP3   OH237498   2.648   3.452   4.489 -0.8181  0.6095  0.1660
 5336TIP3    H137499   2.705   3.526   4.507 -0.0814 -0.1347  0.9650
 5336TIP3    H237500   2.699   3.395   4.431 -0.7467 -0.0344  0.8429
 5337TIP3   OH237501   4.081   0.544  11.571  0.2125  0.2814  0.1222
 5337TIP3    H137502   4.090   0.605  11.498  1.4924 -1.3795 -1.1853
 5337TIP3    H237503   4.089   0.598  11.649  0.2713  1.9102 -0.9849
 5338TIP3   OH237504   6.257   5.593   1.553 -0.1373  0.0242  0.2249
 5338TIP3    H137505   6.259   5.614   1.459 -0.6410 -2.6304 -0.4204
 5338TIP3    H237506   6.329   5.644   1.590 -0.1336  1.3552 -1.5546
 5339TIP3   OH237507   1.605   2.951  14.024 -0.3160  0.4192  0.0894
 5339TIP3    H137508   1.514   2.926  14.009 -0.3309  0.3929  0.2254
 5339TIP3    H237509   1.648   2.871  14.053 -0.0793  0.2486 -0.7193
 5340TIP3   OH237510   3.535   3.279  10.573  0.8110 -0.3823  0.3576
 5340TIP3    H137511   3.604   3.302  10.634  0.8729  0.4708 -0.0287
 5340TIP3    H237512   3.581   3.254  10.493  0.7668 -2.3417  0.9218
 5341TIP3   OH237513   0.332   3.064   4.438  0.3470  0.1722  0.1119
 5341TIP3    H137514   0.376   3.106   4.364  2.0818 -0.7319  0.5949
 5341TIP3    H237515   0.284   2.991   4.399  0.6739  0.1359 -0.2292
 5342TIP3   OH237516   2.606   4.495   0.106  0.5825 -0.3818  0.5320
 5342TIP3    H137517   2.576   4.442   0.032  0.8744 -0.6878  0.6322
 5342TIP3    H237518   2.701   4.489   0.103  0.6570  0.9034 -0.0183
 5343TIP3   OH237519   0.291   5.369  16.838  0.0528 -0.1149  0.2666
 5343TIP3    H137520   0.211   5.362  16.890 -0.2418  0.5881 -0.0849
 5343TIP3    H237521   0.300   5.284  16.795 -1.2052  0.2307 -0.6968
 5344TIP3   OH237522   3.373   1.557   3.337  0.1259 -0.0575 -0.2231
 5344TIP3    H137523   3.433   1.493   3.374  1.2562  1.0410 -0.1152
 5344TIP3    H237524   3.286   1.519   3.350  0.8326 -2.1671 -1.3532
 5345TIP3   OH237525   3.908   2.429   5.152 -0.0217 -0.2612  0.0504
 5345TIP3    H137526   3.944   2.423   5.063 -1.3551  0.8633 -0.5831
 5345TIP3    H237527   3.855   2.509   5.151  0.7528  0.3073  2.1607
 5346TIP3   OH237528   6.185   5.371   3.739 -0.4372 -0.4159 -0.3336
 5346TIP3    H137529   6.205   5.313   3.666  0.0256 -2.3719  1.2867
 5346TIP3    H237530   6.204   5.459   3.706 -1.4454 -1.1260 -2.9388
 5347TIP3   OH237531   1.017   1.415  14.255  0.1079 -0.0127 -0.9042
 5347TIP3    H137532   1.040   1.344  14.315 -2.9337  0.4335  0.8512
 5347TIP3    H237533   1.077   1.486  14.278 -1.3101  0.3065  1.9390
 5348TIP3   OH237534   2.497   6.528  11.419  0.0726  0.0867 -0.1401
 5348TIP3    H137535   2.532   6.450  11.376  1.3404 -0.5226  1.9188
 5348TIP3    H237536   2.472   6.498  11.506  0.4236  1.9525  0.6249
 5349TIP3   OH237537   1.259   0.354  17.072  0.0399 -0.0106 -0.1569
 5349TIP3    H137538   1.202   0.285  17.106 -0.7158  0.5656 -0.2453
 5349TIP3    H237539   1.335   0.353  17.130  1.2190 -2.5955 -1.6408
 5350TIP3   OH237540   2.542   0.150  14.932 -0.1254 -0.0191  0.2083
 5350TIP3    H137541   2.585   0.218  14.984  1.2254 -1.1348  0.5724
 5350TIP3    H237542   2.552   0.070  14.984 -1.3952 -0.5785 -0.3736
 5351TIP3   OH237543   2.334   2.280   6.501  0.5338  0.3362 -0.0318
 5351TIP3    H137544   2.361   2.216   6.436 -1.9271 -0.5182 -0.2699
 5351TIP3    H237545   2.255   2.320   6.465  0.0348  0.9810  1.6941
 5352TIP3   OH237546   2.365   4.216  11.321 -0.1699  0.7084  0.2275
 5352TIP3    H137547   2.431   4.232  11.254  0.2420 -1.1813  0.1422
 5352TIP3    H237548   2.300   4.160  11.279  0.6187 -1.3623  1.6542
 5353TIP3   OH237549   2.932   1.771  16.318  0.0750 -0.4479 -0.4898
 5353TIP3    H137550   2.952   1.812  16.234  1.3719 -0.8441 -0.3950
 5353TIP3    H237551   2.947   1.841  16.382 -2.0683  0.1971 -0.6699
 5354TIP3   OH237552   4.500   2.659  11.560  0.2608  0.6984  1.0162
 5354TIP3    H137553   4.517   2.746  11.523  1.8350 -0.7894 -1.9270
 5354TIP3    H237554   4.581   2.635  11.604  0.2462  0.2630  0.8138
 5355TIP3   OH237555   0.543   4.994   0.025 -0.8344 -0.3344  0.3776
 5355TIP3    H137556   0.508   5.083   0.034 -0.9265 -0.1557 -1.5474
 5355TIP3    H237557   0.581   4.974   0.110 -0.0508  1.8804  0.5613
 5356TIP3   OH237558   5.100   4.683  11.331 -0.3731  0.3574 -0.0730
 5356TIP3    H137559   5.085   4.608  11.390  1.4100  0.9842  1.2245
 5356TIP3    H237560   5.170   4.733  11.374  0.9891  0.8186 -2.7594
 5357TIP3   OH237561   0.366   4.753   5.185 -0.9012 -0.4517  0.0156
 5357TIP3    H137562   0.301   4.683   5.177 -0.4839 -0.7731 -0.6245
 5357TIP3    H237563   0.343   4.814   5.115  0.9531 -1.7850 -1.8351
 5358TIP3   OH237564   3.280   3.250   0.485 -0.7522  0.1566 -0.3035
 5358TIP3    H137565   3.214   3.219   0.548 -1.0187 -0.3109 -0.8025
 5358TIP3    H237566   3.291   3.343   0.505  1.4188 -0.6135  2.4460
 5359TIP3   OH237567   6.286   0.446  12.378 -0.3764  0.6046  0.1639
 5359TIP3    H137568   6.375   0.412  12.373 -1.4254 -2.1574 -0.0870
 5359TIP3    H237569   6.249   0.430  12.292 -1.8002 -0.1727  0.9068
 5360TIP3   OH237570   4.415   5.378   1.801 -0.4637 -0.3972 -0.4625
 5360TIP3    H137571   4.385   5.342   1.885 -1.9481  3.4521  0.7663
 5360TIP3    H237572   4.395   5.310   1.737 -2.4163 -2.0739  1.8300
 5361TIP3   OH237573   2.818   5.504  16.924  0.4070 -0.8256 -1.0548
 5361TIP3    H137574   2.836   5.438  16.991 -0.0704 -1.0365 -1.1378
 5361TIP3    H237575   2.739   5.548  16.954  1.0517  0.1090 -0.7034
 5362TIP3   OH237576   4.979   6.747  12.075 -0.0318 -0.1805 -0.1195
 5362TIP3    H137577   4.963   6.658  12.046 -0.2415 -0.1784 -0.0204
 5362TIP3    H237578   5.073   6.752  12.091 -0.0821 -0.5068  0.2824
 5363TIP3   OH237579   1.705   1.266   4.739 -0.1677 -0.0197 -0.5878
 5363TIP3    H137580   1.669   1.355   4.747 -0.6869 -0.3245  0.5983
 5363TIP3    H237581   1.693   1.228   4.826  1.1550 -0.8414 -0.7599
 5364TIP3   OH237582   4.444   0.475  12.975  0.1006  0.1833  0.3062
 5364TIP3    H137583   4.422   0.520  13.056 -0.1253 -0.0495  0.3740
 5364TIP3    H237584   4.539   0.460  12.980  0.2272  0.9143  0.1491
 5365TIP3   OH237585   3.091   3.409   5.727 -0.4466  0.3338  0.0673
 5365TIP3    H137586   3.058   3.499   5.728  0.6942  0.8127 -1.5812
 5365TIP3    H237587   3.043   3.367   5.655  1.7837  0.7862 -1.7648
 5366TIP3   OH237588   1.424   6.401   3.924  0.3740 -0.5855  0.1721
 5366TIP3    H137589   1.432   6.386   3.830  1.0594 -0.0476  0.1440
 5366TIP3    H237590   1.346   6.456   3.933  0.1961 -0.7970 -0.0614
 5367TIP3   OH237591   5.479   0.328   5.319 -0.8235 -0.1620 -0.3745
 5367TIP3    H137592   5.400   0.375   5.345 -0.7672 -0.7035  0.7844
 5367TIP3    H237593   5.551   0.376   5.359 -0.7302 -0.9450  0.4193
 5368TIP3   OH237594   6.739   1.448  14.203 -0.8433  0.5658  0.0221
 5368TIP3    H137595   6.742   1.384  14.132 -0.7950  1.4190 -0.7528
 5368TIP3    H237596   6.826   1.489  14.202 -1.0031  0.9140  0.2597
 5369TIP3   OH237597   2.597   5.352  16.353  0.3317 -0.2110  0.4367
 5369TIP3    H137598   2.502   5.353  16.370  0.7092 -2.1765  3.0628
 5369TIP3    H237599   2.622   5.444  16.348 -1.8828  0.3271 -1.3122
 5370TIP3   OH237600   4.397   1.741  17.149 -0.1983 -0.7538 -0.2284
 5370TIP3    H137601   4.407   1.806  17.079 -1.2935  0.5609  0.8139
 5370TIP3    H237602   4.403   1.657  17.104  0.4340  0.0610 -1.7218
 5371TIP3   OH237603   2.749   6.142   4.704 -0.0255  0.2865  0.1651
 5371TIP3    H137604   2.791   6.227   4.707  0.8607 -0.1686  0.6985
 5371TIP3    H237605   2.763   6.105   4.791 -1.8044  0.2596  0.4570
 5372TIP3   OH237606   1.759   5.900  12.613 -0.0904 -0.3304 -0.4073
 5372TIP3    H137607   1.762   5.934  12.523  1.8671  0.4473 -0.0510
 5372TIP3    H237608   1.841   5.928  12.653  0.3378 -3.0334  0.7767
 5373TIP3   OH237609   2.922   1.483   4.412  0.1847 -0.1426 -0.1664
 5373TIP3    H137610   2.930   1.548   4.481  0.5250 -0.3157 -0.0440
 5373TIP3    H237611   2.878   1.530   4.340  0.0340  0.0968  0.0804
 5374TIP3   OH237612   4.891   0.497  16.912  0.1348  0.0083  0.3557
 5374TIP3    H137613   4.818   0.553  16.941  0.4567  0.3613  0.4918
 5374TIP3    H237614   4.968   0.554  16.917  0.1490  0.2035 -1.5540
 5375TIP3   OH237615   6.107   5.623   0.499 -0.0425  0.0214  0.3424
 5375TIP3    H137616   6.111   5.716   0.480  3.9529 -0.0617  0.2561
 5375TIP3    H237617   6.083   5.582   0.415  1.7393  0.7719 -0.5694
 5376TIP3   OH237618   0.506   6.355  14.666 -0.2102 -0.3329  0.3588
 5376TIP3    H137619   0.542   6.405  14.740 -2.6276  0.6556  0.9305
 5376TIP3    H237620   0.581   6.309  14.629  1.2783  0.1611  2.6555
 5377TIP3   OH237621   2.661   5.927  11.196  0.3703  0.2960 -0.1249
 5377TIP3    H137622   2.668   5.977  11.115 -0.2679  0.0768 -0.3195
 5377TIP3    H237623   2.723   5.969  11.256 -0.9929  2.0619  0.0955
 5378TIP3   OH237624   4.669   0.277  12.812  0.2424 -0.6590  0.3648
 5378TIP3    H137625   4.655   0.281  12.906 -1.2085  0.6601  0.1195
 5378TIP3    H237626   4.756   0.313  12.798  0.6679 -1.3550  1.2514
 5379TIP3   OH237627   4.154   0.152  15.389 -0.8062 -0.4164  0.0572
 5379TIP3    H137628   4.136   0.240  15.356 -1.7963  0.0231  1.7159
 5379TIP3    H237629   4.106   0.147  15.471  0.8354 -1.8266  0.9583
 5380TIP3   OH237630   1.942   1.664   6.611  0.0337  0.0436 -0.2562
 5380TIP3    H137631   2.025   1.637   6.574  0.4280  0.0458  0.6088
 5380TIP3    H237632   1.881   1.593   6.590  0.9239 -1.2725  1.4953
 5381TIP3   OH237633   1.602   1.435  12.631 -1.0846  0.7107  0.4085
 5381TIP3    H137634   1.609   1.343  12.655 -0.6531  0.3056 -1.2160
 5381TIP3    H237635   1.593   1.481  12.715  0.8734 -0.5941  1.3738
 5382TIP3   OH237636   5.102   3.445  17.249  0.2092  0.2612  0.7297
 5382TIP3    H137637   5.129   3.488  17.329 -2.1595  0.4456  1.4745
 5382TIP3    H237638   5.016   3.482  17.229 -1.3732 -3.1890  0.7508
 5383TIP3   OH237639   5.977   1.819   6.083 -0.4315  0.2395 -0.0298
 5383TIP3    H137640   5.983   1.749   6.148 -2.0644  0.7634  0.7088
 5383TIP3    H237641   6.066   1.852   6.074  0.1168 -1.0381  0.6111
 5384TIP3   OH237642   2.264   1.251   3.223 -0.5341 -0.2706  0.2035
 5384TIP3    H137643   2.357   1.275   3.219 -0.5873  0.8062  3.8507
 5384TIP3    H237644   2.260   1.166   3.180  2.2437 -0.5773  0.4272
 5385TIP3   OH237645   6.588   3.775   2.298  0.1611 -0.3484  0.0588
 5385TIP3    H137646   6.633   3.721   2.363  1.2126  0.1821 -0.2026
 5385TIP3    H237647   6.655   3.837   2.269 -1.3182  1.8075  1.1370
 5386TIP3   OH237648   4.733   6.471   4.381 -0.0691 -0.5490  0.0336
 5386TIP3    H137649   4.685   6.540   4.336 -0.2260 -0.5575  0.1865
 5386TIP3    H237650   4.700   6.390   4.343 -0.0608 -0.5485  0.0247
 5387TIP3   OH237651   4.723   1.633   2.953 -0.1370  0.1875 -0.2182
 5387TIP3    H137652   4.810   1.648   2.916  0.0061 -0.3449 -0.0980
 5387TIP3    H237653   4.682   1.719   2.953 -0.1020  0.2130 -1.5407
 5388TIP3   OH237654   0.919   3.020  12.114  0.1508  0.2469 -0.1327
 5388TIP3    H137655   0.861   3.052  12.045 -0.8433 -2.5075 -0.6140
 5388TIP3    H237656   0.982   2.964  12.069  1.0492  0.4396  0.8695
 5389TIP3   OH237657   4.576   1.740  15.987 -0.4916  0.4403  0.4239
 5389TIP3    H137658   4.598   1.814  16.043 -2.0755  0.8424  0.5367
 5389TIP3    H237659   4.620   1.757  15.904 -3.4759  3.2038 -0.6962
 5390TIP3   OH237660   2.078   4.244  16.794 -0.2669 -0.3009  0.2736
 5390TIP3    H137661   2.056   4.202  16.878  2.2663 -1.6452  0.3170
 5390TIP3    H237662   2.167   4.214  16.775 -0.5597  0.5061 -2.5946
 5391TIP3   OH237663   5.569   3.784  14.530 -0.1543  0.2515 -0.6009
 5391TIP3    H137664   5.636   3.716  14.526 -0.3449  0.0833 -1.0184
 5391TIP3    H237665   5.566   3.820  14.441  2.0981  2.9184  0.3547
 5392TIP3   OH237666   3.120   1.877  17.180 -0.0046 -0.4083  0.1788
 5392TIP3    H137667   3.144   1.843  17.094 -0.6786 -1.1090  0.2566
 5392TIP3    H237668   3.191   1.936  17.204 -0.7696  1.3398 -1.7428
 5393TIP3   OH237669   4.906   6.778   4.415  0.1862 -0.3815  0.4579
 5393TIP3    H137670   4.984   6.814   4.373 -1.4047  0.2735 -2.0581
 5393TIP3    H237671   4.917   6.800   4.508  0.8272  3.8816 -0.5031
 5394TIP3   OH237672   2.586   0.477   0.362  0.6361  0.2491 -0.0650
 5394TIP3    H137673   2.559   0.421   0.435  0.3384  2.6327  1.7288
 5394TIP3    H237674   2.681   0.463   0.355  0.8846  0.9388  1.6428
 5395TIP3   OH237675   6.182   6.034   1.616 -0.4847 -0.2841 -0.2817
 5395TIP3    H137676   6.233   6.112   1.640 -1.6806  0.2896  0.4749
 5395TIP3    H237677   6.206   5.969   1.682 -1.1807  0.1898  0.4596
 5396TIP3   OH237678   5.351   1.630   1.816  0.0375  0.0802  0.2933
 5396TIP3    H137679   5.265   1.601   1.847  0.4045 -1.3959  0.0020
 5396TIP3    H237680   5.369   1.574   1.740  0.5624  1.4590 -0.6106
 5397TIP3   OH237681   6.041   6.782  13.045 -0.0072 -0.1298 -0.4980
 5397TIP3    H137682   6.118   6.742  13.086 -0.9909  0.2908  1.8256
 5397TIP3    H237683   6.065   6.874  13.034  0.6465 -0.4489 -1.8802
 5398TIP3   OH237684   1.324   5.277  14.542  0.0980 -0.1810 -0.1222
 5398TIP3    H137685   1.335   5.372  14.534 -0.5282 -0.0928  0.0100
 5398TIP3    H237686   1.399   5.248  14.594  0.1971  0.2650 -0.0144
 5399TIP3   OH237687   4.152   3.592   4.461 -0.5500  1.0061  0.8145
 5399TIP3    H137688   4.066   3.551   4.466 -0.6413  1.2398  1.1521
 5399TIP3    H237689   4.212   3.518   4.448 -0.9203  0.9525 -0.7042
 5400TIP3   OH237690   2.360   0.867  13.543  0.6245 -0.1354 -1.0402
 5400TIP3    H137691   2.432   0.893  13.600  0.1162 -0.9390 -0.0035
 5400TIP3    H237692   2.402   0.813  13.475  0.9204 -1.2480 -0.0042
 5401TIP3   OH237693   4.925   5.123  11.625  0.1861 -0.3278  0.0308
 5401TIP3    H137694   5.002   5.148  11.575 -0.1358  0.3888 -0.1089
 5401TIP3    H237695   4.879   5.205  11.642  0.3492 -0.5558  1.5965
 5402TIP3   OH237696   5.113   3.669   5.937  0.6241  0.0213  0.0719
 5402TIP3    H137697   5.104   3.630   5.850  0.0242 -0.1901  0.2274
 5402TIP3    H237698   5.107   3.595   5.997  2.9125 -0.0831  0.2216
 5403TIP3   OH237699   0.938   3.827   2.134 -0.1065  0.2898 -0.4559
 5403TIP3    H137700   0.991   3.889   2.085  0.4904  0.7900  0.8142
 5403TIP3    H237701   0.882   3.881   2.189  0.8033 -0.2747  1.0650
 5404TIP3   OH237702   2.267   0.718  15.992  0.0506 -0.2800  0.1911
 5404TIP3    H137703   2.193   0.776  15.974  0.5816  0.1630 -0.5858
 5404TIP3    H237704   2.227   0.634  16.014 -0.7190  0.3244  1.1446
 5405TIP3   OH237705   5.840   2.291  10.971 -0.2250  0.4783  0.0174
 5405TIP3    H137706   5.774   2.248  10.917  1.0351  1.5619 -2.4735
 5405TIP3    H237707   5.900   2.331  10.908  3.0122 -0.7516  2.2206
 5406TIP3   OH237708   1.444   0.729   2.008 -0.2602  0.3735 -0.0215
 5406TIP3    H137709   1.465   0.705   2.098 -2.5788 -0.9879  0.1920
 5406TIP3    H237710   1.485   0.661   1.955 -0.6359  0.0156  0.1433
 5407TIP3   OH237711   1.455   5.938   5.640 -0.0481 -0.0350 -0.1490
 5407TIP3    H137712   1.481   5.983   5.720  2.1618  0.6982 -1.2429
 5407TIP3    H237713   1.442   6.007   5.576  0.3429 -0.7452 -1.0071
 5408TIP3   OH237714   1.441   1.749   1.023  0.2218 -0.3048  0.0222
 5408TIP3    H137715   1.484   1.664   1.030 -0.7788 -0.7723  0.6018
 5408TIP3    H237716   1.513   1.813   1.029  0.7494 -1.0489  1.8369
 5409TIP3   OH237717   5.715   0.880   3.487 -0.4756 -0.0471  0.6324
 5409TIP3    H137718   5.737   0.805   3.431  0.1927  0.6622 -0.0634
 5409TIP3    H237719   5.689   0.949   3.426  1.8958  1.2937  1.0832
 5410TIP3   OH237720   5.832   1.284  17.191 -0.0756 -0.0848  0.1313
 5410TIP3    H137721   5.739   1.302  17.172 -0.2084 -0.5813  0.3112
 5410TIP3    H237722   5.841   1.190  17.179  0.3900 -0.0480  0.2018
 5411TIP3   OH237723   3.496   2.327  15.829  0.0257 -0.1153 -0.0052
 5411TIP3    H137724   3.503   2.328  15.734 -1.2450  0.6616 -0.1091
 5411TIP3    H237725   3.543   2.248  15.856  2.0338  0.6693 -1.1147
 5412TIP3   OH237726   0.392   0.607   1.757  0.3345 -0.0280 -0.2263
 5412TIP3    H137727   0.485   0.608   1.735  0.4879 -0.4838  0.4144
 5412TIP3    H237728   0.381   0.681   1.817  0.1679  0.3970 -0.7788
 5413TIP3   OH237729   1.484   5.797   0.569 -0.0160  0.7524  0.0314
 5413TIP3    H137730   1.568   5.842   0.570  0.1518  0.4970 -2.0244
 5413TIP3    H237731   1.419   5.867   0.577  0.3603  0.9651  1.4106
 5414TIP3   OH237732   4.676   3.523  14.340  0.5245  0.2499 -0.7582
 5414TIP3    H137733   4.729   3.583  14.394 -0.8886  0.5945  0.2876
 5414TIP3    H237734   4.730   3.506  14.263  2.0599  0.7680  0.1791
 5415TIP3   OH237735   2.242   3.049   0.583  0.0900  0.4668  0.0252
 5415TIP3    H137736   2.309   3.116   0.568  0.1477  0.3733 -0.1296
 5415TIP3    H237737   2.166   3.099   0.615  0.8508  0.3635  2.0773
 5416TIP3   OH237738   4.518   4.099   4.469  0.6798  0.3394 -0.4737
 5416TIP3    H137739   4.428   4.076   4.449  0.9761 -3.6322  2.1428
 5416TIP3    H237740   4.568   4.072   4.392  0.1344 -1.5771 -0.1829
 5417TIP3   OH237741   2.468   3.917   1.885 -0.1305 -0.4010  0.0841
 5417TIP3    H137742   2.398   3.950   1.828  0.7415  0.7083 -0.3526
 5417TIP3    H237743   2.474   3.823   1.863 -1.4203 -0.4839  0.0700
 5418TIP3   OH237744   5.019   3.819   0.454 -0.0006 -0.0055 -0.3673
 5418TIP3    H137745   4.959   3.791   0.523  1.0623 -1.2755  0.0601
 5418TIP3    H237746   4.993   3.909   0.434 -0.7524  0.1313  1.1911
 5419TIP3   OH237747   1.094   4.191   5.568  0.0669 -0.3680 -0.1651
 5419TIP3    H137748   1.152   4.180   5.493 -1.5304  2.4399 -1.9000
 5419TIP3    H237749   1.006   4.185   5.532 -0.7644  3.6577  0.9716
 5420TIP3   OH237750   6.233   6.713   0.560  0.4693  0.1349 -0.1105
 5420TIP3    H137751   6.159   6.768   0.535 -1.5513 -3.4293 -2.3268
 5420TIP3    H237752   6.213   6.683   0.649  1.2496  2.2674  0.8357
 5421TIP3   OH237753   4.651   6.554  15.284 -0.1760 -0.1216  0.5463
 5421TIP3    H137754   4.604   6.596  15.212 -0.7887 -0.4386  0.7582
 5421TIP3    H237755   4.720   6.617  15.307  0.8201 -0.5809 -1.1496
 5422TIP3   OH237756   1.904   1.016   4.230 -0.0470 -0.5569  0.3881
 5422TIP3    H137757   1.988   1.001   4.185 -0.3724  0.2545 -0.5179
 5422TIP3    H237758   1.877   0.930   4.261  0.3394 -1.0839 -0.7294
 5423TIP3   OH237759   0.457   3.848   5.137 -0.7727  0.1272 -0.4266
 5423TIP3    H137760   0.393   3.918   5.123 -1.6162 -0.4545  0.4148
 5423TIP3    H237761   0.449   3.827   5.230  1.2042  0.5748 -0.1368
 5424TIP3   OH237762   2.622   1.201   1.232 -0.2901  0.5680 -0.1678
 5424TIP3    H137763   2.655   1.291   1.237  1.2623 -0.0941  3.0081
 5424TIP3    H237764   2.683   1.157   1.174 -1.0903  1.5205 -1.7928
 5425TIP3   OH237765   6.100   0.053  15.462  0.3625 -0.1904  0.2261
 5425TIP3    H137766   6.106  -0.042  15.455 -0.0200 -0.1095 -1.5196
 5425TIP3    H237767   6.006   0.071  15.459  0.3535  0.1550  2.0881
 5426TIP3   OH237768   0.311   2.520   1.263  0.2673 -0.8517 -0.5224
 5426TIP3    H137769   0.323   2.429   1.290 -0.8588 -0.7572  0.3419
 5426TIP3    H237770   0.231   2.519   1.210 -0.2732 -0.2209  0.2670
 5427TIP3   OH237771   0.180   2.071  14.373  0.4419  0.5864 -0.2239
 5427TIP3    H137772   0.103   2.121  14.399 -0.8823 -1.6721  0.3266
 5427TIP3    H237773   0.234   2.066  14.452 -1.0175 -1.6699  0.6663
 5428TIP3   OH237774   0.969   4.897  14.737  0.2609 -0.1796 -0.0423
 5428TIP3    H137775   0.965   4.965  14.805 -1.2609  0.0232 -0.3185
 5428TIP3    H237776   1.022   4.827  14.776 -0.4191  0.0265  1.2866
 5429TIP3   OH237777   1.127   2.534   2.688  0.2872 -0.0504  0.1850
 5429TIP3    H137778   1.122   2.630   2.680  2.3922  0.0719 -0.0231
 5429TIP3    H237779   1.202   2.519   2.746 -0.8370 -1.5563  1.2877
 5430TIP3   OH237780   4.510   6.626  12.631 -0.1050  0.4631  0.5041
 5430TIP3    H137781   4.486   6.716  12.607 -0.7174  0.0806 -0.3131
 5430TIP3    H237782   4.532   6.584  12.549 -3.1961 -1.1488  0.4422
 5431TIP3   OH237783   1.406   6.215   1.240 -0.6616  0.5883 -1.0665
 5431TIP3    H137784   1.433   6.292   1.291 -1.2518 -0.3288  0.6538
 5431TIP3    H237785   1.473   6.207   1.172  0.3215  1.6541 -0.2471
 5432TIP3   OH237786   6.451   3.941  11.823 -0.3951 -0.3240 -0.3612
 5432TIP3    H137787   6.373   3.975  11.780 -0.7700 -0.8024 -0.0474
 5432TIP3    H237788   6.436   3.847  11.831  1.4929 -0.9240 -3.0330
 5433TIP3   OH237789   3.005   4.430   5.718  0.1400  0.5371  0.3612
 5433TIP3    H137790   3.049   4.368   5.660  0.2580  1.8770 -0.9871
 5433TIP3    H237791   2.958   4.490   5.660 -1.1732  0.8428  1.6968
 5434TIP3   OH237792   1.098   4.406   5.008  0.4300  0.1621  0.0482
 5434TIP3    H137793   1.063   4.318   4.992 -0.4076  0.2690  1.2754
 5434TIP3    H237794   1.174   4.391   5.065  0.2737  0.2488  0.2748
 5435TIP3   OH237795   1.985   1.362  17.244  0.1338  0.4838  0.7378
 5435TIP3    H137796   2.020   1.344  17.331 -0.2883 -2.7838  0.3061
 5435TIP3    H237797   2.059   1.344  17.185 -0.9847 -2.4677  0.1219
 5436TIP3   OH237798   2.022   0.652   2.883  0.1947  0.0322 -0.0632
 5436TIP3    H137799   2.026   0.666   2.788 -1.6501 -0.6563 -0.2628
 5436TIP3    H237800   1.960   0.719   2.914  1.8539  1.1623  0.8530
 5437TIP3   OH237801   1.125   3.253  15.328 -0.3962 -0.0937 -0.7705
 5437TIP3    H137802   1.182   3.244  15.251  1.2842  0.9454  0.3064
 5437TIP3    H237803   1.163   3.326  15.377  0.9502 -3.1352  2.9840
 5438TIP3   OH237804   4.928   1.339  13.227  0.0084  0.1257 -0.0659
 5438TIP3    H137805   4.938   1.425  13.267  0.9642 -0.1838  0.3671
 5438TIP3    H237806   5.012   1.322  13.185 -0.2785 -0.4663 -0.4127
 5439TIP3   OH237807   2.480   1.797  11.465  0.0686  0.2452  0.1779
 5439TIP3    H137808   2.548   1.862  11.453 -0.0226  0.3886  0.4347
 5439TIP3    H237809   2.451   1.808  11.556 -0.3627  0.2520  0.0404
 5440TIP3   OH237810   1.885   1.938  13.637 -0.6540 -0.3469  0.0483
 5440TIP3    H137811   1.817   1.874  13.615 -1.8703  0.5043  1.1784
 5440TIP3    H237812   1.960   1.914  13.583 -2.9189  0.6737 -3.6908
 5441TIP3   OH237813   1.922   6.560   1.136  0.0912  0.4962 -0.0061
 5441TIP3    H137814   1.892   6.630   1.077 -0.5971 -0.1019 -0.3862
 5441TIP3    H237815   1.952   6.491   1.077 -0.8858 -0.2285  0.3360
 5442TIP3   OH237816   5.419   4.364   5.049  1.0187 -0.0002  0.0607
 5442TIP3    H137817   5.409   4.458   5.061 -0.3410  0.0200 -1.1390
 5442TIP3    H237818   5.378   4.345   4.964 -1.1196 -2.0415  1.4693
 5443TIP3   OH237819   6.423   3.367  10.817  0.4118 -0.0693  0.0976
 5443TIP3    H137820   6.516   3.387  10.821  0.5753 -0.9831  1.1086
 5443TIP3    H237821   6.380   3.446  10.851  0.9512 -0.5555  1.9786
 5444TIP3   OH237822   0.389   3.866   0.811 -0.2830  0.3974 -0.4026
 5444TIP3    H137823   0.351   3.796   0.863 -1.0658  0.0061 -1.4733
 5444TIP3    H237824   0.483   3.849   0.811 -0.3799 -0.1402  0.0722
 5445TIP3   OH237825   5.878   5.496   0.022 -0.1503  0.2718 -0.0277
 5445TIP3    H137826   5.803   5.476  -0.034  1.2533  0.0936 -1.8921
 5445TIP3    H237827   5.843   5.492   0.111 -2.1144 -0.8481 -0.8101
 5446TIP3   OH237828   1.010   6.191   0.937  0.5635 -0.5257 -0.2593
 5446TIP3    H137829   0.950   6.192   0.863 -0.3845  0.2557  0.5098
 5446TIP3    H237830   1.012   6.099   0.964  0.3273 -0.6888 -0.7886
 5447TIP3   OH237831   6.697   0.786   1.844  0.1169 -0.1251 -0.0393
 5447TIP3    H137832   6.667   0.860   1.791 -0.0331  1.1432  1.7507
 5447TIP3    H237833   6.760   0.740   1.788  1.3158  2.2018 -0.6744
 5448TIP3   OH237834   3.346   1.788   5.430 -0.5719  0.4557  0.3266
 5448TIP3    H137835   3.261   1.803   5.388 -0.4132  1.9769  0.5189
 5448TIP3    H237836   3.403   1.856   5.394  0.6193 -0.6678  0.0696
 5449TIP3   OH237837   5.270   6.717  16.243  0.6469  0.4838  0.0282
 5449TIP3    H137838   5.212   6.769  16.297 -0.7131 -0.1306 -0.8198
 5449TIP3    H237839   5.234   6.723  16.154  0.7894 -1.3823 -0.1923
 5450TIP3   OH237840   5.344   1.931   3.231 -0.3968 -0.4730  0.0462
 5450TIP3    H137841   5.422   1.887   3.266  2.3438  2.5839 -1.8919
 5450TIP3    H237842   5.326   2.001   3.294  0.3618  0.7579 -1.0781
 5451TIP3   OH237843   0.995   3.843  13.706 -0.3223  0.0232 -0.0253
 5451TIP3    H137844   1.057   3.913  13.728 -2.1651  1.3222  1.2393
 5451TIP3    H237845   0.986   3.847  13.611 -0.2339  1.3569  0.0192
 5452TIP3   OH237846   3.939   2.139  14.369  0.2335  0.0219 -0.1709
 5452TIP3    H137847   3.955   2.046  14.386  0.1375  0.1618  0.7480
 5452TIP3    H237848   3.878   2.165  14.438 -0.4281  0.5608 -0.9600
 5453TIP3   OH237849   0.948   4.213  13.324 -0.0812 -0.0776  0.0140
 5453TIP3    H137850   0.987   4.296  13.298 -2.2553  0.0883 -3.0150
 5453TIP3    H237851   0.860   4.236  13.354  0.3361 -0.9959  2.1028
 5454TIP3   OH237852   0.761   5.013  12.548 -0.1858 -0.3305  0.1070
 5454TIP3    H137853   0.834   5.037  12.606  0.0410 -0.2148 -0.2281
 5454TIP3    H237854   0.786   4.928  12.512 -0.0266 -0.1017 -0.3249
 5455TIP3   OH237855   2.397   5.307   4.889 -0.1893  0.1850 -0.0459
 5455TIP3    H137856   2.353   5.257   4.821 -0.8388  0.3713  0.2299
 5455TIP3    H237857   2.345   5.292   4.968 -0.5171  1.4495 -0.0071
 5456TIP3   OH237858   0.783   2.111   2.438 -0.0597  0.5077  0.3729
 5456TIP3    H137859   0.788   2.109   2.342  3.4461 -1.2800  0.5186
 5456TIP3    H237860   0.819   2.197   2.462 -0.5193  0.7725  0.1246
 5457TIP3   OH237861   6.602   3.763  14.838  0.0673  0.0130 -0.5442
 5457TIP3    H137862   6.597   3.698  14.769 -3.3078 -0.3564 -0.0837
 5457TIP3    H237863   6.584   3.846  14.795  1.4472  0.2532 -0.6625
 5458TIP3   OH237864   4.862   6.024  15.158 -0.0845 -0.8305  0.5100
 5458TIP3    H137865   4.803   6.027  15.083 -1.4756  0.2642  1.6141
 5458TIP3    H237866   4.930   6.088  15.137  0.1131 -1.2909 -0.2744
 5459TIP3   OH237867   5.459   4.945   0.922 -0.1867 -0.1332 -0.5987
 5459TIP3    H137868   5.393   4.914   0.984 -0.0046  1.9965  0.7258
 5459TIP3    H237869   5.506   4.867   0.895 -1.0571 -1.2509  1.0505
 5460TIP3   OH237870   4.760   1.131  11.438  0.8154  0.5335 -0.1124
 5460TIP3    H137871   4.752   1.047  11.393 -0.0335  0.9078 -0.6751
 5460TIP3    H237872   4.854   1.148  11.441  1.0777 -1.0050  1.0710
 5461TIP3   OH237873   6.673   0.531   3.106  0.3465 -0.0279 -0.6349
 5461TIP3    H137874   6.695   0.620   3.132  0.7850 -0.7267  1.4764
 5461TIP3    H237875   6.591   0.512   3.150  0.7897 -1.0264 -0.2181
 5462TIP3   OH237876   3.726   3.266   1.756  0.1842  0.0224  0.3933
 5462TIP3    H137877   3.678   3.265   1.839 -1.7160 -1.2452 -0.6707
 5462TIP3    H237878   3.777   3.185   1.757  0.3981  0.1574  0.4538
 5463TIP3   OH237879   1.483   6.033  11.195 -0.4307 -0.2532  0.6012
 5463TIP3    H137880   1.477   6.047  11.290  1.0811 -0.7895  0.7961
 5463TIP3    H237881   1.577   6.025  11.178 -0.5824  1.5061 -1.2043
 5464TIP3   OH237882   3.453   6.121  12.616 -0.2408  0.1557  0.5035
 5464TIP3    H137883   3.465   6.047  12.675 -2.3628  2.1073  3.5609
 5464TIP3    H237884   3.485   6.090  12.532  0.9425 -3.4716  2.1650
 5465TIP3   OH237885   5.468   2.997   4.848  0.5435 -0.1935  0.1128
 5465TIP3    H137886   5.442   3.028   4.761 -1.1675 -1.2792  0.2208
 5465TIP3    H237887   5.387   2.965   4.888  1.6330 -1.4545  1.3858
 5466TIP3   OH237888   5.743   2.187   4.186  0.5899 -0.8582 -0.1018
 5466TIP3    H137889   5.824   2.183   4.136  0.4709 -3.5918 -0.1765
 5466TIP3    H237890   5.677   2.152   4.127 -0.6090  1.0583  0.0723
 5467TIP3   OH237891   0.512   3.746  15.953 -0.2144 -0.5948  0.4032
 5467TIP3    H137892   0.578   3.696  15.906 -0.2120 -1.3996  1.2435
 5467TIP3    H237893   0.514   3.833  15.912 -0.0809 -1.2199 -0.9298
 5468TIP3   OH237894   4.515   6.638   4.754 -0.0211 -0.0225 -0.5247
 5468TIP3    H137895   4.452   6.705   4.728  1.4151  1.2953 -0.7046
 5468TIP3    H237896   4.558   6.612   4.672  0.3139 -0.2277 -0.2863
 5469TIP3   OH237897   5.937   0.469  13.979 -0.7106  0.6891  0.4567
 5469TIP3    H137898   5.927   0.398  14.042 -1.7634 -1.6827 -2.2611
 5469TIP3    H237899   6.031   0.475  13.964 -0.6914 -0.8198 -0.0524
 5470TIP3   OH237900   4.870   1.417  13.700 -0.6988 -0.1443 -0.2217
 5470TIP3    H137901   4.823   1.466  13.633  1.1917  0.9838 -0.7739
 5470TIP3    H237902   4.880   1.329  13.664 -1.9233 -0.2580 -0.3006
 5471TIP3   OH237903   5.800   2.521  15.824 -0.3413 -0.5744  0.0527
 5471TIP3    H137904   5.878   2.496  15.775 -0.3483  0.1189 -0.3193
 5471TIP3    H237905   5.810   2.477  15.909  1.0584  0.4890  0.4583
 5472TIP3   OH237906   2.040   4.548  10.875 -0.2118  0.3733  0.4624
 5472TIP3    H137907   1.950   4.577  10.886 -0.2755  1.6295 -2.9922
 5472TIP3    H237908   2.083   4.619  10.828  1.8889 -1.3711 -0.3298
 5473TIP3   OH237909   6.276   0.270  14.734  0.0588 -0.2104  0.1507
 5473TIP3    H137910   6.258   0.318  14.653  0.4442 -0.0075  0.1875
 5473TIP3    H237911   6.362   0.231  14.720  0.8462  1.1707  1.1137
 5474TIP3   OH237912   4.307   6.693   3.044  0.2547 -0.4040  0.5315
 5474TIP3    H137913   4.387   6.668   2.999  1.3438 -0.7206  2.6024
 5474TIP3    H237914   4.274   6.611   3.083 -0.7904 -0.1813  0.1440
 5475TIP3   OH237915   2.255   3.542   6.119  0.7965  0.3585  0.2813
 5475TIP3    H137916   2.240   3.616   6.060 -1.1766 -0.1165  0.1356
 5475TIP3    H237917   2.176   3.537   6.172 -0.0627 -2.9058 -1.1401
 5476TIP3   OH237918   0.073   2.895   4.506 -0.3712 -0.0470 -0.1548
 5476TIP3    H137919   0.124   2.830   4.457 -2.1993 -0.5787 -1.4229
 5476TIP3    H237920   0.003   2.921   4.446  0.4599  3.3185  0.2383
 5477TIP3   OH237921   4.654   4.652   5.534 -0.4071 -0.2214 -0.6244
 5477TIP3    H137922   4.658   4.746   5.521  2.3857 -0.1850  0.2654
 5477TIP3    H237923   4.680   4.639   5.626 -0.4841 -1.8703 -0.8074
 5478TIP3   OH237924   5.243   3.729  14.846  0.0793 -0.0176 -0.0850
 5478TIP3    H137925   5.214   3.638  14.839  0.2907 -0.0352 -0.7761
 5478TIP3    H237926   5.308   3.739  14.776 -0.1096  0.7261 -0.1592
 5479TIP3   OH237927   4.219   4.136   5.000 -0.1657  0.2001 -0.3756
 5479TIP3    H137928   4.237   4.164   4.910 -2.0319 -2.0419 -1.4703
 5479TIP3    H237929   4.130   4.168   5.018 -0.7958 -1.5864 -0.2560
 5480TIP3   OH237930   5.095   3.934  14.705  0.3174 -0.3898  0.2408
 5480TIP3    H137931   5.072   3.872  14.774  1.2887  1.2447  2.0602
 5480TIP3    H237932   5.188   3.953  14.719 -0.2188  2.2930  0.3771
 5481TIP3   OH237933   3.323   6.203   1.211  0.4465  0.2627 -0.0387
 5481TIP3    H137934   3.239   6.161   1.195  0.2269  0.4826  0.5279
 5481TIP3    H237935   3.322   6.225   1.304  1.1089  0.3129 -0.0395
 5482TIP3   OH237936   1.594   4.339   3.454  0.5211  0.1255 -0.1557
 5482TIP3    H137937   1.611   4.252   3.419  1.4392  0.5071 -0.6800
 5482TIP3    H237938   1.506   4.333   3.491  0.7981 -1.1819  0.3210
 5483TIP3   OH237939   4.191   6.225  12.050 -0.7726  0.3514  0.2574
 5483TIP3    H137940   4.184   6.254  11.959  1.5648 -0.1597 -0.1142
 5483TIP3    H237941   4.202   6.305  12.101 -0.1059  0.5085 -0.1345
 5484TIP3   OH237942   1.690   1.350   4.280  0.0228 -0.3113 -0.4901
 5484TIP3    H137943   1.719   1.329   4.369  0.7882 -1.0904 -0.9124
 5484TIP3    H237944   1.665   1.442   4.283  3.2921  0.6274 -0.2889
 5485TIP3   OH237945   0.643   0.815   0.429  0.2824  0.1123 -0.5567
 5485TIP3    H137946   0.582   0.823   0.357  0.1011  0.3064 -0.3818
 5485TIP3    H237947   0.641   0.723   0.453  1.0591 -0.1403 -1.4238
 5486TIP3   OH237948   0.175   2.055   3.622 -0.3619  0.7523 -0.2642
 5486TIP3    H137949   0.154   2.106   3.701  1.3121 -2.6635  2.5282
 5486TIP3    H237950   0.251   2.099   3.585  0.3513  1.0023  1.4477
 5487TIP3   OH237951   1.968   6.532  14.709 -0.8664 -0.9683  0.0322
 5487TIP3    H137952   1.968   6.446  14.750  0.1599 -0.3277  1.4104
 5487TIP3    H237953   2.055   6.539  14.668 -1.1580 -0.8064 -0.5701
 5488TIP3   OH237954   3.846   2.597  14.194  0.3012 -1.0102 -0.8120
 5488TIP3    H137955   3.899   2.645  14.257 -0.7340  0.6225 -1.1430
 5488TIP3    H237956   3.883   2.509  14.192  2.6980 -0.0309 -0.7104
 5489TIP3   OH237957   6.678   0.478   2.845 -0.2957 -0.2072 -0.1896
 5489TIP3    H137958   6.663   0.384   2.846 -1.0151 -0.0899  0.6086
 5489TIP3    H237959   6.692   0.501   2.937  1.9548  0.1476 -0.5690
 5490TIP3   OH237960   2.471   3.618  12.461 -0.5580 -0.7880  0.2249
 5490TIP3    H137961   2.490   3.531  12.427 -1.2656 -0.5854 -0.7031
 5490TIP3    H237962   2.376   3.628  12.451 -0.6726 -0.4285  1.5604
 5491TIP3   OH237963   5.099   0.755   1.514 -0.1086  0.3617  0.3819
 5491TIP3    H137964   5.056   0.774   1.597  0.2338 -0.4691  0.7462
 5491TIP3    H237965   5.137   0.839   1.488  0.8588  0.3331  1.6792
 5492TIP3   OH237966   6.098   2.741   2.356  0.5372 -0.5912  0.1596
 5492TIP3    H137967   6.050   2.795   2.419  0.1923 -1.1686  0.4072
 5492TIP3    H237968   6.051   2.753   2.274  0.3310 -0.6784  0.2633
 5493TIP3   OH237969   5.354   6.820  15.101  0.9774  0.1686 -0.1590
 5493TIP3    H137970   5.366   6.914  15.087  2.8397 -0.2610 -1.7533
 5493TIP3    H237971   5.296   6.793  15.029  0.3961  0.1033  0.3317
 5494TIP3   OH237972   2.260   5.238  17.159 -0.3581  0.2178  0.2288
 5494TIP3    H137973   2.303   5.307  17.108 -1.6901  0.1336 -1.0379
 5494TIP3    H237974   2.330   5.178  17.183  0.3534  0.4964 -1.1289
 5495TIP3   OH237975   6.336   2.706   5.168 -0.3798  0.3194  0.2883
 5495TIP3    H137976   6.341   2.616   5.137  0.6045  0.1457  0.9144
 5495TIP3    H237977   6.410   2.715   5.229 -1.9291  0.7898  2.1687
 5496TIP3   OH237978   4.597   6.227  14.415  0.5074 -0.5448 -0.1026
 5496TIP3    H137979   4.542   6.238  14.493  1.3680  1.9066  0.2158
 5496TIP3    H237980   4.536   6.205  14.345 -0.5891 -0.1428  0.7121
 5497TIP3   OH237981   6.004   1.020   0.197  0.4393  0.1196  0.5413
 5497TIP3    H137982   5.999   1.100   0.249  0.2256  0.3167  0.2257
 5497TIP3    H237983   6.097   1.002   0.188  0.4551 -0.3636  1.6640
 5498TIP3   OH237984   3.413   5.353   2.434  0.7958 -0.1932  0.0190
 5498TIP3    H137985   3.375   5.440   2.431  0.4180 -0.4120 -3.4012
 5498TIP3    H237986   3.412   5.329   2.527  0.8080  3.3541  0.9901
 5499TIP3   OH237987   2.331   4.772   2.699 -0.2118  0.0526 -0.4017
 5499TIP3    H137988   2.302   4.773   2.790 -0.1210  0.0312 -0.3730
 5499TIP3    H237989   2.371   4.686   2.688 -0.1824  0.0721 -0.4490
 5500TIP3   OH237990   3.430   0.404  12.829  0.0752 -0.0582 -0.1065
 5500TIP3    H137991   3.474   0.382  12.911  0.9557 -0.3421 -0.6474
 5500TIP3    H237992   3.366   0.471  12.853 -0.3851 -0.8749  0.9925
 5501TIP3   OH237993   1.444   0.912  15.134 -0.4058  0.6310 -0.0537
 5501TIP3    H137994   1.370   0.972  15.122 -1.1473  0.0783  1.5694
 5501TIP3    H237995   1.403   0.826  15.140  0.6914 -0.1219 -2.8778
 5502TIP3   OH237996   1.799   5.027  11.713  0.4426  0.2541  0.3878
 5502TIP3    H137997   1.773   5.066  11.630 -0.5697  0.1527  0.6425
 5502TIP3    H237998   1.895   5.024  11.710  0.4652  1.3742 -0.2584
 5503TIP3   OH237999   5.854   2.819   6.336  0.0727  0.2006 -0.4267
 5503TIP3    H138000   5.892   2.732   6.327 -0.0459  0.2341 -1.3095
 5503TIP3    H238001   5.808   2.833   6.254  1.9149  1.9932 -1.1831
 5504TIP3   OH238002   1.405   6.081  14.119  0.0630  0.3034  0.1658
 5504TIP3    H138003   1.457   6.144  14.070  0.5169  0.5993  1.0143
 5504TIP3    H238004   1.448   5.997  14.106 -0.8581  0.0608 -1.4165
 5505TIP3   OH238005   5.273   6.249  12.466 -0.1613  0.1116  0.6962
 5505TIP3    H138006   5.340   6.201  12.416  0.2635  1.6836 -0.2681
 5505TIP3    H238007   5.292   6.227  12.557  0.1191 -1.4366  0.2911
 5506TIP3   OH238008   5.180   4.004   5.575  0.2110  0.3456 -0.0854
 5506TIP3    H138009   5.178   4.093   5.542 -2.8868  0.3222 -0.1646
 5506TIP3    H238010   5.254   3.962   5.532  0.8000  2.4626 -1.1390
 5507TIP3   OH238011   4.594   1.231   4.163  0.1611 -0.3891 -0.0081
 5507TIP3    H138012   4.614   1.169   4.232 -0.6963 -0.2741  0.3583
 5507TIP3    H238013   4.499   1.241   4.167  0.0364 -0.7804 -1.5445
 5508TIP3   OH238014   1.402   1.226   6.282 -0.3209 -0.3707  0.2008
 5508TIP3    H138015   1.325   1.170   6.270  0.4583 -1.5563  0.6134
 5508TIP3    H238016   1.472   1.165   6.304  0.3469  0.8687  1.5920
 5509TIP3   OH238017   2.517   6.693   2.561  0.0280 -0.0259 -0.1057
 5509TIP3    H138018   2.610   6.687   2.538 -0.1297 -1.9857 -0.3433
 5509TIP3    H238019   2.471   6.663   2.482 -0.7729  0.1908  0.2755
 5510TIP3   OH238020   6.149   0.502   4.954  0.4790 -0.0442  0.6873
 5510TIP3    H138021   6.237   0.472   4.929 -0.3947 -0.7101 -1.7989
 5510TIP3    H238022   6.092   0.465   4.886 -1.1578  4.1753 -0.3797
 5511TIP3   OH238023   2.625   4.803   3.953 -0.0277 -0.4567 -0.0071
 5511TIP3    H138024   2.666   4.873   3.901 -0.8516  0.7721  0.9712
 5511TIP3    H238025   2.561   4.763   3.895 -0.9931  0.9566  0.0755
 5512TIP3   OH238026   6.524   6.186  12.253 -0.1409  0.0787  0.0499
 5512TIP3    H138027   6.430   6.201  12.256 -0.0179  1.2965 -1.2538
 5512TIP3    H238028   6.556   6.251  12.190  1.3981 -1.1767 -0.5015
 5513TIP3   OH238029   6.709   2.778  17.269  0.2754 -0.0951 -0.1308
 5513TIP3    H138030   6.675   2.836  17.201 -0.4032 -3.0414 -2.4316
 5513TIP3    H238031   6.789   2.740  17.231  1.6587  0.5830  1.9957
 5514TIP3   OH238032   6.039   0.292   5.838  0.0058 -0.0147 -0.1614
 5514TIP3    H138033   6.054   0.205   5.801 -0.3773  0.1949 -0.8138
 5514TIP3    H238034   6.113   0.345   5.806 -0.6196  0.3080 -1.0963
 5515TIP3   OH238035   1.505   4.518  14.663 -1.0254 -0.3131  0.7266
 5515TIP3    H138036   1.530   4.514  14.755 -1.5513 -0.9181  0.8511
 5515TIP3    H238037   1.523   4.608  14.637  0.9963 -0.6532  0.8712
 5516TIP3   OH238038   2.707   1.710   0.176  0.6012 -0.4092  0.5747
 5516TIP3    H138039   2.612   1.700   0.173  0.6894 -1.7962  1.7907
 5516TIP3    H238040   2.722   1.801   0.199 -0.4136  0.1386 -0.8689
 5517TIP3   OH238041   1.264   0.858  12.587  0.0991  0.6397  0.3127
 5517TIP3    H138042   1.223   0.930  12.636  1.0534  1.8993 -0.7149
 5517TIP3    H238043   1.263   0.887  12.496 -1.2008 -1.4779 -0.3695
 5518TIP3   OH238044   2.012   5.474  16.891 -0.2323  0.5025  0.3980
 5518TIP3    H138045   2.094   5.464  16.842 -0.5449  0.3654 -0.1034
 5518TIP3    H238046   1.944   5.463  16.825 -0.6811 -1.1288  1.1223
 5519TIP3   OH238047   6.017   1.079   5.274 -0.1720 -0.0626 -0.1296
 5519TIP3    H138048   5.925   1.093   5.295 -0.3173 -2.6751  1.1692
 5519TIP3    H238049   6.017   1.016   5.203  0.6041  0.7096 -0.8269
 5520TIP3   OH238050   3.609   4.835  13.540 -0.1973  0.0069  0.3038
 5520TIP3    H138051   3.621   4.746  13.507 -1.1166  0.5496 -1.5040
 5520TIP3    H238052   3.694   4.878  13.526  0.2384 -0.5486  1.1533
 5521TIP3   OH238053   0.289   2.514   4.019  0.1037  0.0034 -0.1770
 5521TIP3    H138054   0.375   2.534   4.056 -0.1196  1.1446 -0.2725
 5521TIP3    H238055   0.308   2.491   3.928  0.6651 -2.9319  0.6208
 5522TIP3   OH238056   4.545   4.907   5.213  0.1579 -0.4446  0.2943
 5522TIP3    H138057   4.498   4.825   5.222 -0.4697  0.1428  2.6916
 5522TIP3    H238058   4.574   4.929   5.302  1.4473  1.2516 -0.5018
 5523TIP3   OH238059   4.161   5.035   4.562 -0.3877  0.3040 -0.3062
 5523TIP3    H138060   4.219   5.099   4.521  0.2245  1.0902  1.7066
 5523TIP3    H238061   4.165   5.056   4.656  0.3592 -3.0610  0.4900
 5524TIP3   OH238062   1.317   5.956  15.945  0.2855  0.3568  0.0008
 5524TIP3    H138063   1.297   5.897  16.017  2.7512  0.1278  0.5437
 5524TIP3    H238064   1.232   5.977  15.907 -1.1200  0.8074  3.2082
 5525TIP3   OH238065   0.027   5.281   5.547 -0.3514 -0.2646  0.4067
 5525TIP3    H138066   0.116   5.306   5.524 -1.2264  2.7337  0.1076
 5525TIP3    H238067   0.036   5.228   5.626  1.6611  0.3654  0.6124
 5526TIP3   OH238068   4.830   5.400   4.514 -0.3276 -0.0777  0.1250
 5526TIP3    H138069   4.812   5.363   4.428  0.3490  1.5551 -0.7459
 5526TIP3    H238070   4.786   5.485   4.514  0.2781  0.2549  1.1051
 5527TIP3   OH238071   6.184   6.190  12.385  0.0743  0.0728 -0.0069
 5527TIP3    H138072   6.103   6.172  12.339  1.0112  1.0870 -2.0918
 5527TIP3    H238073   6.206   6.107  12.429 -1.1718 -0.6952 -0.8286
 5528TIP3   OH238074   0.840   0.416   3.466  0.3223 -0.2070  0.8574
 5528TIP3    H138075   0.845   0.476   3.392 -1.4743 -0.0535  0.8355
 5528TIP3    H238076   0.749   0.421   3.495  0.9699 -0.3543  3.0051
 5529TIP3   OH238077   0.439   0.686   5.626 -0.1483 -0.0343  0.0903
 5529TIP3    H138078   0.515   0.635   5.655  0.4423  0.5933 -0.3427
 5529TIP3    H238079   0.368   0.658   5.684  0.2529 -1.1005  0.0754
 5530TIP3   OH238080   6.408   1.248  14.947  0.5789 -0.4395  0.0003
 5530TIP3    H138081   6.318   1.261  14.917  0.5996  2.3030  1.0347
 5530TIP3    H238082   6.435   1.166  14.906 -1.7363 -0.3201 -1.8429
 5531TIP3   OH238083   0.738   5.340   4.401 -0.2122  0.1531 -0.0376
 5531TIP3    H138084   0.767   5.257   4.363 -1.2148  0.0510 -0.5928
 5531TIP3    H238085   0.759   5.405   4.334  0.8773  0.4077  0.5337
 5532TIP3   OH238086   0.885   3.162  14.051 -0.2184  0.1059 -0.2740
 5532TIP3    H138087   0.930   3.090  14.007 -0.4012  0.1497 -0.5325
 5532TIP3    H238088   0.861   3.222  13.981 -0.9615 -0.0670 -0.1775
 5533TIP3   OH238089   3.185   3.008   3.745 -0.2380 -0.2229 -0.3568
 5533TIP3    H138090   3.171   3.072   3.815  4.0754 -0.0066  0.4683
 5533TIP3    H238091   3.202   3.061   3.667 -0.6459 -0.3933 -0.5580
 5534TIP3   OH238092   5.754   5.424  16.769  0.1055  0.4240 -0.1103
 5534TIP3    H138093   5.791   5.360  16.831 -1.7798  0.1136  0.7235
 5534TIP3    H238094   5.741   5.502  16.822 -0.2371  0.5942 -0.4466
 5535TIP3   OH238095   1.348   2.673   5.440  0.1528  0.5623  0.1682
 5535TIP3    H138096   1.318   2.761   5.463 -2.5608 -0.0514 -0.8568
 5535TIP3    H238097   1.356   2.628   5.524  0.0819  1.3276  0.5878
 5536TIP3   OH238098   1.975   6.559  12.773  0.1746 -0.2202  0.4087
 5536TIP3    H138099   2.044   6.500  12.802  1.4996  0.6733 -0.8879
 5536TIP3    H238100   1.930   6.510  12.704 -1.0912 -1.1584  1.8641
 5537TIP3   OH238101   0.155   0.617  11.618 -1.3964 -0.5877  0.1146
 5537TIP3    H138102   0.129   0.602  11.527 -4.3043 -0.6505  0.9049
 5537TIP3    H238103   0.219   0.547  11.637 -1.5736 -1.2127 -1.5418
 5538TIP3   OH238104   0.897   0.805   1.075  0.0463 -0.2739 -0.1181
 5538TIP3    H138105   0.953   0.730   1.094  0.9072  0.8236  1.8923
 5538TIP3    H238106   0.955   0.881   1.078 -1.0208  0.6033 -0.9183
 5539TIP3   OH238107   5.555   0.043  13.130  0.5600 -0.0136 -0.0252
 5539TIP3    H138108   5.582   0.133  13.112  3.2251 -0.7493 -0.0023
 5539TIP3    H238109   5.617   0.013  13.197 -0.0262 -1.9733 -0.3394
 5540TIP3   OH238110   1.819   0.060  14.336  0.4021  0.3160 -0.2462
 5540TIP3    H138111   1.888   0.044  14.401 -0.0338  0.9244  0.3634
 5540TIP3    H238112   1.755  -0.010  14.351 -0.1037  0.9480  0.5236
 5541TIP3   OH238113   4.613   0.151   4.997  0.0254 -0.2571  0.3788
 5541TIP3    H138114   4.523   0.182   4.984 -0.6256 -1.1070  2.5829
 5541TIP3    H238115   4.645   0.201   5.072  0.2744 -2.1838  1.5899
 5542TIP3   OH238116   4.617   2.225   3.161  0.7539 -0.3638  0.0773
 5542TIP3    H138117   4.591   2.300   3.214 -1.1425  1.0437 -2.7237
 5542TIP3    H238118   4.536   2.175   3.149  1.8682 -2.6254  1.4101
 5543TIP3   OH238119   3.568   6.787  16.104  0.0269  0.3924 -0.1466
 5543TIP3    H138120   3.637   6.816  16.044  0.6931  1.1448  0.9734
 5543TIP3    H238121   3.591   6.826  16.188 -1.5400  0.2962  0.3388
 5544TIP3   OH238122   1.479   3.224  12.855  0.2326 -0.4734 -0.1938
 5544TIP3    H138123   1.546   3.158  12.836 -0.7288 -2.1327  1.9042
 5544TIP3    H238124   1.397   3.184  12.825 -0.0361  0.9011 -1.3412
 5545TIP3   OH238125   3.563   4.502   3.651 -0.6346  0.1625 -0.1185
 5545TIP3    H138126   3.543   4.411   3.626 -1.7833  0.5426 -0.6412
 5545TIP3    H238127   3.558   4.502   3.747 -1.1511 -0.2146 -0.1419
 5546TIP3   OH238128   3.111   5.949  13.895 -0.5284  0.4876 -0.3973
 5546TIP3    H138129   3.205   5.940  13.909  0.0646  1.7378 -3.0942
 5546TIP3    H238130   3.088   5.877  13.837 -1.7640 -1.2751  2.2136
 5547TIP3   OH238131   0.782   2.112  13.069 -0.3514 -0.2766 -0.2799
 5547TIP3    H138132   0.834   2.176  13.116  1.9218 -0.8233 -1.9539
 5547TIP3    H238133   0.725   2.164  13.012 -0.6414  0.2990  0.5283
 5548TIP3   OH238134   3.423   2.586  16.527 -0.0256 -0.1189  0.2849
 5548TIP3    H138135   3.329   2.579  16.543  0.1827 -1.2429  1.0578
 5548TIP3    H238136   3.461   2.605  16.612  0.7812 -3.1510  0.6714
 5549TIP3   OH238137   2.392   3.220  14.542  0.1401  0.1969 -0.0289
 5549TIP3    H138138   2.487   3.228  14.552 -0.0917  3.0943  0.0124
 5549TIP3    H238139   2.380   3.192  14.451  1.1205 -2.9850  0.7516
 5550TIP3   OH238140   3.043   0.640   1.212  0.5343  0.2661 -0.3045
 5550TIP3    H138141   3.098   0.704   1.257  0.6833  0.3080 -0.5468
 5550TIP3    H238142   3.016   0.579   1.281  1.3229 -0.0681 -0.2829
 5551TIP3   OH238143   1.731   1.920   4.467  0.2445  0.4057  0.2244
 5551TIP3    H138144   1.672   1.994   4.484 -0.5427 -0.5845  2.0428
 5551TIP3    H238145   1.739   1.877   4.552  0.8895 -1.4557 -0.7598
 5552TIP3   OH238146   6.665   6.464   1.802 -0.5204  0.4439  0.3049
 5552TIP3    H138147   6.576   6.486   1.828 -1.0182 -2.3777  1.0953
 5552TIP3    H238148   6.717   6.477   1.882 -0.4835  0.4911  0.2738
 5553TIP3   OH238149   6.527   1.348   2.970 -0.5631  0.1241 -0.3017
 5553TIP3    H138150   6.502   1.391   3.052 -1.3914 -1.4084  0.2604
 5553TIP3    H238151   6.610   1.306   2.989 -0.7567 -0.2348 -0.2469
 5554TIP3   OH238152   0.333   1.953   4.513 -0.3129  0.4024  0.0343
 5554TIP3    H138153   0.373   1.892   4.574 -0.7412 -0.1442 -0.2307
 5554TIP3    H238154   0.363   1.925   4.426 -1.2231  0.0142 -0.1646
 5555TIP3   OH238155   1.861   0.492   4.565 -0.4215  0.3740  0.0774
 5555TIP3    H138156   1.867   0.535   4.479 -1.9915 -0.1207 -0.2893
 5555TIP3    H238157   1.926   0.422   4.561 -0.6050  0.2459 -0.7602
 5556TIP3   OH238158   3.630   2.531   3.941 -0.3892  0.2711 -0.7414
 5556TIP3    H138159   3.585   2.498   3.864 -0.2761 -1.2719 -0.1699
 5556TIP3    H238160   3.583   2.492   4.015  1.4813 -0.9095 -0.1183
 5557TIP3   OH238161   4.871   4.495  12.420  0.3798  0.2301 -0.6538
 5557TIP3    H138162   4.881   4.512  12.327  2.0377 -3.0720 -1.1477
 5557TIP3    H238163   4.786   4.450  12.427  0.7101 -0.4020 -0.7019
 5558TIP3   OH238164   3.120   1.883  11.499  0.1964  0.2972 -0.4527
 5558TIP3    H138165   3.087   1.953  11.556  1.6546 -1.1736  2.3550
 5558TIP3    H238166   3.042   1.839  11.467 -0.6985  2.0648 -0.7829
 5559TIP3   OH238167   3.203   6.010  13.316  0.6788 -0.3424 -0.2934
 5559TIP3    H138168   3.171   6.069  13.385 -1.5711 -1.3580 -0.4097
 5559TIP3    H238169   3.191   6.059  13.235 -0.4246 -0.6347 -0.3147
 5560TIP3   OH238170   5.009   4.107   1.589  0.4001 -0.8549 -0.4117
 5560TIP3    H138171   4.999   4.190   1.543 -2.0526 -1.8761 -1.8579
 5560TIP3    H238172   4.953   4.115   1.666  1.9693 -0.3513  0.7084
 5561TIP3   OH238173   1.180   4.251  10.903 -0.0532  0.0953  0.2760
 5561TIP3    H138174   1.236   4.179  10.933  0.7406  0.6727  0.2200
 5561TIP3    H238175   1.092   4.214  10.898  0.3192 -0.8120  0.4364
 5562TIP3   OH238176   0.888   0.695  15.926 -0.1029  0.8576 -0.4715
 5562TIP3    H138177   0.939   0.739  15.994  1.3921 -0.6278 -0.6086
 5562TIP3    H238178   0.896   0.752  15.849  0.6889  1.0378 -0.2595
 5563TIP3   OH238179   3.189   5.844  12.276  0.4379  0.7387  0.1637
 5563TIP3    H138180   3.138   5.923  12.294  0.3995  0.3984  1.5572
 5563TIP3    H238181   3.249   5.870  12.206 -1.1507  1.3460 -1.0116
 5564TIP3   OH238182   3.015   0.196   1.173 -0.3765 -0.0172 -0.4807
 5564TIP3    H138183   3.054   0.162   1.253 -0.5265 -0.7243 -0.7025
 5564TIP3    H238184   3.002   0.289   1.189  1.6762  0.2813 -0.5205
 5565TIP3   OH238185   2.410   2.343  11.681 -0.1940  0.6606 -0.4632
 5565TIP3    H138186   2.369   2.257  11.692  0.9544 -0.2339 -2.9504
 5565TIP3    H238187   2.342   2.396  11.639  0.3995 -0.1645 -2.4913
 5566TIP3   OH238188   6.698   3.083  13.669 -0.0974  0.1377 -0.0432
 5566TIP3    H138189   6.657   3.066  13.584 -3.2925 -0.0321  1.4726
 5566TIP3    H238190   6.649   3.156  13.705  1.5601  0.5253  1.4835
 5567TIP3   OH238191   4.170   0.396   4.856 -0.3576  0.3653  0.5658
 5567TIP3    H138192   4.191   0.438   4.773 -2.8803  0.1136 -0.2533
 5567TIP3    H238193   4.106   0.454   4.897 -0.1245 -0.1808  1.7208
 5568TIP3   OH238194   0.465   3.053   5.114 -0.2351  0.1899 -0.4116
 5568TIP3    H138195   0.491   3.060   5.022 -0.7751 -2.4534 -0.8016
 5568TIP3    H238196   0.374   3.083   5.116 -0.0828  0.6711 -0.6532
 5569TIP3   OH238197   0.314   3.207  15.248 -0.0961  0.5322  0.3285
 5569TIP3    H138198   0.334   3.299  15.231 -0.1015  0.1614 -1.7973
 5569TIP3    H238199   0.398   3.162  15.239 -0.1440  0.2829  1.0864
 5570TIP3   OH238200   6.542   4.391   5.268 -0.0717  0.0079  0.1924
 5570TIP3    H138201   6.573   4.311   5.311  3.4089  0.0129 -2.1155
 5570TIP3    H238202   6.601   4.460   5.300 -2.1186  1.4167  1.0352
 5571TIP3   OH238203   2.191   3.047   4.183 -0.6584  0.0239 -0.3756
 5571TIP3    H138204   2.205   3.064   4.276 -0.6529  0.1005 -0.3896
 5571TIP3    H238205   2.248   2.973   4.162  0.5781  1.0558 -0.6929
 5572TIP3   OH238206   5.873   5.662   2.928 -0.1442  0.1017 -0.0289
 5572TIP3    H138207   5.964   5.688   2.940 -0.6438  1.4014  1.1874
 5572TIP3    H238208   5.825   5.717   2.990 -2.0287  1.2925 -2.4636
 5573TIP3   OH238209   2.875   6.818  15.838 -0.2766  0.2301  0.0535
 5573TIP3    H138210   2.943   6.772  15.788 -1.5709  0.0929 -1.6558
 5573TIP3    H238211   2.846   6.754  15.903  1.6237  0.5015  1.2130
 5574TIP3   OH238212   2.963   5.799  11.687  0.1925  0.2155  0.0088
 5574TIP3    H138213   2.954   5.881  11.734 -0.8402 -0.1937  0.5550
 5574TIP3    H238214   2.990   5.735  11.753  1.3034  0.1730 -0.4742
 5575TIP3   OH238215   6.270   6.583  15.435  0.1733 -0.3102  0.1240
 5575TIP3    H138216   6.351   6.533  15.441 -0.3465 -1.3383 -1.1596
 5575TIP3    H238217   6.274   6.624  15.348 -0.9174 -0.7857 -0.1534
 5576TIP3   OH238218   0.650   6.034   3.766 -0.2929  0.3102 -0.4887
 5576TIP3    H138219   0.576   6.093   3.778 -0.0482  0.9894 -2.1365
 5576TIP3    H238220   0.712   6.059   3.835  0.0651  2.4293 -1.5266
 5577TIP3   OH238221   6.590   1.095   0.188 -0.3726 -0.2337  0.2476
 5577TIP3    H138222   6.583   1.121   0.096  1.6719 -0.4139  0.0340
 5577TIP3    H238223   6.536   1.159   0.234  1.9682  2.4888 -0.6186
 5578TIP3   OH238224   3.082   4.230   2.784 -0.1020 -0.6452  0.0891
 5578TIP3    H138225   3.061   4.205   2.694  0.3731 -0.2135 -0.1437
 5578TIP3    H238226   3.128   4.154   2.819  1.6052 -0.0142 -0.7134
 5579TIP3   OH238227   6.734   4.806   1.259 -0.2953  0.0020 -0.6996
 5579TIP3    H138228   6.684   4.754   1.196  0.5304 -1.7318  0.0561
 5579TIP3    H238229   6.707   4.774   1.345 -1.7022  2.6294 -0.1053
 5580TIP3   OH238230   5.749   5.124  14.839  0.1548 -0.3364  0.1084
 5580TIP3    H138231   5.763   5.175  14.760  0.5297  0.6661  0.8105
 5580TIP3    H238232   5.758   5.187  14.911  0.8913 -1.4396  1.0106
 5581TIP3   OH238233   0.076   6.807  14.740  0.3299 -0.8802 -0.6807
 5581TIP3    H138234   0.031   6.882  14.778  0.7929 -1.0896  0.2763
 5581TIP3    H238235   0.115   6.841  14.659 -0.8887 -0.5105 -1.1353
 5582TIP3   OH238236   1.940   2.852  12.428  0.2681 -0.6619 -0.0459
 5582TIP3    H138237   1.944   2.911  12.353 -0.0531 -2.3832 -1.4589
 5582TIP3    H238238   1.872   2.789  12.406 -2.9000  1.2604  3.5813
 5583TIP3   OH238239   2.405   2.545   2.865 -0.0486  0.2258 -0.3156
 5583TIP3    H138240   2.427   2.638   2.868  1.5398 -0.1437 -0.2455
 5583TIP3    H238241   2.399   2.520   2.958  0.0282  0.1430 -0.3331
 5584TIP3   OH238242   1.744   1.999  14.919 -0.3388  0.0062 -0.0146
 5584TIP3    H138243   1.773   1.943  14.847  1.3772 -0.1055  0.7561
 5584TIP3    H238244   1.797   2.078  14.911  0.5513 -0.3971  1.6829
 5585TIP3   OH238245   2.466   2.869  13.437 -0.9261  0.0974 -0.3582
 5585TIP3    H138246   2.511   2.940  13.483  0.6646 -0.8803 -0.3532
 5585TIP3    H238247   2.507   2.866  13.351 -1.7412 -0.1017 -0.7443
 5586TIP3   OH238248   1.417   0.436   5.795 -0.4855  0.0372  0.0969
 5586TIP3    H138249   1.370   0.506   5.842 -0.3371  0.4902 -0.4274
 5586TIP3    H238250   1.423   0.467   5.705  1.7054  0.4600  0.3531
 5587TIP3   OH238251   4.213   3.715   0.092  0.8580  0.0525 -0.2813
 5587TIP3    H138252   4.189   3.632   0.052  2.1603 -0.4207 -0.1103
 5587TIP3    H238253   4.276   3.692   0.160  1.2396  1.1806 -0.2357
 5588TIP3   OH238254   1.036   3.867   5.177 -0.0653  0.3304 -0.2342
 5588TIP3    H138255   1.027   3.812   5.255  1.5086  1.9707  1.1434
 5588TIP3    H238256   1.102   3.823   5.124  1.6716  1.1772  1.1720
 5589TIP3   OH238257   4.090   3.218  14.166 -0.1723 -0.2450  0.8967
 5589TIP3    H138258   4.098   3.167  14.085  1.8442  0.6272  0.5257
 5589TIP3    H238259   4.102   3.153  14.235 -1.3929 -0.9068  0.5154
 5590TIP3   OH238260   2.634   1.559   3.542 -0.1640 -0.7382 -0.4482
 5590TIP3    H138261   2.668   1.607   3.466  1.1678 -0.9180  0.0129
 5590TIP3    H238262   2.561   1.612   3.574 -0.1129 -0.1604 -1.2692
 5591TIP3   OH238263   2.929   2.377   5.940  0.5936 -0.6210  0.1985
 5591TIP3    H138264   2.978   2.302   5.973  0.6721 -0.5223  0.3075
 5591TIP3    H238265   2.845   2.374   5.986  0.2197 -1.2020 -0.5170
 5592TIP3   OH238266   1.435   4.626  16.908  0.5007 -0.0747 -0.6402
 5592TIP3    H138267   1.413   4.574  16.985  3.0329 -1.0671 -0.5344
 5592TIP3    H238268   1.442   4.715  16.941 -0.4447 -0.1692 -0.1424
 5593TIP3   OH238269   2.052   1.877   2.933  0.1214 -0.4560  0.1113
 5593TIP3    H138270   2.049   1.945   2.865  2.6834 -2.5281 -2.2112
 5593TIP3    H238271   1.960   1.854   2.948 -0.4823 -1.1360 -3.9881
 5594TIP3   OH238272   0.574   1.842  11.953 -0.2775  0.2620  0.0657
 5594TIP3    H138273   0.537   1.920  11.912 -3.0318 -0.5163  0.9457
 5594TIP3    H238274   0.591   1.869  12.044 -0.4809  0.0647  0.1617
 5595TIP3   OH238275   2.443   4.927   2.038 -1.0432  0.1144 -0.0987
 5595TIP3    H138276   2.380   4.906   2.107  0.8585 -1.9914  1.0684
 5595TIP3    H238277   2.401   4.895   1.958 -1.5953 -1.0090  0.6203
 5596TIP3   OH238278   3.578   4.225   1.072 -0.6690  0.0451  1.3793
 5596TIP3    H138279   3.630   4.150   1.042  0.9329  1.6362  0.0359
 5596TIP3    H238280   3.570   4.213   1.166 -0.2635 -1.7039  1.2136
 5597TIP3   OH238281   5.078   4.517   2.451 -0.4301  0.3925  0.4120
 5597TIP3    H138282   5.100   4.468   2.530 -0.0139  0.0817  0.1002
 5597TIP3    H238283   5.049   4.603   2.484  0.3373  0.4824  0.8676
 5598TIP3   OH238284   2.654   0.443   3.629 -0.3735 -0.1469 -0.2083
 5598TIP3    H138285   2.624   0.370   3.683  1.0779 -1.1076 -0.6895
 5598TIP3    H238286   2.573   0.485   3.599 -1.1970 -0.6221  1.3094
 5599TIP3   OH238287   0.276   6.016   6.275 -0.2454 -0.1451  0.4278
 5599TIP3    H138288   0.246   6.106   6.286  2.3489  0.7823  0.1505
 5599TIP3    H238289   0.271   5.999   6.181 -0.9241 -0.3738  0.5017
 5600TIP3   OH238290   2.389   2.774   3.905 -0.1939 -0.0197 -0.2911
 5600TIP3    H138291   2.364   2.814   3.822 -0.4017  0.5435  0.0384
 5600TIP3    H238292   2.467   2.722   3.885  0.3079  0.8594 -0.6433
 5601TIP3   OH238293   3.107   3.194  14.493 -0.1740  0.2337 -0.0111
 5601TIP3    H138294   3.019   3.157  14.488  0.6653 -1.6260 -2.3245
 5601TIP3    H238295   3.165   3.120  14.475  1.7780  1.7698 -0.1933
 5602TIP3   OH238296   3.134   1.413  11.966 -0.1401  0.5176  0.0077
 5602TIP3    H138297   3.096   1.467  11.897  0.6726  2.3783  0.9738
 5602TIP3    H238298   3.132   1.469  12.044  0.3548 -0.9934  1.1418
 5603TIP3   OH238299   0.433   1.209  12.130 -0.0337  0.5360  0.5694
 5603TIP3    H138300   0.339   1.213  12.118  0.3679  2.8546 -2.3535
 5603TIP3    H238301   0.461   1.133  12.079 -0.0142  1.5857 -1.0072
 5604TIP3   OH238302   2.981   6.215   6.668  0.1377  0.1037  0.3821
 5604TIP3    H138303   2.933   6.178   6.593  0.7069 -0.1432  0.1403
 5604TIP3    H238304   2.988   6.142   6.729 -0.4248  0.3351  0.7318
 5605TIP3   OH238305   5.845   4.556   2.854  0.1243 -0.3971 -0.1534
 5605TIP3    H138306   5.927   4.553   2.806  0.3033  0.9625  0.0304
 5605TIP3    H238307   5.871   4.557   2.946  0.1028  3.0496 -0.0916
 5606TIP3   OH238308   0.963   0.594  13.692  1.0408  0.2790 -0.0467
 5606TIP3    H138309   1.002   0.622  13.774  1.0626 -1.3464  0.5164
 5606TIP3    H238310   0.881   0.551  13.718  0.6714  0.4366 -0.9342
 5607TIP3   OH238311   3.459   0.721  15.929 -0.4001 -0.4174 -0.0505
 5607TIP3    H138312   3.450   0.817  15.929 -0.0275 -0.3812 -0.6218
 5607TIP3    H238313   3.398   0.692  15.997 -1.3208  0.1606 -0.6075
 5608TIP3   OH238314   3.480   3.485  10.977  0.0345 -0.0765  0.5229
 5608TIP3    H138315   3.400   3.475  10.927 -0.7674  0.9700  1.5700
 5608TIP3    H238316   3.486   3.406  11.030  0.3954 -0.7524 -0.5008
 5609TIP3   OH238317   1.923   3.259   4.133 -0.1624  0.3306  0.2394
 5609TIP3    H138318   2.018   3.266   4.125 -0.0377 -0.8868  0.5203
 5609TIP3    H238319   1.899   3.195   4.066 -0.8404  0.9677 -0.1329
 5610TIP3   OH238320   4.698   2.780   4.953 -0.1841  0.0683 -0.2973
 5610TIP3    H138321   4.786   2.804   4.926  0.6761 -2.1385  0.4685
 5610TIP3    H238322   4.707   2.755   5.045 -1.4985 -0.7790 -0.3869
 5611TIP3   OH238323   1.836   5.437  10.854 -0.3473 -0.2980  0.2599
 5611TIP3    H138324   1.853   5.501  10.923 -1.7775 -0.2086  0.5472
 5611TIP3    H238325   1.843   5.487  10.773  2.9063 -0.7381  0.2162
 5612TIP3   OH238326   5.570   5.344  13.425  0.6510 -0.0460 -0.3919
 5612TIP3    H138327   5.590   5.357  13.332 -1.0638 -0.9348 -0.9024
 5612TIP3    H238328   5.501   5.407  13.443  0.1622 -0.6820 -0.0298
 5613TIP3   OH238329   4.711   0.882   1.299 -0.1752  0.5391 -0.3225
 5613TIP3    H138330   4.744   0.823   1.367 -0.4155  0.4062 -0.3225
 5613TIP3    H238331   4.624   0.907   1.329  1.5518  4.2876  1.8284
 5614TIP3   OH238332   5.977   3.724  11.407 -0.2867 -0.5174  0.2554
 5614TIP3    H138333   6.027   3.642  11.412 -0.7917 -0.7653  1.4714
 5614TIP3    H238334   5.948   3.729  11.316  2.9155  0.2092 -0.7679
 5615TIP3   OH238335   2.805   1.324  14.027 -0.1655  0.7761  0.1760
 5615TIP3    H138336   2.736   1.364  13.974 -1.6038 -0.6435  0.9652
 5615TIP3    H238337   2.863   1.397  14.048 -0.4678  1.6738 -1.9287
 5616TIP3   OH238338   6.073   2.661   1.445 -0.2041 -0.1332  0.3643
 5616TIP3    H138339   6.137   2.591   1.437 -1.3377 -1.0860 -0.4223
 5616TIP3    H238340   6.120   2.739   1.416  0.3669 -0.9594 -0.9504
 5617TIP3   OH238341   3.090   3.977  15.967  0.0006 -0.5701  0.3091
 5617TIP3    H138342   3.144   3.990  15.889  0.1474 -3.1917 -0.0763
 5617TIP3    H238343   3.117   4.046  16.027  3.1869 -1.3031 -0.2064
 5618TIP3   OH238344   3.546   0.554   1.262  0.2142  1.0296  0.4669
 5618TIP3    H138345   3.540   0.576   1.169 -0.9653  0.0655  0.3055
 5618TIP3    H238346   3.496   0.473   1.271 -0.8215  1.8197  2.1700
 5619TIP3   OH238347   2.422   3.240  11.559  0.1698 -0.3600 -0.0894
 5619TIP3    H138348   2.393   3.227  11.469 -0.0385  0.9603 -0.2323
 5619TIP3    H238349   2.517   3.252  11.553  0.1884 -0.5210 -0.1058
 5620TIP3   OH238350   6.134   0.948   2.672 -0.0132  0.3590 -0.3016
 5620TIP3    H138351   6.113   0.956   2.765 -1.0528  0.2581 -0.5124
 5620TIP3    H238352   6.148   1.038   2.643  1.7645  0.2728  0.2621
 5621TIP3   OH238353   0.308   2.378  16.260  0.1709 -0.3976  0.6000
 5621TIP3    H138354   0.258   2.301  16.232 -0.0179  1.0631 -3.3363
 5621TIP3    H238355   0.400   2.354  16.244  0.1637 -0.1240  0.1315
 5622TIP3   OH238356   3.129   2.015   5.573  0.0111 -0.1069 -0.6507
 5622TIP3    H138357   3.082   1.962   5.637  0.8645 -1.1301 -0.8516
 5622TIP3    H238358   3.113   1.971   5.489  0.2865  0.2443 -0.8879
 5623TIP3   OH238359   3.931   2.085  13.397  0.3608  0.2203 -0.4647
 5623TIP3    H138360   3.985   2.091  13.476  0.7685  1.1887 -0.8012
 5623TIP3    H238361   3.864   2.020  13.418 -0.0444  1.0763  0.9862
 5624TIP3   OH238362   3.690   4.238   2.631  0.4645 -0.2891 -0.0240
 5624TIP3    H138363   3.700   4.332   2.616 -0.1660 -0.0262  1.1582
 5624TIP3    H238364   3.700   4.227   2.725 -0.0991 -1.3293 -0.0744
 5625TIP3   OH238365   5.944   4.059  10.255  0.4085 -0.0822  0.0656
 5625TIP3    H138366   5.966   3.985  10.312  1.2800 -0.5809 -0.9051
 5625TIP3    H238367   5.917   4.128  10.316 -0.2695 -1.1370  0.9888
 5626TIP3   OH238368   3.715   2.555   1.554  0.2409 -0.3072  0.9597
 5626TIP3    H138369   3.660   2.492   1.601  0.8952 -0.5790  1.3687
 5626TIP3    H238370   3.736   2.511   1.472 -2.3540  0.8659 -0.3882
 5627TIP3   OH238371   2.675   1.673  12.552  0.6231 -0.0993  0.1781
 5627TIP3    H138372   2.636   1.616  12.619  0.5206 -2.0229 -1.4667
 5627TIP3    H238373   2.600   1.722  12.516 -0.1449 -2.7276 -1.9606
 5628TIP3   OH238374   0.943   5.146  15.655  0.2103  0.0445 -0.0597
 5628TIP3    H138375   1.003   5.219  15.676 -1.2080  1.2798 -0.2359
 5628TIP3    H238376   0.856   5.181  15.672 -0.5384 -1.3594 -0.9520
 5629TIP3   OH238377   5.803   1.199  14.326 -0.0307  0.1594  0.1590
 5629TIP3    H138378   5.886   1.240  14.303  0.2991 -0.3524  0.4424
 5629TIP3    H238379   5.785   1.230  14.415 -0.6672  1.1089 -0.2891
 5630TIP3   OH238380   5.700   0.020   4.832  0.0425  0.0163  0.2032
 5630TIP3    H138381   5.767  -0.021   4.778  0.6192 -1.3704  1.9416
 5630TIP3    H238382   5.675  -0.047   4.896 -1.3808  1.2607  1.0006
 5631TIP3   OH238383   0.165   0.744   3.454  0.6839 -0.0248 -0.6005
 5631TIP3    H138384   0.152   0.746   3.549  1.9035 -1.3163 -0.3833
 5631TIP3    H238385   0.102   0.807   3.420 -0.6141 -0.4246  0.9755
 5632TIP3   OH238386   3.080   1.757   3.454 -0.1798  0.1511 -0.5194
 5632TIP3    H138387   3.129   1.785   3.531  1.3398 -2.7847 -0.3426
 5632TIP3    H238388   3.073   1.835   3.400  0.5076  1.7563  1.6708
 5633TIP3   OH238389   4.830   1.092   0.301  0.6079 -0.0291 -0.1586
 5633TIP3    H138390   4.811   0.998   0.308  0.9345  0.0411  2.3228
 5633TIP3    H238391   4.745   1.134   0.293  0.3142 -0.4192  0.8084
 5634TIP3   OH238392   2.306   0.936   1.421 -0.7169  0.2689 -0.6888
 5634TIP3    H138393   2.338   0.857   1.378  1.5219 -0.6240  2.4707
 5634TIP3    H238394   2.212   0.937   1.400 -0.4384 -2.1523 -2.3622
 5635TIP3   OH238395   5.514   1.921   2.236 -0.1574  0.7695 -0.5452
 5635TIP3    H138396   5.568   1.992   2.271  1.1794 -0.3167 -0.3496
 5635TIP3    H238397   5.517   1.933   2.141  0.1968  0.8875 -0.5211
 5636TIP3   OH238398   1.324   2.672   2.264 -0.6836  0.7627 -0.1857
 5636TIP3    H138399   1.309   2.624   2.182  0.0793  0.4123 -0.1216
 5636TIP3    H238400   1.320   2.605   2.332 -0.4577  0.9230 -0.0137
 5637TIP3   OH238401   6.465   3.301   2.904  0.2212 -0.1440  0.7726
 5637TIP3    H138402   6.485   3.312   2.997 -0.4621 -3.2975  1.3356
 5637TIP3    H238403   6.523   3.231   2.875 -0.3527  0.0622 -0.9205
 5638TIP3   OH238404   5.532   3.058  17.232 -0.3489  0.7648 -0.1739
 5638TIP3    H138405   5.479   3.132  17.264 -0.4090  1.2543 -1.3994
 5638TIP3    H238406   5.488   2.981  17.267 -0.6896  1.2633  0.5352
 5639TIP3   OH238407   1.494   5.848  14.490  0.2095  0.0108 -0.3795
 5639TIP3    H138408   1.542   5.765  14.479  0.7851  0.3885 -0.7115
 5639TIP3    H238409   1.544   5.912  14.440 -0.9473  0.3040 -1.1863
 5640TIP3   OH238410   3.321   2.219  12.144  0.1118 -0.6701  0.1447
 5640TIP3    H138411   3.404   2.265  12.136 -0.3811  0.4696  1.3552
 5640TIP3    H238412   3.338   2.150  12.208  0.2657 -0.7848 -0.0195
 5641TIP3   OH238413   4.329   0.987  16.055 -0.1646  0.0112 -1.0485
 5641TIP3    H138414   4.425   0.987  16.048 -0.1568 -2.4938 -1.5002
 5641TIP3    H238415   4.299   0.977  15.965 -0.7920 -0.5989 -0.7784
 5642TIP3   OH238416   3.606   1.785   3.712 -0.5000 -0.7019 -0.5903
 5642TIP3    H138417   3.630   1.693   3.726 -0.8620 -0.9193 -1.3779
 5642TIP3    H238418   3.525   1.781   3.660 -1.2943  0.0439  0.5499
 5643TIP3   OH238419   1.068   3.134   3.142 -0.1522 -0.3525 -0.3334
 5643TIP3    H138420   1.015   3.162   3.216  0.3161  0.2435 -0.2246
 5643TIP3    H238421   1.145   3.092   3.181 -0.3723 -0.9131 -0.4894
 5644TIP3   OH238422   2.038   0.807   2.630  0.0819 -0.1409 -0.5647
 5644TIP3    H138423   2.066   0.802   2.539  0.0114 -4.1273 -0.4426
 5644TIP3    H238424   2.117   0.787   2.681 -0.6008 -1.1451  0.1175
 5645TIP3   OH238425   2.523   1.948  16.685  0.1464  0.1901  0.2086
 5645TIP3    H138426   2.517   1.855  16.708  2.0416 -0.4002 -1.5792
 5645TIP3    H238427   2.567   1.949  16.600 -0.0339  2.7280  0.1124
 5646TIP3   OH238428   0.350   5.288  14.915  0.4425  0.8784  0.2587
 5646TIP3    H138429   0.258   5.287  14.889  0.1405  0.3738  1.3075
 5646TIP3    H238430   0.379   5.198  14.903  0.9513  1.1475 -0.5727
 5647TIP3   OH238431   5.083   1.417  12.528 -0.2680  0.0401  0.2357
 5647TIP3    H138432   5.125   1.368  12.457  1.6969 -1.0575  2.0846
 5647TIP3    H238433   5.137   1.496  12.537  0.1248 -0.3429  1.2241
 5648TIP3   OH238434   2.324   6.659   4.582 -0.5554  0.0781 -0.4351
 5648TIP3    H138435   2.234   6.690   4.572 -0.6177  0.1684  0.3967
 5648TIP3    H238436   2.352   6.693   4.667  0.8784  1.5702 -1.4690
 5649TIP3   OH238437   4.614   1.768   2.346 -0.0438  0.3435 -0.0927
 5649TIP3    H138438   4.645   1.759   2.255 -0.9388 -1.0494 -0.2769
 5649TIP3    H238439   4.656   1.696   2.393 -3.6764 -2.1629 -0.5570
 5650TIP3   OH238440   6.559   3.796   4.059 -0.2149  0.4499  0.2843
 5650TIP3    H138441   6.559   3.868   3.996  0.3494 -2.1089 -2.7668
 5650TIP3    H238442   6.648   3.794   4.094  0.5624 -0.4838 -1.6982
 5651TIP3   OH238443   2.731   4.111   2.617  0.0482  0.5982  0.1192
 5651TIP3    H138444   2.735   4.045   2.548  1.5547  0.5209  0.2810
 5651TIP3    H238445   2.642   4.103   2.651  0.0831 -1.0894 -0.1283
 5652TIP3   OH238446   3.594   4.218  11.335  0.4660  0.2258 -0.1534
 5652TIP3    H138447   3.571   4.128  11.314  0.2377  0.3168 -0.2964
 5652TIP3    H238448   3.603   4.261  11.250  2.0174 -0.0198 -0.1283
 5653TIP3   OH238449   5.438   4.071   2.022  0.3287  0.0514  0.8273
 5653TIP3    H138450   5.415   4.158   2.053 -2.2792 -1.0446  2.1153
 5653TIP3    H238451   5.437   4.078   1.926 -0.3466  1.3020  0.9208
 5654TIP3   OH238452   2.411   5.006   5.798  0.0387  0.0981  1.0995
 5654TIP3    H138453   2.452   5.079   5.844  1.2779  0.7687 -1.0142
 5654TIP3    H238454   2.458   4.928   5.829  1.1372  0.5862  0.6861
 5655TIP3   OH238455   4.146   4.163   1.326 -0.2511 -0.4127 -0.0923
 5655TIP3    H138456   4.095   4.130   1.252 -0.5884 -1.8629  0.7567
 5655TIP3    H238457   4.086   4.155   1.401  0.6129 -0.4275  0.5982
 5656TIP3   OH238458   1.988   1.399   3.232  0.1689  0.2478 -0.1661
 5656TIP3    H138459   2.069   1.367   3.192  0.7517  0.1162  1.1040
 5656TIP3    H238460   1.951   1.323   3.276 -1.4411 -0.0682 -1.9856
 5657TIP3   OH238461   2.252   4.277   1.281 -0.6166  0.6763  0.1712
 5657TIP3    H138462   2.266   4.206   1.344  1.3516  0.9885  0.0957
 5657TIP3    H238463   2.242   4.355   1.335 -1.0843  0.6183  0.1750
 5658TIP3   OH238464   2.122   5.268   4.573 -0.0486 -0.2635  0.1200
 5658TIP3    H138465   2.093   5.219   4.496 -0.4681 -0.3068  0.3065
 5658TIP3    H238466   2.047   5.268   4.631 -0.4697  1.6738 -0.3988
 5659TIP3   OH238467   1.260   0.466   4.428 -0.3728 -0.0038 -0.3360
 5659TIP3    H138468   1.290   0.407   4.359 -1.7201 -2.4861  1.1022
 5659TIP3    H238469   1.310   0.546   4.415  2.5558 -1.9419 -1.5377
 5660TIP3   OH238470   4.310   0.016   1.009 -0.2399 -0.0426  0.4189
 5660TIP3    H138471   4.225   0.060   1.002 -0.0383  0.6050  1.8185
 5660TIP3    H238472   4.353   0.059   1.083  2.2444  1.2302 -1.6482
 5661TIP3   OH238473   3.510   5.293   5.036  0.4949 -0.4520  0.4770
 5661TIP3    H138474   3.500   5.294   5.131  0.8595  0.2040  0.5136
 5661TIP3    H238475   3.592   5.246   5.021  1.3609  0.9650  0.5930
 5662TIP3   OH238476   2.921   4.973   1.197  0.3220  0.3418  0.4516
 5662TIP3    H138477   2.843   4.921   1.178  1.2647 -1.0013  0.2365
 5662TIP3    H238478   2.949   4.945   1.284  2.3143 -1.4083 -0.7005
 5663TIP3   OH238479   3.471   6.118   3.870 -0.6819  0.2571 -0.1009
 5663TIP3    H138480   3.403   6.178   3.901  0.0032  0.7779  0.4184
 5663TIP3    H238481   3.501   6.073   3.950  0.5002  0.9861 -0.1172
 5664TIP3   OH238482   2.368   1.155  13.327 -0.0538 -0.1543  0.1368
 5664TIP3    H138483   2.296   1.092  13.321 -0.4856  0.1097  2.2032
 5664TIP3    H238484   2.447   1.102  13.320 -0.4296 -0.7855  0.6117
 5665TIP3   OH238485   3.457   6.113   0.979 -0.1632 -0.2191 -0.2613
 5665TIP3    H138486   3.403   6.130   1.057  0.5001  0.6712  0.0210
 5665TIP3    H238487   3.397   6.127   0.905 -0.5009  0.0636  0.0627
 5666TIP3   OH238488   6.645   0.097   2.558  0.1246  0.3741 -0.5381
 5666TIP3    H138489   6.560   0.082   2.517 -0.1672  1.1070 -0.2205
 5666TIP3    H238490   6.700   0.133   2.488  0.0444  0.3156 -0.6310
 5667TIP3   OH238491   5.178   0.893  15.160 -0.2285 -0.1452 -0.3256
 5667TIP3    H138492   5.216   0.916  15.245 -0.3607 -1.5846  0.1333
 5667TIP3    H238493   5.185   0.973  15.108 -1.0814  1.0661  1.3869
 5668TIP3   OH238494   5.597   1.918  15.862 -0.1957 -0.2246 -0.4719
 5668TIP3    H138495   5.620   1.903  15.770 -1.6474  2.1109 -1.2606
 5668TIP3    H238496   5.617   2.010  15.876  0.8056 -0.7689  1.8275
 5669TIP3   OH238497   5.299   2.067  13.440 -0.0372 -0.4177  0.3180
 5669TIP3    H138498   5.308   2.153  13.481 -1.7927  0.5793 -1.3433
 5669TIP3    H238499   5.380   2.021  13.463  1.3161  1.9799  0.4967
 5670TIP3   OH238500   5.500   2.466   4.514 -0.2624  0.3713 -0.6359
 5670TIP3    H138501   5.576   2.463   4.456 -0.5513 -0.6584 -0.9633
 5670TIP3    H238502   5.519   2.400   4.581  0.1443  1.6581  0.5377
 5671TIP3   OH238503   2.194   6.763  11.712  0.0357  0.2462 -0.2895
 5671TIP3    H138504   2.196   6.815  11.632 -0.4533  0.9819  0.1769
 5671TIP3    H238505   2.113   6.789  11.756  0.2152 -0.2834  0.3611
 5672TIP3   OH238506   3.086   5.279   3.395  0.4106 -0.1675  0.1918
 5672TIP3    H138507   3.137   5.321   3.325  1.5965  1.0144  1.7280
 5672TIP3    H238508   2.996   5.306   3.379  1.0793  2.5667  0.8225
 5673TIP3   OH238509   3.625   3.105  13.118 -0.3031  0.7935 -0.3337
 5673TIP3    H138510   3.623   3.174  13.052 -0.4090 -0.2342 -1.4330
 5673TIP3    H238511   3.562   3.040  13.087 -1.1709  0.7878  1.3588
 5674TIP3   OH238512   4.504   3.495   5.035  0.7726  0.2183 -0.6566
 5674TIP3    H138513   4.510   3.405   5.002  2.6912 -0.6352  1.8815
 5674TIP3    H238514   4.502   3.485   5.130  1.2702  2.8877 -0.3474
 5675TIP3   OH238515   3.970   4.851  11.111 -0.3875  0.0779 -0.4291
 5675TIP3    H138516   3.902   4.900  11.066 -1.0008 -0.2581  0.1169
 5675TIP3    H238517   4.032   4.917  11.142  0.2901  0.2749 -2.1688
 5676TIP3   OH238518   1.515   5.789   6.019 -0.5050  0.0585 -0.1994
 5676TIP3    H138519   1.447   5.834   5.969 -1.7276  0.1426  1.5060
 5676TIP3    H238520   1.476   5.774   6.105  1.1669 -1.0842  0.3838
 5677TIP3   OH238521   2.544   0.994  13.711  0.1010  0.0148  0.2301
 5677TIP3    H138522   2.624   0.980  13.661 -1.0274  0.3044 -1.6961
 5677TIP3    H238523   2.537   1.089  13.718 -0.5494  0.0159 -0.3983
 5678TIP3   OH238524   6.713   1.415   5.100  0.4449  0.6154  0.1606
 5678TIP3    H138525   6.639   1.431   5.042  0.5972  1.4809  0.1965
 5678TIP3    H238526   6.728   1.499   5.144  1.6673  0.5542 -0.1138
 5679TIP3   OH238527   1.339   6.454   4.941 -0.0334  0.0047 -0.5066
 5679TIP3    H138528   1.293   6.509   5.004  2.4232  0.8596  0.6082
 5679TIP3    H238529   1.393   6.396   4.995  1.3272  0.0540 -1.7865
 5680TIP3   OH238530   3.143   4.824  10.953  0.5963  0.2981  0.6646
 5680TIP3    H138531   3.048   4.817  10.943  0.9115 -0.2408 -2.3683
 5680TIP3    H238532   3.159   4.917  10.970 -0.3873  0.5927 -0.0071
 5681TIP3   OH238533   4.605   2.439   4.386 -0.2220 -0.1839 -0.0269
 5681TIP3    H138534   4.678   2.403   4.337  0.2685 -0.2216  0.7236
 5681TIP3    H238535   4.621   2.534   4.386 -0.4639 -0.1410 -0.3182
 5682TIP3   OH238536   1.432   6.756   2.714  0.2106 -0.4062 -0.1774
 5682TIP3    H138537   1.433   6.726   2.805  0.4498 -1.0260 -0.3761
 5682TIP3    H238538   1.488   6.834   2.713  0.3918 -0.5319  0.1630
 5683TIP3   OH238539   1.320   3.737  15.520  0.2986 -0.0955 -0.3586
 5683TIP3    H138540   1.299   3.643  15.523  0.0174  0.0024  2.1131
 5683TIP3    H238541   1.284   3.772  15.602  0.1040  2.2476 -1.4126
 5684TIP3   OH238542   4.362   3.182   3.224 -0.1141  0.5684 -0.0387
 5684TIP3    H138543   4.298   3.212   3.290 -0.2664 -0.9960  0.5471
 5684TIP3    H238544   4.444   3.176   3.273 -0.0407  0.2359 -0.2093
 5685TIP3   OH238545   4.956   3.425   4.749  0.2738 -0.8076  0.5701
 5685TIP3    H138546   5.044   3.463   4.748  0.8028 -1.9747  1.5316
 5685TIP3    H238547   4.903   3.487   4.799 -0.4431  1.9531 -3.3673
 5686TIP3   OH238548   6.620   1.477   1.904  0.5749 -0.6648  0.5793
 5686TIP3    H138549   6.538   1.498   1.947  1.2392  3.5855 -0.0340
 5686TIP3    H238550   6.687   1.498   1.969  1.3680  0.9701 -0.7355
 5687TIP3   OH238551   0.286   0.901  15.351  0.0966  0.4714  0.4167
 5687TIP3    H138552   0.346   0.835  15.317 -2.7559 -2.1369  0.1323
 5687TIP3    H238553   0.308   0.981  15.305  2.7332 -0.6415 -0.3135
 5688TIP3   OH238554   0.563   6.203  16.757 -0.1617  0.0424 -0.7290
 5688TIP3    H138555   0.594   6.265  16.691  0.7938 -1.0411 -1.3200
 5688TIP3    H238556   0.596   6.118  16.727  0.5606 -0.4199  1.3318
 5689TIP3   OH238557   4.938   6.628  16.667 -0.3082 -0.1170  0.3855
 5689TIP3    H138558   4.899   6.628  16.580 -0.1890  0.2883  0.3295
 5689TIP3    H238559   5.008   6.562  16.662 -1.5096 -1.4371  0.7336
 5690TIP3   OH238560   4.814   6.401   0.148  0.7509 -0.4323 -0.2015
 5690TIP3    H138561   4.797   6.338   0.077  0.6722  0.9236 -1.4134
 5690TIP3    H238562   4.822   6.485   0.103 -0.7241  0.6627  1.5478
 5691TIP3   OH238563   6.296   2.399   5.437 -0.6206 -0.1499  0.1851
 5691TIP3    H138564   6.345   2.340   5.379 -1.9444  0.3412 -1.5058
 5691TIP3    H238565   6.351   2.477   5.444 -1.3954  0.6646 -2.2328
 5692TIP3   OH238566   0.325   1.098   0.127  0.6044  0.3863 -0.4258
 5692TIP3    H138567   0.377   1.053   0.194  0.0771 -0.2710 -0.4492
 5692TIP3    H238568   0.387   1.113   0.055  0.7493 -0.4673 -0.4852
 5693TIP3   OH238569   0.664   0.481   5.689 -0.3113 -0.5853 -0.6707
 5693TIP3    H138570   0.734   0.517   5.744 -0.2734 -1.1318 -0.3556
 5693TIP3    H238571   0.695   0.492   5.599 -0.2120 -0.0182 -0.5681
 5694TIP3   OH238572   2.699   0.339  17.191 -0.3396  0.2744  0.0662
 5694TIP3    H138573   2.720   0.285  17.267  0.7765 -0.9061 -1.0464
 5694TIP3    H238574   2.705   0.279  17.117 -3.3605  0.9393 -0.7816
 5695TIP3   OH238575   5.207   1.392   5.809  0.0655  0.1627  0.0001
 5695TIP3    H138576   5.163   1.476   5.804 -1.1170 -0.3415  1.6267
 5695TIP3    H238577   5.299   1.412   5.793 -0.4354  1.5165 -1.2895
 5696TIP3   OH238578   1.661   5.668  16.380 -0.4076  0.6790  0.1000
 5696TIP3    H138579   1.715   5.694  16.306 -2.4594 -0.3994 -1.8141
 5696TIP3    H238580   1.624   5.750  16.412 -1.4944  0.9067 -1.6739
 5697TIP3   OH238581   4.571   1.913   1.666 -0.7816  0.5530 -0.5270
 5697TIP3    H138582   4.546   1.982   1.726  0.8573 -0.2128  1.0878
 5697TIP3    H238583   4.564   1.953   1.579  0.0986  2.7248  0.3664
 5698TIP3   OH238584   4.369   1.274  17.271  0.2175  0.4120 -0.6404
 5698TIP3    H138585   4.450   1.307  17.311 -0.3259 -0.0690  0.8929
 5698TIP3    H238586   4.396   1.195  17.225 -0.0249 -2.0594  3.2452
 5699TIP3   OH238587   5.011   1.543  12.092  0.2864  0.4040  0.1466
 5699TIP3    H138588   4.974   1.475  12.148 -0.7223 -0.6650 -1.7406
 5699TIP3    H238589   5.106   1.537  12.106  0.0821 -0.2236  1.2847
 5700TIP3   OH238590   0.454   2.425  14.791  0.3289 -0.1176 -0.4036
 5700TIP3    H138591   0.543   2.400  14.765  0.0218 -1.8406  0.1266
 5700TIP3    H238592   0.438   2.374  14.871 -0.5644  1.3607  0.3763
 5701TIP3   OH238593   6.581   5.705  16.717 -0.2524 -0.0199  0.0045
 5701TIP3    H138594   6.577   5.612  16.694 -0.4242  0.3720 -1.6117
 5701TIP3    H238595   6.651   5.711  16.782 -0.8230 -1.3998  0.7811
 5702TIP3   OH238596   4.211   0.632   5.523  0.0032  0.0561  0.6033
 5702TIP3    H138597   4.277   0.694   5.492  1.2672 -0.3265  2.4887
 5702TIP3    H238598   4.189   0.661   5.611 -3.2025  0.8199 -0.3545
 5703TIP3   OH238599   0.615   2.078   4.131  0.7229 -0.5118  0.7417
 5703TIP3    H138600   0.552   2.133   4.084 -0.3855  0.1352  2.9043
 5703TIP3    H238601   0.697   2.127   4.127 -0.1583  1.1426  2.3013
 5704TIP3   OH238602   6.163   0.010  16.270  0.2901 -0.3178  0.1569
 5704TIP3    H138603   6.142  -0.079  16.299 -1.4377 -0.2499 -0.7995
 5704TIP3    H238604   6.209  -0.002  16.187  1.1183 -0.3497  0.6148
 5705TIP3   OH238605   5.688   1.044  13.267 -0.9885 -0.1005 -0.2986
 5705TIP3    H138606   5.627   1.105  13.307 -1.0403 -2.3004  3.1759
 5705TIP3    H238607   5.678   1.058  13.173 -1.9658  4.1969  0.3724
 5706TIP3   OH238608   1.410   5.435  12.542 -0.0796 -0.3079  0.2222
 5706TIP3    H138609   1.441   5.526  12.549  1.2676 -0.6427 -1.1297
 5706TIP3    H238610   1.465   5.387  12.604 -0.1662 -0.3550  0.2617
 5707TIP3   OH238611   2.250   2.546   3.439 -0.0586  0.1569 -0.3622
 5707TIP3    H138612   2.158   2.519   3.447 -0.2926  0.3897 -2.1875
 5707TIP3    H238613   2.259   2.618   3.501 -0.5010 -1.3632  1.5209
 5708TIP3   OH238614   2.609   4.655   0.895 -0.3860  0.5290 -0.9219
 5708TIP3    H138615   2.701   4.629   0.892  0.0846  2.2197 -1.8592
 5708TIP3    H238616   2.566   4.586   0.946  1.4038 -0.2362 -0.4106
 5709TIP3   OH238617   0.292   3.678   3.305  0.2597 -0.6890 -0.2383
 5709TIP3    H138618   0.384   3.669   3.281  0.3811  0.2768 -0.1495
 5709TIP3    H238619   0.265   3.590   3.332  1.8429 -0.4699  2.1837
 5710TIP3   OH238620   3.446   4.655   5.748  0.1430 -0.3602 -0.0097
 5710TIP3    H138621   3.481   4.717   5.684  0.9268 -0.6328  0.1474
 5710TIP3    H238622   3.386   4.707   5.802  0.5463  0.1878 -0.0870
 5711TIP3   OH238623   2.323   5.644   6.222 -0.2299  0.3688  0.0607
 5711TIP3    H138624   2.359   5.679   6.303 -0.6100 -0.3126  0.5365
 5711TIP3    H238625   2.278   5.564   6.249  1.7605 -1.2178 -1.1915
 5712TIP3   OH238626   1.747   5.705  11.305 -0.0055 -0.1697 -0.3322
 5712TIP3    H138627   1.741   5.619  11.264  0.0040 -0.3829  0.1122
 5712TIP3    H238628   1.754   5.766  11.231 -2.6929 -0.3123 -0.7480
 5713TIP3   OH238629   1.863   0.678   5.263 -0.2304 -0.1642 -0.0403
 5713TIP3    H138630   1.901   0.637   5.341  0.0437 -1.1270 -0.6706
 5713TIP3    H238631   1.779   0.712   5.293  0.0038 -0.2586  0.7497
 5714TIP3   OH238632   4.153   3.475  14.162 -0.1217  0.7046  0.3024
 5714TIP3    H138633   4.118   3.386  14.166 -0.0726  0.6550 -0.3452
 5714TIP3    H238634   4.245   3.463  14.141  0.0806  0.8771  1.0588
 5715TIP3   OH238635   2.863   2.658  16.184 -0.8010  0.1768 -0.3299
 5715TIP3    H138636   2.827   2.577  16.149  0.7106 -0.2260 -0.9762
 5715TIP3    H238637   2.949   2.667  16.143  0.0838  0.8428  1.5919
 5716TIP3   OH238638   0.282   1.484  16.263  0.0108  0.2379 -0.1810
 5716TIP3    H138639   0.305   1.545  16.193 -0.1920  0.1510 -0.3239
 5716TIP3    H238640   0.243   1.409  16.218 -1.3815  0.7630  0.1293
 5717TIP3   OH238641   6.760   3.929  11.197 -0.4146  0.6617 -0.3026
 5717TIP3    H138642   6.853   3.919  11.220 -0.6741  0.4458  0.6934
 5717TIP3    H238643   6.758   3.921  11.102  0.3685 -1.0882 -0.1938
 5718TIP3   OH238644   1.352   3.722  16.970  0.1794 -0.9184 -0.3421
 5718TIP3    H138645   1.295   3.673  17.029  2.5529 -3.2491  0.1012
 5718TIP3    H238646   1.376   3.801  17.020  1.3391 -2.3692  1.4394
 5719TIP3   OH238647   5.736   0.376   4.947 -0.1813 -0.1749 -0.0443
 5719TIP3    H138648   5.784   0.385   5.029 -0.5218  2.4139 -0.1015
 5719TIP3    H238649   5.647   0.351   4.973 -0.2836  0.6202  0.3838
 5720TIP3   OH238650   4.585   5.690  13.351 -0.0166  0.1599  0.0043
 5720TIP3    H138651   4.618   5.627  13.415 -0.2522 -0.3952 -0.4192
 5720TIP3    H238652   4.493   5.703  13.377 -0.0140  0.2032 -0.0100
 5721TIP3   OH238653   3.546   4.890   0.659  0.8946  0.2185  0.1506
 5721TIP3    H138654   3.571   4.955   0.594 -0.3615  0.7042  0.1348
 5721TIP3    H238655   3.539   4.939   0.741 -1.0712  0.3256 -0.0562
 5722TIP3   OH238656   0.198   4.013  13.835  0.3688 -0.6058  0.0701
 5722TIP3    H138657   0.142   3.943  13.871  0.0478 -1.1820 -1.5193
 5722TIP3    H238658   0.136   4.075  13.796  0.7435 -0.2642  0.0260
 5723TIP3   OH238659   3.253   0.252   2.221  0.0377  0.7115  0.6993
 5723TIP3    H138660   3.203   0.321   2.265 -0.3524 -0.4995  2.1854
 5723TIP3    H238661   3.192   0.213   2.160  0.2799  1.7183 -0.2027
 5724TIP3   OH238662   2.227   1.950   4.674  0.2229  0.3932 -0.2759
 5724TIP3    H138663   2.287   1.974   4.603 -1.4383  0.6338 -1.6454
 5724TIP3    H238664   2.207   1.858   4.659  0.0797  0.3755  0.0216
 5725TIP3   OH238665   0.208   1.611   2.668 -0.0991 -0.1859  0.4240
 5725TIP3    H138666   0.124   1.655   2.656 -0.7623 -1.5823 -0.1667
 5725TIP3    H238667   0.187   1.531   2.716  0.7580 -0.9638 -0.4658
 5726TIP3   OH238668   2.076   3.048  16.777 -0.0085  0.8109 -0.2348
 5726TIP3    H138669   2.058   2.985  16.707  0.9035  0.1386  0.1221
 5726TIP3    H238670   2.129   2.999  16.840 -0.1816  1.6341  0.5550
 5727TIP3   OH238671   3.830   0.295  14.320 -0.4679  0.1583 -0.3266
 5727TIP3    H138672   3.748   0.246  14.323  0.8548 -2.1875 -1.0397
 5727TIP3    H238673   3.884   0.256  14.389  0.6669  0.5029 -1.0027
 5728TIP3   OH238674   2.240   4.111   6.344 -0.1696 -0.1816 -0.2551
 5728TIP3    H138675   2.310   4.175   6.331 -0.2567 -0.0444 -0.0431
 5728TIP3    H238676   2.180   4.126   6.271  0.0689 -0.3597 -0.4868
 5729TIP3   OH238677   5.836   1.096   2.828  0.0498  0.0545 -0.0776
 5729TIP3    H138678   5.754   1.049   2.808 -0.5156  0.5244  1.0386
 5729TIP3    H238679   5.896   1.026   2.855  0.2818 -0.3812 -1.6607
 5730TIP3   OH238680   0.345   5.374  14.198  0.0283 -0.3537 -0.4813
 5730TIP3    H138681   0.257   5.365  14.235  0.4402 -2.8737 -0.0453
 5730TIP3    H238682   0.335   5.439  14.129 -2.1828 -0.6030 -0.4366
 5731TIP3   OH238683   1.093   3.126   2.691  1.1520 -0.9732 -0.1094
 5731TIP3    H138684   1.045   3.121   2.774  1.2879 -0.7263 -0.0180
 5731TIP3    H238685   1.082   3.216   2.661  2.5344 -0.5728  0.5007
 5732TIP3   OH238686   6.235   1.171   4.436  0.3873 -0.5146 -0.1919
 5732TIP3    H138687   6.243   1.266   4.434  0.6065 -0.5419 -0.8661
 5732TIP3    H238688   6.157   1.152   4.383  0.1367 -0.6904  0.2348
 5733TIP3   OH238689   0.664   1.989   2.180 -0.2104  0.0573  0.1880
 5733TIP3    H138690   0.617   1.920   2.228 -0.5781 -0.4398 -0.8805
 5733TIP3    H238691   0.682   1.951   2.094  1.0873  0.6873  0.1720
 5734TIP3   OH238692   3.439   5.445   2.105  0.3291 -0.5867  0.0132
 5734TIP3    H138693   3.500   5.410   2.170  1.3826  2.5850  0.8323
 5734TIP3    H238694   3.483   5.431   2.021  3.2702  3.5500  0.7447
 5735TIP3   OH238695   0.369   5.895  13.216 -0.7945  0.1232 -0.1897
 5735TIP3    H138696   0.390   5.843  13.293 -0.2279  1.5829  0.6676
 5735TIP3    H238697   0.313   5.965  13.249  0.0949  1.2176 -0.9463
 5736TIP3   OH238698   5.975   4.263  12.721  0.0587 -0.3150  0.1526
 5736TIP3    H138699   5.891   4.273  12.765  0.0972 -0.5269  0.2785
 5736TIP3    H238700   6.000   4.172  12.739  1.6847  0.5677  2.5054
 5737TIP3   OH238701   3.118   5.806   1.207  0.1448 -0.0023 -0.2905
 5737TIP3    H138702   3.122   5.749   1.284 -0.5658  0.0555 -0.2028
 5737TIP3    H238703   3.025   5.826   1.198  0.2665  0.2530 -0.9762
 5738TIP3   OH238704   1.075   1.694  14.015 -0.0424 -0.0282  0.2735
 5738TIP3    H138705   1.053   1.782  14.047  0.2106  0.6727 -1.3989
 5738TIP3    H238706   0.999   1.668  13.963 -0.5357 -1.2308  1.5727
 5739TIP3   OH238707   3.949   4.590  16.015 -0.4451 -0.2297  0.3107
 5739TIP3    H138708   3.950   4.685  16.008  2.7746 -0.2934 -1.1530
 5739TIP3    H238709   3.938   4.559  15.925 -2.6089 -1.2752  0.9050
 5740TIP3   OH238710   5.307   5.829   1.490 -0.2425  0.2092 -0.2069
 5740TIP3    H138711   5.389   5.872   1.512 -0.0992 -0.2389  0.1219
 5740TIP3    H238712   5.326   5.736   1.495 -0.2774  0.0865 -1.9396
 5741TIP3   OH238713   1.314   2.839  17.194 -0.6822 -0.5931  0.1070
 5741TIP3    H138714   1.282   2.845  17.284 -1.5614 -0.0016 -0.2344
 5741TIP3    H238715   1.407   2.861  17.200 -0.6246 -1.0422  0.9403
 5742TIP3   OH238716   1.043   0.800   5.138 -0.3355 -0.2432 -0.9064
 5742TIP3    H138717   1.122   0.745   5.141 -1.0136 -1.2810 -1.5405
 5742TIP3    H238718   1.056   0.855   5.060  0.0859  0.0981 -0.5977
 5743TIP3   OH238719   3.142   1.728  16.601 -0.0049 -0.2122 -0.0342
 5743TIP3    H138720   3.192   1.692  16.675  0.1999  1.4290  0.6564
 5743TIP3    H238721   3.193   1.804  16.574  0.7814 -1.7181 -2.9421
 5744TIP3   OH238722   1.665   2.348   4.259 -0.2902 -0.3585 -0.4414
 5744TIP3    H138723   1.724   2.397   4.203  1.5477 -1.4548  0.5060
 5744TIP3    H238724   1.709   2.344   4.344 -0.9228 -2.6355 -0.1688
 5745TIP3   OH238725   1.780   2.229   6.853  0.0671 -0.2395 -0.6400
 5745TIP3    H138726   1.803   2.303   6.797  0.2219 -1.4709 -2.2448
 5745TIP3    H238727   1.693   2.201   6.822  0.0873 -0.8422 -0.1768
 5746TIP3   OH238728   0.620   1.561   1.505  0.2195 -0.1189  0.2534
 5746TIP3    H138729   0.698   1.555   1.561  1.5702 -1.0461 -1.6599
 5746TIP3    H238730   0.640   1.505   1.430 -1.4981  1.1782 -1.2286
 5747TIP3   OH238731   3.706   6.067  14.535 -0.7789  0.1182 -0.0694
 5747TIP3    H138732   3.749   6.139  14.580 -0.8932 -0.1358  0.4497
 5747TIP3    H238733   3.762   6.049  14.459 -1.7944  2.0748 -1.3254
 5748TIP3   OH238734   2.003   0.851  12.172 -0.1011  0.3455 -0.1648
 5748TIP3    H138735   2.090   0.855  12.133 -1.1366  0.9008 -2.4820
 5748TIP3    H238736   1.978   0.759  12.166 -0.0281  0.3333 -0.2896
 5749TIP3   OH238737   3.934   6.339  15.479 -0.2020 -0.0083  0.0013
 5749TIP3    H138738   4.014   6.286  15.472 -0.7847 -1.2324  2.0938
 5749TIP3    H238739   3.964   6.429  15.468  1.4489 -0.4649  0.5524
 5750TIP3   OH238740   4.181   2.389  13.572  0.1370  0.0714 -0.0445
 5750TIP3    H138741   4.087   2.387  13.592 -0.0270  3.0058 -0.2211
 5750TIP3    H238742   4.223   2.387  13.657 -0.0751 -1.0595  0.0440
 5751TIP3   OH238743   5.029   3.890  16.345 -0.4497  0.2174 -0.2037
 5751TIP3    H138744   5.094   3.960  16.339  0.2210 -0.3633  0.2301
 5751TIP3    H238745   4.947   3.932  16.321  0.1994  0.7925 -1.4985
 5752TIP3   OH238746   3.740   1.475  12.914  0.6055 -0.2124 -0.3272
 5752TIP3    H138747   3.726   1.504  13.005 -1.2523 -1.9283 -0.0322
 5752TIP3    H238748   3.722   1.381  12.916 -1.8114  0.1339 -2.9602
 5753TIP3   OH238749   6.377   3.275   2.533 -0.4038  0.5044  0.7990
 5753TIP3    H138750   6.324   3.227   2.596  0.2098 -1.2663 -0.0107
 5753TIP3    H238751   6.334   3.260   2.449 -0.3298  1.5659  0.5606
 5754TIP3   OH238752   4.524   2.586   1.592 -0.0362  0.0195 -0.6334
 5754TIP3    H138753   4.443   2.549   1.628 -1.2331  0.8867 -2.3395
 5754TIP3    H238754   4.536   2.540   1.509  0.8261  0.4182 -0.7339
 5755TIP3   OH238755   1.910   3.950   3.570  0.0243 -0.1930  0.0451
 5755TIP3    H138756   1.927   3.866   3.612 -2.1024 -0.4546  0.4407
 5755TIP3    H238757   1.933   3.937   3.478  2.5815 -0.2810  0.6503
 5756TIP3   OH238758   5.700   1.000   4.117 -0.2489 -0.7141  0.1534
 5756TIP3    H138759   5.750   1.070   4.159 -1.0343 -0.2265  0.2992
 5756TIP3    H238760   5.639   1.046   4.059  0.1585 -1.3397 -0.7824
 5757TIP3   OH238761   5.067   2.231   3.903  0.0746 -0.7758  0.2022
 5757TIP3    H138762   5.022   2.311   3.930 -0.0082 -0.0489 -1.9981
 5757TIP3    H238763   5.054   2.227   3.808  1.5329 -2.4965  0.0459
 5758TIP3   OH238764   5.650   0.122   6.328  0.0245  0.1654 -0.1219
 5758TIP3    H138765   5.721   0.119   6.392 -0.2550  1.2533  0.2625
 5758TIP3    H238766   5.572   0.137   6.381 -0.8225 -3.0742 -0.3277
 5759TIP3   OH238767   3.026   5.236   5.456  0.0926 -0.7706 -0.6895
 5759TIP3    H138768   3.006   5.295   5.528 -0.1572 -1.1272 -0.4621
 5759TIP3    H238769   3.100   5.276   5.411 -1.3837  0.8025 -1.7871
 5760TIP3   OH238770   6.051   2.025  12.125 -0.2464 -0.5686 -0.1203
 5760TIP3    H138771   6.081   2.013  12.035 -0.8319 -2.1117 -0.1112
 5760TIP3    H238772   6.130   2.049  12.173  0.5237 -2.1192 -0.5909
 5761TIP3   OH238773   3.151   1.114  15.240 -0.5425  0.3251 -0.4549
 5761TIP3    H138774   3.118   1.056  15.308 -2.7838 -0.2356 -1.9879
 5761TIP3    H238775   3.081   1.118  15.175  1.1205  1.7023 -2.2198
 5762TIP3   OH238776   5.949   6.178  15.730  0.2893 -0.2437  0.1358
 5762TIP3    H138777   5.895   6.101  15.714 -0.5859  0.1874  0.9327
 5762TIP3    H238778   6.037   6.153  15.700 -0.4415 -0.7764 -1.6137
 5763TIP3   OH238779   5.500   2.896   1.618 -0.0791 -0.0154 -0.5469
 5763TIP3    H138780   5.454   2.975   1.590 -1.6676 -1.0365 -0.8850
 5763TIP3    H238781   5.593   2.916   1.603 -0.6566  0.5375 -3.8169
 5764TIP3   OH238782   4.927   0.381   2.815 -0.0282  0.0014  0.1035
 5764TIP3    H138783   4.934   0.412   2.724 -0.2739  2.8012  0.9674
 5764TIP3    H238784   4.976   0.299   2.817 -0.1792 -0.1946 -2.5999
 5765TIP3   OH238785   4.603   5.072   0.419  0.1439  0.5568  0.3805
 5765TIP3    H138786   4.638   5.146   0.467 -0.9922  1.0040  0.5419
 5765TIP3    H238787   4.640   5.081   0.331  0.9314  0.6548  0.7187
 5766TIP3   OH238788   1.452   5.645  16.696  0.4864  0.3117 -0.4058
 5766TIP3    H138789   1.447   5.709  16.625  1.1986  0.4844 -0.2983
 5766TIP3    H238790   1.432   5.562  16.654 -1.1655  0.6939 -0.4034
 5767TIP3   OH238791   1.875   6.042  13.955  0.0351  0.7895  0.1977
 5767TIP3    H138792   1.941   5.974  13.969  1.9638  2.9651  2.2486
 5767TIP3    H238793   1.920   6.110  13.904 -1.8404  0.5866 -1.7953
 5768TIP3   OH238794   0.848   2.378   2.559 -0.2401  0.3451  0.1079
 5768TIP3    H138795   0.806   2.454   2.598  0.6799  2.0144 -2.0707
 5768TIP3    H238796   0.938   2.381   2.592 -0.0385  0.5745 -0.4450
 5769TIP3   OH238797   4.840   6.497   4.084  0.1855  0.5459  0.3809
 5769TIP3    H138798   4.784   6.430   4.044 -0.1047  0.7205  0.4976
 5769TIP3    H238799   4.900   6.521   4.014 -0.9747  1.5797 -0.2759
 5770TIP3   OH238800   1.683   0.137  14.608  0.5836  0.2235  0.1415
 5770TIP3    H138801   1.655   0.046  14.609 -0.9086  0.6597  0.5900
 5770TIP3    H238802   1.671   0.166  14.698 -1.4032  1.5481 -0.5056
 5771TIP3   OH238803   1.535   2.463  14.276 -0.0208  0.5553 -0.2274
 5771TIP3    H138804   1.609   2.409  14.249 -1.0527 -0.3352 -1.3552
 5771TIP3    H238805   1.567   2.513  14.351  1.9100  0.6753 -1.1114
 5772TIP3   OH238806   2.545   3.891  11.982  0.8208  0.3878  0.1173
 5772TIP3    H138807   2.578   3.825  12.044  1.1761 -0.9554 -1.4679
 5772TIP3    H238808   2.618   3.952  11.970  2.2432 -1.6422 -2.0935
 5773TIP3   OH238809   3.613   2.291   1.622  0.0499  0.6117 -0.7697
 5773TIP3    H138810   3.699   2.250   1.633  0.6599  1.8401 -0.9073
 5773TIP3    H238811   3.555   2.241   1.681  0.5328 -1.1478 -1.7518
 5774TIP3   OH238812   4.710   5.526   2.151 -0.1344  0.3187  0.0548
 5774TIP3    H138813   4.698   5.616   2.120 -2.3851  0.0539  0.0464
 5774TIP3    H238814   4.657   5.474   2.091  1.1478 -1.0349  0.0718
 5775TIP3   OH238815   0.363   4.345  14.895  0.0127  0.0523  0.4432
 5775TIP3    H138816   0.385   4.383  14.980 -0.0792  0.4191  0.3033
 5775TIP3    H238817   0.404   4.404  14.832 -0.8943  0.4210  0.1942
 5776TIP3   OH238818   5.169   5.265  16.237  0.5554  0.6274  0.0058
 5776TIP3    H138819   5.205   5.329  16.176 -0.7561  1.3567 -0.0218
 5776TIP3    H238820   5.244   5.235  16.288  1.3344  1.4795 -0.6331
 5777TIP3   OH238821   6.423   1.771  16.887  0.0643  0.2373 -0.1790
 5777TIP3    H138822   6.479   1.837  16.847 -1.9974  2.7415  0.9072
 5777TIP3    H238823   6.350   1.761  16.827 -1.4574  1.6764  1.3867
 5778TIP3   OH238824   1.358   0.849  11.560 -0.7358  0.2764  0.0710
 5778TIP3    H138825   1.331   0.901  11.636 -0.5575  1.1805 -0.4652
 5778TIP3    H238826   1.279   0.839  11.508 -0.5053  1.1641 -0.4796
 5779TIP3   OH238827   0.146   6.178   2.176 -0.0157 -0.6971 -0.2627
 5779TIP3    H138828   0.106   6.246   2.230  0.4513 -0.7982  0.2049
 5779TIP3    H238829   0.169   6.109   2.237 -2.0714 -2.0457 -0.9377
 5780TIP3   OH238830   6.089   4.292   0.381  0.0929  0.2998  0.1105
 5780TIP3    H138831   6.125   4.204   0.376  0.6961  0.6183 -1.3667
 5780TIP3    H238832   5.994   4.281   0.375  0.1823 -0.2213 -0.2782
 5781TIP3   OH238833   1.353   4.002  11.877 -0.3507  0.0309 -0.0554
 5781TIP3    H138834   1.369   4.082  11.827  1.7139  0.1925  0.7866
 5781TIP3    H238835   1.277   4.023  11.931 -0.7186  0.9183 -0.8893
 5782TIP3   OH238836   4.237   6.202   5.108 -0.0475  0.2177 -0.3225
 5782TIP3    H138837   4.189   6.184   5.188 -1.4906 -0.7217 -1.3632
 5782TIP3    H238838   4.329   6.183   5.130 -0.4951 -0.5242  0.9533
 5783TIP3   OH238839   2.209   1.330   3.793 -0.1381  0.1565 -0.5067
 5783TIP3    H138840   2.202   1.389   3.717 -0.3931 -0.1074 -0.6871
 5783TIP3    H238841   2.217   1.243   3.754  1.1444  0.1473 -0.2673
 5784TIP3   OH238842   5.069   0.664   5.292  0.3109 -0.6166 -0.0614
 5784TIP3    H138843   5.095   0.580   5.329 -2.1696 -0.7941  1.4604
 5784TIP3    H238844   5.031   0.643   5.207  1.1418 -0.8468 -0.3746
 5785TIP3   OH238845   3.215   3.630  16.381 -0.4208  0.1927 -0.2921
 5785TIP3    H138846   3.236   3.588  16.298 -0.5082 -1.5775  0.5569
 5785TIP3    H238847   3.205   3.723  16.359 -1.1121 -0.3411 -2.3696
 5786TIP3   OH238848   2.780   6.454  14.774  0.3207 -0.1531 -0.0546
 5786TIP3    H138849   2.754   6.478  14.686  0.1127 -0.2928 -0.0309
 5786TIP3    H238850   2.868   6.491  14.784  0.4519 -0.3653 -0.4115
 5787TIP3   OH238851   3.077   2.852   3.566  0.0783 -0.1841  0.6516
 5787TIP3    H138852   3.068   2.935   3.518  0.9322 -0.5125 -0.0791
 5787TIP3    H238853   3.098   2.878   3.656 -0.2884  0.4012  0.5718
 5788TIP3   OH238854   2.711   6.352  13.890  0.0417  0.2804 -0.5731
 5788TIP3    H138855   2.666   6.405  13.823  0.7880  1.3336 -0.2556
 5788TIP3    H238856   2.785   6.314  13.843 -0.2783 -0.1808 -0.7071
 5789TIP3   OH238857   1.467   5.735   1.462 -0.2991  0.1225 -0.5551
 5789TIP3    H138858   1.447   5.774   1.377  1.0638  2.2286  0.0616
 5789TIP3    H238859   1.400   5.772   1.521 -0.2059 -0.0008 -0.3725
 5790TIP3   OH238860   3.161   3.078   4.676 -0.6596 -1.1675  0.2639
 5790TIP3    H138861   3.094   3.110   4.616  1.2337 -0.4868 -1.5660
 5790TIP3    H238862   3.232   3.142   4.669  2.1639 -4.3155 -1.4959
 5791TIP3   OH238863   3.871   0.128  12.254 -0.5058 -0.2657  0.3802
 5791TIP3    H138864   3.822   0.068  12.198  1.2518 -1.1371 -0.2586
 5791TIP3    H238865   3.911   0.191  12.193  0.9978 -0.9109  0.6741
 5792TIP3   OH238866   4.303   4.807   5.776 -0.2653  0.9290 -0.2692
 5792TIP3    H138867   4.314   4.740   5.707  1.1635  0.0698  0.7578
 5792TIP3    H238868   4.391   4.842   5.789 -0.4727  0.8816  1.3240
 5793TIP3   OH238869   4.941   3.692   6.213 -0.1358 -0.4898 -0.7090
 5793TIP3    H138870   5.007   3.633   6.249  0.0970 -2.0394 -3.4983
 5793TIP3    H238871   4.857   3.657   6.245  0.2755  0.4349  1.4043
 5794TIP3   OH238872   4.263   4.034   4.451 -0.5428  0.2106 -0.0044
 5794TIP3    H138873   4.203   3.960   4.438  0.7452 -0.9021  0.2384
 5794TIP3    H238874   4.239   4.096   4.382 -3.0845  0.5497  1.1415
 5795TIP3   OH238875   4.297   6.316  14.485  0.3344  0.1310 -0.0291
 5795TIP3    H138876   4.314   6.302  14.391 -1.0948 -2.1557  0.0040
 5795TIP3    H238877   4.258   6.234  14.514 -0.7415  1.4087  2.2300
 5796TIP3   OH238878   1.001   4.187  12.426 -1.1035 -0.2858  0.2375
 5796TIP3    H138879   1.083   4.150  12.461 -1.4825 -0.0523  1.3886
 5796TIP3    H238880   1.027   4.272  12.391 -0.7639 -0.4128  0.1743
 5797TIP3   OH238881   3.795   3.743  10.409 -0.1816  0.8101 -0.1672
 5797TIP3    H138882   3.731   3.747  10.480 -0.3987 -1.3464 -0.2265
 5797TIP3    H238883   3.795   3.832  10.373 -1.9172  1.2774  0.9018
 5798TIP3   OH238884   0.331   3.848  15.506  0.4238  0.0645  0.1402
 5798TIP3    H138885   0.382   3.785  15.557 -1.5843  0.7576  3.1206
 5798TIP3    H238886   0.395   3.890  15.449  2.0921 -3.4220 -0.6897
 5799TIP3   OH238887   6.608   4.386   3.972  0.0367 -0.0288  0.8626
 5799TIP3    H138888   6.626   4.473   4.006 -0.2523  0.3874 -0.0281
 5799TIP3    H238889   6.515   4.387   3.950  0.3623 -0.0673 -0.5581
 5800TIP3   OH238890   1.140   2.542   6.593  0.3022 -0.0403  0.3778
 5800TIP3    H138891   1.153   2.459   6.639  2.7451 -0.9011 -1.6981
 5800TIP3    H238892   1.072   2.524   6.529  1.3011 -0.6843 -0.5260
 5801TIP3   OH238893   0.118   0.844  13.029 -0.0772 -0.4886  0.3291
 5801TIP3    H138894   0.097   0.786  13.102 -0.6140 -2.4661 -1.3818
 5801TIP3    H238895   0.212   0.835  13.017  0.5214  2.0134  2.5609
 5802TIP3   OH238896   3.987   5.076  15.870 -0.0910  0.5248 -0.0023
 5802TIP3    H138897   4.025   4.999  15.828  2.1130  2.9073 -2.5684
 5802TIP3    H238898   3.915   5.102  15.813 -1.6012 -0.3137  1.4985
 5803TIP3   OH238899   6.298   5.595  17.146 -0.3481  0.9566 -0.0388
 5803TIP3    H138900   6.263   5.673  17.187 -2.0197  1.0111 -1.5313
 5803TIP3    H238901   6.305   5.617  17.053  3.9973  1.0789  0.2055
 5804TIP3   OH238902   2.534   2.456  13.318  0.0902  0.2880 -0.0430
 5804TIP3    H138903   2.491   2.522  13.371  0.5990 -0.4424  1.3017
 5804TIP3    H238904   2.596   2.413  13.377  1.8957  0.5893 -1.6559
 5805TIP3   OH238905   5.738   1.116  11.856  0.0565 -0.0687 -0.0138
 5805TIP3    H138906   5.794   1.119  11.779 -0.8309 -0.2509 -0.6772
 5805TIP3    H238907   5.796   1.090  11.928  0.6197 -1.2700 -0.8805
 5806TIP3   OH238908   3.349   2.102   5.108  0.1017 -0.0708  0.4487
 5806TIP3    H138909   3.291   2.058   5.171 -1.5341 -1.5435 -1.9792
 5806TIP3    H238910   3.289   2.149   5.050  1.4907  0.2517 -0.7513
 5807TIP3   OH238911   4.441   0.853   1.486 -0.1121  0.0538  0.4254
 5807TIP3    H138912   4.372   0.915   1.509  0.7818  1.1499  0.2058
 5807TIP3    H238913   4.475   0.822   1.569  3.2752  4.1797  0.7974
 5808TIP3   OH238914   2.613   3.387  15.802 -0.1458  0.5161 -0.1542
 5808TIP3    H138915   2.675   3.389  15.730 -0.2252  1.6085 -0.2003
 5808TIP3    H238916   2.540   3.333  15.769 -0.2180  1.0729 -0.9192
 5809TIP3   OH238917   0.156   1.050  12.527 -0.6243  0.1218  0.0814
 5809TIP3    H138918   0.138   1.125  12.583 -1.9995 -0.7618  0.8732
 5809TIP3    H238919   0.160   1.086  12.438 -1.8396  1.0325  0.3891
 5810TIP3   OH238920   1.704   1.155   0.736  0.4898 -0.5567  0.1096
 5810TIP3    H138921   1.785   1.104   0.748 -0.7371 -2.3745  0.9365
 5810TIP3    H238922   1.666   1.121   0.655  0.6674  0.4530 -0.3964
 5811TIP3   OH238923   0.242   2.348   3.266 -0.0242 -0.4315 -0.0023
 5811TIP3    H138924   0.261   2.410   3.196 -0.2321 -0.6265 -0.2303
 5811TIP3    H238925   0.249   2.400   3.346 -0.7907  0.0247 -0.2303
 5812TIP3   OH238926   4.876   6.463   5.097 -0.5106  0.4836 -0.1087
 5812TIP3    H138927   4.802   6.516   5.068 -1.5805 -2.6986 -3.5380
 5812TIP3    H238928   4.842   6.374   5.100  2.2903 -0.5865  1.6037
 5813TIP3   OH238929   6.435   4.181  14.549 -0.4313 -0.1607 -0.1422
 5813TIP3    H138930   6.469   4.182  14.460 -1.1745  1.2854 -0.4216
 5813TIP3    H238931   6.394   4.267  14.560  1.8147  0.6557  2.4236
 5814TIP3   OH238932   3.540   2.823  10.808  0.3230 -0.1779  0.2855
 5814TIP3    H138933   3.568   2.732  10.815  0.9423  0.1337  2.1693
 5814TIP3    H238934   3.531   2.838  10.714  1.4066 -1.8289 -0.1075
 5815TIP3   OH238935   1.832   2.872  11.663  0.4193 -0.4776  0.2179
 5815TIP3    H138936   1.764   2.940  11.659  0.4995 -0.2432  2.0896
 5815TIP3    H238937   1.909   2.918  11.696  1.2153 -0.9615 -0.9402
 5816TIP3   OH238938   4.579   1.367  15.461 -0.2833 -0.3012  0.4611
 5816TIP3    H138939   4.635   1.290  15.455  0.2893 -0.1394  3.0532
 5816TIP3    H238940   4.637   1.437  15.492 -1.2084  0.6984 -0.0133
 5817TIP3   OH238941   3.516   0.604   2.391 -0.2036 -0.1409 -0.3836
 5817TIP3    H138942   3.576   0.531   2.404 -0.8042 -0.3208  1.7045
 5817TIP3    H238943   3.507   0.643   2.478 -0.2645  2.1382 -1.3810
 5818TIP3   OH238944   1.120   2.970  13.857 -0.2423 -0.3408  0.6070
 5818TIP3    H138945   1.153   2.945  13.943 -1.1456  1.3659  1.4816
 5818TIP3    H238946   1.193   3.015  13.814 -0.6669  1.3384  1.6122
 5819TIP3   OH238947   3.005   5.120  13.899 -0.2276 -0.1475  0.2199
 5819TIP3    H138948   3.059   5.171  13.960 -1.4968  0.1279  1.1161
 5819TIP3    H238949   2.976   5.044  13.949  0.2715 -0.9054 -0.6153
 5820TIP3   OH238950   6.413   5.716  13.009  0.5641 -0.3416  0.6287
 5820TIP3    H138951   6.480   5.668  12.960  1.2894  1.3900 -0.1033
 5820TIP3    H238952   6.331   5.689  12.968  1.0704  0.1520 -0.7560
 5821TIP3   OH238953   2.114   1.326  11.934  0.3446 -0.2923 -0.2520
 5821TIP3    H138954   2.166   1.406  11.944 -2.8876  2.0226 -0.9051
 5821TIP3    H238955   2.144   1.288  11.851  2.5747 -0.3001  0.5337
 5822TIP3   OH238956   5.005   0.480   5.646 -0.2699 -0.3727  0.0089
 5822TIP3    H138957   4.982   0.404   5.592 -0.2640 -0.8092  0.6107
 5822TIP3    H238958   4.920   0.516   5.673 -0.2691 -1.3646  1.3741
 5823TIP3   OH238959   4.618   3.786  12.164  0.1703 -0.5151 -0.6354
 5823TIP3    H138960   4.614   3.706  12.111 -0.9612 -1.4656  0.8587
 5823TIP3    H238961   4.564   3.767  12.240 -0.2294  1.7468 -0.3330
 5824TIP3   OH238962   1.285   4.538   2.933 -0.7617 -0.6070 -0.6547
 5824TIP3    H138963   1.330   4.611   2.891  2.8107 -2.9788 -1.1687
 5824TIP3    H238964   1.264   4.570   3.021  0.3093  1.2111 -1.0370
 5825TIP3   OH238965   3.067   5.889   2.438 -0.0278  0.0071 -0.0751
 5825TIP3    H138966   3.011   5.840   2.499  2.2270 -0.6061  1.6154
 5825TIP3    H238967   3.122   5.942   2.495  1.2117  0.4634 -1.6688
 5826TIP3   OH238968   3.365   3.469  12.723  0.1023  0.4183 -0.3140
 5826TIP3    H138969   3.356   3.501  12.633 -0.9852  0.8579 -0.0559
 5826TIP3    H238970   3.343   3.544  12.777 -2.1035 -0.6379  0.2969
 5827TIP3   OH238971   3.947   6.288  14.315 -0.4483 -0.1412 -0.2827
 5827TIP3    H138972   3.933   6.341  14.394 -1.6187  1.1639 -1.3387
 5827TIP3    H238973   4.026   6.323  14.276 -1.3105  0.9664 -1.0664
 5828TIP3   OH238974   4.958   1.418   1.901 -0.7028  0.2912  0.0232
 5828TIP3    H138975   4.919   1.503   1.879 -1.7226 -0.7472 -2.2931
 5828TIP3    H238976   4.923   1.398   1.988  2.0047  3.6418  2.0151
 5829TIP3   OH238977   0.227   1.189  11.933 -0.1435 -0.7014  0.1503
 5829TIP3    H138978   0.250   1.096  11.937  0.8111 -0.4957 -0.4559
 5829TIP3    H238979   0.133   1.190  11.949  0.0134 -1.6780  1.1943
 5830TIP3   OH238980   5.156   1.057   4.263 -0.1854 -0.3071 -0.3337
 5830TIP3    H138981   5.182   0.965   4.271 -0.9416 -0.6691 -1.8566
 5830TIP3    H238982   5.174   1.095   4.349  0.0952 -1.8879  0.3152
 5831TIP3   OH238983   5.829   2.927  17.173 -0.3032  0.0891 -0.1065
 5831TIP3    H138984   5.825   2.962  17.262 -0.2657  1.3508 -0.5795
 5831TIP3    H238985   5.916   2.950  17.142  0.4512 -2.1927  0.2508
 5832TIP3   OH238986   1.269   5.700  16.278  0.1991 -0.5013 -0.5170
 5832TIP3    H138987   1.249   5.682  16.186 -1.5977 -0.7660 -0.1007
 5832TIP3    H238988   1.323   5.626  16.306  1.0122 -0.2567 -1.4488
 5833TIP3   OH238989   1.349   0.952  15.582 -0.0826 -0.3808  0.2857
 5833TIP3    H138990   1.409   0.897  15.531  0.2433  0.3761 -0.1478
 5833TIP3    H238991   1.327   1.024  15.523  0.7145  0.7897  1.4028
 5834TIP3   OH238992   1.334   2.408   4.918 -0.1623 -0.4602  0.2566
 5834TIP3    H138993   1.315   2.390   4.826 -3.1920 -0.6399  0.8809
 5834TIP3    H238994   1.278   2.348   4.966  2.0087 -0.9727  2.2612
 5835TIP3   OH238995   4.286   0.406  12.354 -0.3247  0.0853  0.8142
 5835TIP3    H138996   4.346   0.395  12.427  0.9608  0.6199 -0.1520
 5835TIP3    H238997   4.262   0.317  12.329  2.2317 -0.2744 -0.5523
 5836TIP3   OH238998   4.685   0.655   4.213 -0.3205 -0.0617  0.4927
 5836TIP3    H138999   4.609   0.712   4.213 -0.3678 -0.0710  2.7338
 5836TIP3    H239000   4.759   0.714   4.193 -0.9519 -0.2019 -2.5115
 5837TIP3   OH239001   3.937   0.377  13.427  0.1279  0.4829 -0.0568
 5837TIP3    H139002   3.967   0.403  13.340  1.4733 -1.0794 -0.0902
 5837TIP3    H239003   3.947   0.282  13.428 -3.5234  0.0505  0.4713
 5838TIP3   OH239004   6.246   1.770  10.431  0.0748  0.1124  0.2370
 5838TIP3    H139005   6.253   1.844  10.370 -0.9556  1.8035  2.1315
 5838TIP3    H239006   6.158   1.777  10.468  0.3459 -1.4510  1.2391
 5839TIP3   OH239007   4.918   6.221  16.594  0.7002  0.4376 -0.1382
 5839TIP3    H139008   4.841   6.241  16.540  1.4135 -0.2359 -1.4214
 5839TIP3    H239009   4.881   6.192  16.677 -0.4006  5.0240  1.1096
 5840TIP3   OH239010   6.213   1.432  11.891  0.3934  0.0883 -0.5636
 5840TIP3    H139011   6.192   1.368  11.959 -1.2143  0.9708 -0.2159
 5840TIP3    H239012   6.303   1.412  11.866  0.9361 -0.3589  1.7035
 5841TIP3   OH239013   5.663   4.362  13.197  0.3372 -0.1395 -0.4223
 5841TIP3    H139014   5.680   4.406  13.114  0.0287 -0.1279 -0.4810
 5841TIP3    H239015   5.692   4.272  13.184 -0.5165 -0.3587 -0.8290
 5842TIP3   OH239016   2.461   4.564  15.794  0.0686 -0.8411  0.5244
 5842TIP3    H139017   2.408   4.491  15.763 -1.2365  0.3632 -0.1743
 5842TIP3    H239018   2.442   4.571  15.887 -0.7122 -0.6641  0.3557
 5843TIP3   OH239019   0.476   3.956  15.279  0.3041 -0.4460  0.0481
 5843TIP3    H139020   0.511   3.895  15.214  1.4747 -0.6716  0.8778
 5843TIP3    H239021   0.452   4.034  15.228  0.1514 -1.0497 -0.8105
 5844TIP3   OH239022   6.518   2.339  12.256 -0.4046 -0.2801  0.2099
 5844TIP3    H139023   6.498   2.302  12.170  0.3684 -0.8091  0.2504
 5844TIP3    H239024   6.461   2.290  12.316 -0.7684 -0.0805  0.0295
 5845TIP3   OH239025   2.452   0.756   1.275  0.3489 -0.4178  0.4649
 5845TIP3    H139026   2.453   0.664   1.300 -1.6066  0.3896  3.8676
 5845TIP3    H239027   2.533   0.792   1.311 -0.3076 -0.2115  1.7629
 5846TIP3   OH239028   3.372   3.177  13.396  0.5346  0.0455  0.0530
 5846TIP3    H139029   3.466   3.185  13.413  0.4159  1.1458  0.2553
 5846TIP3    H239030   3.362   3.199  13.304  0.4344  0.3466  0.1337
 5847TIP3   OH239031   5.116   5.302   2.919  0.3305  0.0695  0.4152
 5847TIP3    H139032   5.119   5.354   2.838  1.9265  0.2381  0.5759
 5847TIP3    H239033   5.114   5.211   2.889 -1.6892  0.1876  0.1466
 5848TIP3   OH239034   4.303   1.010   3.761 -0.2547 -0.2096 -0.0755
 5848TIP3    H139035   4.220   1.019   3.715 -0.7409 -0.4356  0.7362
 5848TIP3    H239036   4.351   0.943   3.712 -0.9792 -0.8225  0.0296
 5849TIP3   OH239037   6.250   6.178  15.687  0.6271 -0.4226 -0.2815
 5849TIP3    H139038   6.314   6.112  15.712 -0.1206 -1.2496 -0.5149
 5849TIP3    H239039   6.301   6.258  15.673  1.3543 -0.5707  1.4794
 5850TIP3   OH239040   6.648   5.561   5.102  0.2343 -0.2627 -0.2423
 5850TIP3    H139041   6.608   5.632   5.153 -0.0509 -0.2566 -0.4727
 5850TIP3    H239042   6.589   5.487   5.114  0.3583 -0.3675 -0.2727
 5851TIP3   OH239043   0.922   0.168   2.190  0.1122 -0.1164  0.0953
 5851TIP3    H139044   0.908   0.096   2.129  0.6596  0.1883 -0.4005
 5851TIP3    H239045   0.909   0.130   2.276 -1.7340 -0.3094 -0.2405
 5852TIP3   OH239046   3.761   2.216   4.676 -0.4601  0.1563  0.1113
 5852TIP3    H139047   3.681   2.267   4.659 -0.8328 -0.4157  0.1254
 5852TIP3    H239048   3.830   2.265   4.632 -1.2409 -0.7172 -2.2194
 5853TIP3   OH239049   0.154   2.728   5.478  0.5633  0.5231  0.1451
 5853TIP3    H139050   0.103   2.792   5.428 -1.1350  0.5362  1.8390
 5853TIP3    H239051   0.093   2.694   5.544  0.9904 -3.8124 -1.4807
 5854TIP3   OH239052   3.591   0.466  10.601 -0.4705 -0.0640  0.1478
 5854TIP3    H139053   3.537   0.519  10.542 -1.5405 -1.4859 -0.1843
 5854TIP3    H239054   3.533   0.446  10.675 -0.8002 -2.4964 -0.7068
 5855TIP3   OH239055   5.282   6.642  14.122  0.0018 -0.6539 -0.1094
 5855TIP3    H139056   5.266   6.685  14.038  0.9315 -0.5445 -0.2310
 5855TIP3    H239057   5.198   6.600  14.143 -0.7991  0.8783 -0.1693
 5856TIP3   OH239058   3.439   5.198   5.417 -0.2707  0.1325 -1.0059
 5856TIP3    H139059   3.507   5.249   5.462 -1.1930  1.3409 -0.9402
 5856TIP3    H239060   3.487   5.144   5.354  0.7171  1.3898 -1.3636
 5857TIP3   OH239061   3.965   5.029   1.089  0.0591 -0.7529  0.1149
 5857TIP3    H139062   4.020   5.099   1.054 -2.5141  0.2143 -2.2044
 5857TIP3    H239063   3.993   4.951   1.041  0.9365 -0.7449  0.5950
 5858TIP3   OH239064   0.676   0.379  14.554  0.2535  0.4740 -0.0940
 5858TIP3    H139065   0.683   0.468  14.588 -0.5071  0.8392 -0.8688
 5858TIP3    H239066   0.619   0.387  14.478  2.3243 -0.2358 -1.7833
 5859TIP3   OH239067   3.771   4.715   5.500  0.6668 -0.4206  0.9357
 5859TIP3    H139068   3.733   4.646   5.555 -1.5583 -0.8342 -1.0634
 5859TIP3    H239069   3.866   4.703   5.510  0.3358 -3.3898  1.1129
 5860TIP3   OH239070   2.920   3.629  16.307  0.6133 -0.1310  0.4336
 5860TIP3    H139071   2.966   3.646  16.225 -2.2374  1.2275 -0.9501
 5860TIP3    H239072   2.909   3.533  16.308  1.1481 -0.2085 -0.4904
 5861TIP3   OH239073   6.520   5.570  15.090 -0.4909 -0.5896  0.1174
 5861TIP3    H139074   6.452   5.506  15.108 -0.3054 -1.2957 -1.5536
 5861TIP3    H239075   6.476   5.639  15.039 -0.0713 -0.8284 -0.5838
 5862TIP3   OH239076   1.010   5.207  13.427 -0.3993  1.0808  0.6294
 5862TIP3    H139077   1.087   5.150  13.432  0.3055  1.6964 -2.1137
 5862TIP3    H239078   1.033   5.284  13.478  0.4782  0.8668  0.5595
 5863TIP3   OH239079   1.537   0.239  11.787 -0.0881 -0.4149  0.2838
 5863TIP3    H139080   1.522   0.296  11.862 -1.0687  2.1136 -1.7359
 5863TIP3    H239081   1.471   0.170  11.796 -1.5571  0.9991  0.7225
 5864TIP3   OH239082   4.459   3.570  15.887  0.2176 -0.4283  0.0655
 5864TIP3    H139083   4.475   3.500  15.823  0.1779  0.4603 -0.9330
 5864TIP3    H239084   4.525   3.557  15.954  0.8797 -0.8069 -0.6514
 5865TIP3   OH239085   5.290   2.910   2.988 -0.7024 -0.0023  0.3597
 5865TIP3    H139086   5.276   2.836   3.047  0.7737  0.0077  0.7380
 5865TIP3    H239087   5.311   2.983   3.045  1.8679 -0.2545 -0.1786
 5866TIP3   OH239088   1.844   5.665  13.143  0.2491 -0.1664  0.4361
 5866TIP3    H139089   1.837   5.753  13.181  0.0416  0.0698 -0.1406
 5866TIP3    H239090   1.788   5.610  13.198 -1.3267  0.4907 -0.4639
 5867TIP3   OH239091   2.910   4.945  15.095  0.0258  0.3658  0.4212
 5867TIP3    H139092   2.919   4.960  15.189  0.2306  1.2545  0.2617
 5867TIP3    H239093   2.919   5.032  15.056 -1.5632  0.2227 -0.3096
 5868TIP3   OH239094   1.352   4.726  11.071  0.2408 -0.4542 -0.3556
 5868TIP3    H139095   1.263   4.705  11.101  0.0246  1.0628  0.1266
 5868TIP3    H239096   1.342   4.809  11.025  1.7422  0.8031  1.5454
 5869TIP3   OH239097   6.535   4.456   0.843 -0.2638  0.2559 -0.1380
 5869TIP3    H139098   6.443   4.429   0.845 -0.0556 -0.5269 -0.6625
 5869TIP3    H239099   6.557   4.457   0.750  0.1701  0.7573 -0.0309
 5870TIP3   OH239100   2.149   4.055  13.006 -0.0574 -0.3195  0.1015
 5870TIP3    H139101   2.174   4.025  13.093  1.1004 -1.3973 -0.5872
 5870TIP3    H239102   2.135   3.975  12.956  0.1546  0.2907 -0.9504
 5871TIP3   OH239103   0.454   0.020  15.717 -0.1940  0.2820 -0.2795
 5871TIP3    H139104   0.471   0.085  15.649 -1.7020  0.0309 -0.9404
 5871TIP3    H239105   0.445   0.071  15.798 -1.3648  0.9108 -0.7901
 5872TIP3   OH239106   3.848   6.298  17.194 -0.0361  0.0785 -0.3263
 5872TIP3    H139107   3.822   6.311  17.103  0.4573  0.0174 -0.4842
 5872TIP3    H239108   3.782   6.240  17.231 -0.5405  0.5492 -0.4951
 5873TIP3   OH239109   4.032   2.477  12.498 -0.7837  0.3396 -0.0624
 5873TIP3    H139110   3.948   2.467  12.543 -0.0875  0.5575  1.3276
 5873TIP3    H239111   4.092   2.423  12.549 -0.2812 -0.6150 -1.6421
 5874TIP3   OH239112   1.343   3.040  12.676 -0.7325 -0.1269  0.2240
 5874TIP3    H139113   1.321   2.947  12.676  0.3865 -0.4067 -1.2099
 5874TIP3    H239114   1.315   3.071  12.590 -0.9103  0.8234  0.6177
 5875TIP3   OH239115   2.097   0.631  11.931 -0.4296 -0.3903 -0.3301
 5875TIP3    H139116   2.124   0.542  11.910 -0.7245 -0.5458 -0.0524
 5875TIP3    H239117   2.178   0.681  11.933 -0.1213 -0.9117  0.7682
 5876TIP3   OH239118   6.375   2.708   1.968 -0.5328  0.1544 -0.0641
 5876TIP3    H139119   6.287   2.671   1.972 -0.0997 -0.7691  1.1118
 5876TIP3    H239120   6.364   2.799   1.995 -1.0389 -0.1005  0.5876
 5877TIP3   OH239121   0.140   4.106  11.753  0.3162  0.1249 -0.5630
 5877TIP3    H139122   0.054   4.095  11.714  0.2990 -0.9632 -0.2347
 5877TIP3    H239123   0.189   4.159  11.690 -0.3531  0.1163 -1.0913
 5878TIP3   OH239124   6.156   2.292   1.262 -0.3888  0.2981 -0.1100
 5878TIP3    H139125   6.211   2.241   1.321  0.6707  0.2951 -1.0852
 5878TIP3    H239126   6.211   2.366   1.236 -0.5437 -0.1215 -1.7076
 5879TIP3   OH239127   1.030   4.412   3.512  0.6473 -1.0940  0.1798
 5879TIP3    H139128   0.997   4.342   3.455 -0.1614 -0.9812  0.5017
 5879TIP3    H239129   0.970   4.412   3.586  1.7363 -1.2738  1.0617
 5880TIP3   OH239130   0.436   4.920   2.371  0.5427 -0.0239  0.1541
 5880TIP3    H139131   0.363   4.981   2.359  1.4137  0.6135 -2.0982
 5880TIP3    H239132   0.513   4.976   2.383  1.1856 -0.6644 -0.8950
 5881TIP3   OH239133   0.017   6.476   6.279  0.6681  0.3634 -0.2503
 5881TIP3    H139134  -0.056   6.445   6.332 -0.3197  1.2121 -1.1058
 5881TIP3    H239135   0.081   6.507   6.343 -0.3214  0.9404  0.4767
 5882TIP3   OH239136   1.870   4.569   5.525  0.2538 -0.3461  0.4518
 5882TIP3    H139137   1.777   4.587   5.542  0.4107 -0.0934  1.0558
 5882TIP3    H239138   1.886   4.483   5.564  0.5002  0.0304  1.2047
 5883TIP3   OH239139   2.101   3.537  12.619 -0.3124  0.1229  0.3096
 5883TIP3    H139140   2.079   3.500  12.704 -0.0640 -2.0760 -0.5586
 5883TIP3    H239141   2.045   3.491  12.556 -0.0181  1.2383 -0.8075
 5884TIP3   OH239142   2.376   2.857   5.651 -0.4016  0.0737  0.1562
 5884TIP3    H139143   2.437   2.841   5.723  1.1531 -1.7405 -1.5027
 5884TIP3    H239144   2.356   2.770   5.616 -0.7675  0.9544 -1.8948
 5885TIP3   OH239145   0.706   4.758  17.096  0.6390 -0.0923 -0.0920
 5885TIP3    H139146   0.687   4.849  17.076  0.9245 -0.1049 -0.4129
 5885TIP3    H239147   0.738   4.721  17.014 -0.2418 -0.6870 -0.1833
 5886TIP3   OH239148   3.099   3.563  11.753  0.5159  0.5298 -0.0592
 5886TIP3    H139149   3.156   3.528  11.685 -0.0218 -1.0752  0.3002
 5886TIP3    H239150   3.115   3.657  11.751  3.3127  0.1080  0.1640
 5887TIP3   OH239151   4.009   6.155  12.685 -0.7117  0.0772  0.0262
 5887TIP3    H139152   4.098   6.143  12.652 -0.8517 -3.3522  0.6440
 5887TIP3    H239153   3.961   6.192  12.611  1.1901  2.0123 -0.2964
 5888TIP3   OH239154   0.904   5.008  15.028 -0.2544 -0.0518 -0.7696
 5888TIP3    H139155   0.881   5.098  15.003  2.1734  0.6621 -0.5748
 5888TIP3    H239156   0.963   5.018  15.103  0.5797 -1.7619 -1.1664
 5889TIP3   OH239157   5.309   2.146   2.296 -0.0051 -0.0225 -0.5426
 5889TIP3    H139158   5.330   2.227   2.342  2.0497  0.5532 -2.4429
 5889TIP3    H239159   5.377   2.085   2.324  0.0371 -0.2844 -1.2168
 5890TIP3   OH239160   1.468   6.044  16.570  0.0738  0.2002 -0.3704
 5890TIP3    H139161   1.405   5.993  16.520 -1.0027 -0.5183  1.6746
 5890TIP3    H239162   1.429   6.051  16.657  1.3269  2.4799  0.0353
 5891TIP3   OH239163   3.219   5.977  14.850  0.3901  0.1098  0.0887
 5891TIP3    H139164   3.218   5.931  14.934 -0.9359 -1.6364 -0.8296
 5891TIP3    H239165   3.310   6.003  14.836  0.4388  1.3371  2.5336
 5892TIP3   OH239166   6.452   0.894  14.311 -0.1530  0.1371  0.6137
 5892TIP3    H139167   6.359   0.910  14.296  0.0724  0.6169 -0.2963
 5892TIP3    H239168   6.484   0.857  14.228  0.1979 -1.2405  1.3467
 5893TIP3   OH239169   0.728   4.654  16.151 -0.1484 -0.1983 -0.2644
 5893TIP3    H139170   0.763   4.727  16.100 -2.3960  2.3581  1.6688
 5893TIP3    H239171   0.635   4.653  16.130 -0.6241 -0.7590  1.7764
 5894TIP3   OH239172   3.929   4.320  10.408 -0.2715 -0.6880  0.8066
 5894TIP3    H139173   3.844   4.276  10.406 -0.6750  0.0911  0.4172
 5894TIP3    H239174   3.922   4.382  10.480 -0.5851  0.4431 -0.1837
 5895TIP3   OH239175   4.411   2.883  15.472 -0.3074  0.6548 -0.5458
 5895TIP3    H139176   4.377   2.940  15.403  1.4216  2.0568 -0.2838
 5895TIP3    H239177   4.360   2.907  15.549 -1.0942  0.2806 -0.9478
 5896TIP3   OH239178   5.762   2.096   0.204  0.4313 -0.0643 -0.4338
 5896TIP3    H139179   5.716   2.153   0.143 -2.0306  0.1426  1.5161
 5896TIP3    H239180   5.838   2.148   0.233 -0.5281  1.3477 -0.4044
 5897TIP3   OH239181   1.492   3.246   0.406  0.4888 -0.3654 -0.1260
 5897TIP3    H139182   1.473   3.267   0.497 -0.4472 -0.9125 -0.1914
 5897TIP3    H239183   1.423   3.289   0.356  0.1194 -1.3203 -0.4545
 5898TIP3   OH239184   4.068   5.959  14.811 -0.1794 -0.1521  0.3558
 5898TIP3    H139185   4.044   5.871  14.784  0.0848  0.1176 -0.8236
 5898TIP3    H239186   4.034   6.015  14.741  0.8492  0.5456  0.3960
 5899TIP3   OH239187   4.524   4.166  16.475  0.1421 -0.0727 -0.3564
 5899TIP3    H139188   4.537   4.089  16.420  0.0257 -0.3735  0.0340
 5899TIP3    H239189   4.463   4.220  16.425 -1.2127 -1.0663  0.1765
 5900TIP3   OH239190   4.296   5.339   2.775  0.3428 -0.3760 -0.3198
 5900TIP3    H139191   4.302   5.253   2.735  0.0962 -1.1225  1.2231
 5900TIP3    H239192   4.387   5.369   2.782  0.4206 -0.4712 -0.9393
 5901TIP3   OH239193   4.138   2.017  10.775 -0.5907  0.7366  0.6806
 5901TIP3    H139194   4.212   1.984  10.725 -1.0921  0.6990 -0.0435
 5901TIP3    H239195   4.072   1.949  10.769 -2.4750  2.7279 -2.6769
 5902TIP3   OH239196   1.232   0.601   5.128 -0.3093 -0.4937  0.8972
 5902TIP3    H139197   1.308   0.575   5.074  0.8467  2.4494  1.0282
 5902TIP3    H239198   1.167   0.532   5.111  1.8658 -2.3510 -0.3084
 5903TIP3   OH239199   0.124   4.283  14.729  0.7760  0.3646  0.3159
 5903TIP3    H139200   0.091   4.368  14.702  0.0777 -0.2925 -0.9710
 5903TIP3    H239201   0.204   4.302  14.777  0.6372  1.7436  0.0063
 5904TIP3   OH239202   5.340   1.442   1.597 -0.1228  0.3519 -0.1030
 5904TIP3    H139203   5.397   1.407   1.528  2.3113 -0.0611  2.0396
 5904TIP3    H239204   5.296   1.516   1.556  4.3475  2.6818 -0.9781
 5905TIP3   OH239205   5.485   0.548  11.970  0.1301 -0.3537 -0.8962
 5905TIP3    H139206   5.485   0.641  11.948  1.8608 -0.5967 -1.9888
 5905TIP3    H239207   5.502   0.503  11.888  3.5632 -1.4048  0.2661
 5906TIP3   OH239208   2.575   3.041   0.932  0.0717 -0.1206 -0.5325
 5906TIP3    H139209   2.513   3.107   0.962  1.8597  0.4397  2.1368
 5906TIP3    H239210   2.523   2.961   0.923 -1.1593  0.4555  1.1679
 5907TIP3   OH239211   0.714   5.993   5.598 -0.2851 -0.0879 -0.0482
 5907TIP3    H139212   0.668   6.010   5.516 -0.9451  2.5713  0.8159
 5907TIP3    H239213   0.780   5.927   5.576 -2.2290 -1.3909 -2.0725
 5908TIP3   OH239214   2.033   3.830   1.735 -0.3966 -0.0054  0.2791
 5908TIP3    H139215   1.940   3.816   1.752  0.1038 -1.2555  2.1389
 5908TIP3    H239216   2.065   3.745   1.707 -0.3627  1.1008 -3.2579
 5909TIP3   OH239217   4.126   5.393  13.145  0.4694  0.1012 -0.3324
 5909TIP3    H139218   4.110   5.299  13.156 -0.5546  0.5073  1.8811
 5909TIP3    H239219   4.055   5.435  13.194 -0.3106  2.0660 -3.0321
 5910TIP3   OH239220   4.333   1.875  11.283  0.1594  0.0022 -0.0015
 5910TIP3    H139221   4.287   1.919  11.211 -0.4375 -0.3482  0.1607
 5910TIP3    H239222   4.423   1.866  11.253 -0.1039 -0.2032 -0.7296
 5911TIP3   OH239223   0.187   5.550   2.322 -0.0083 -0.2797  0.5450
 5911TIP3    H139224   0.168   5.643   2.310  0.1456 -0.1426  1.3595
 5911TIP3    H239225   0.204   5.518   2.233 -0.7260  0.3166  0.1792
 5912TIP3   OH239226   4.262   5.463   0.244  0.1703 -0.2319  0.2861
 5912TIP3    H139227   4.274   5.511   0.326 -2.7519 -1.2247  1.3658
 5912TIP3    H239228   4.192   5.511   0.199 -1.2935 -2.2064  0.4038
 5913TIP3   OH239229   6.671   4.444  11.931  0.2769 -0.5050 -0.7296
 5913TIP3    H139230   6.682   4.404  11.845  0.7016 -0.8669 -0.5131
 5913TIP3    H239231   6.630   4.375  11.984 -1.1092  0.1368 -0.9720
 5914TIP3   OH239232   1.468   4.318   0.020  0.2549  0.5816  0.1348
 5914TIP3    H139233   1.393   4.322   0.079  0.7591 -0.2460  0.8284
 5914TIP3    H239234   1.530   4.381   0.056 -0.1449  1.3685 -0.5170
 5915TIP3   OH239235   6.158   3.654  13.086 -0.7086  0.0276  0.0439
 5915TIP3    H139236   6.162   3.589  13.016  0.9766  1.1810 -0.9688
 5915TIP3    H239237   6.249   3.677  13.103 -1.1049 -0.0030  2.4263
 5916TIP3   OH239238   2.033   4.640  13.230  0.1173  0.1301  0.0126
 5916TIP3    H139239   2.082   4.560  13.247  0.9555  0.9037  1.2565
 5916TIP3    H239240   1.949   4.627  13.273 -0.1943 -0.5465 -0.7837
 5917TIP3   OH239241   3.516   3.462   0.218  0.0260  0.0957  0.0203
 5917TIP3    H139242   3.573   3.468   0.294 -0.1781 -1.8403  0.3658
 5917TIP3    H239243   3.576   3.445   0.145  0.1533  1.1988 -0.1429
 5918TIP3   OH239244   0.187   4.289  12.626  0.6506  0.0925  0.2333
 5918TIP3    H139245   0.121   4.275  12.695  0.8012  0.1332  0.3852
 5918TIP3    H239246   0.202   4.202  12.590  0.9376 -0.0058  0.5856
 5919TIP3   OH239247   1.266   3.830  12.723  0.1756 -0.0393  0.4998
 5919TIP3    H139248   1.325   3.831  12.647 -0.8948 -0.8409 -0.3716
 5919TIP3    H239249   1.193   3.887  12.697 -0.5845 -0.9552  0.5837
 5920TIP3   OH239250   0.816   4.190   4.513  0.1597  0.4393  0.1643
 5920TIP3    H139251   0.748   4.257   4.505  0.2912  0.7141  1.2041
 5920TIP3    H239252   0.770   4.113   4.547  0.2822  0.4709  0.3996
 5921TIP3   OH239253   1.828   0.604   0.868  0.3753 -0.1987  0.2447
 5921TIP3    H139254   1.756   0.542   0.879  0.1674  0.3533  2.2222
 5921TIP3    H239255   1.799   0.663   0.799 -0.5765 -0.6712  0.2352
 5922TIP3   OH239256   6.540   5.676   1.369  0.5058  0.0164 -0.3516
 5922TIP3    H139257   6.599   5.707   1.437 -1.3914  1.4221  0.7299
 5922TIP3    H239258   6.511   5.590   1.399 -0.7457  0.8564  0.9623
 5923TIP3   OH239259   4.540   2.763  15.243 -0.1028  0.6748 -0.3330
 5923TIP3    H139260   4.499   2.714  15.172  1.1156  0.1913 -0.7178
 5923TIP3    H239261   4.469   2.779  15.305 -0.4336 -2.0527  0.0651
 5924TIP3   OH239262   2.654   2.267   3.960  0.1987 -0.1803  0.1981
 5924TIP3    H139263   2.707   2.252   4.039 -0.2648 -1.8957  0.2011
 5924TIP3    H239264   2.564   2.275   3.992 -0.1091 -1.8109 -0.2312
 5925TIP3   OH239265   1.625   0.597  13.854 -0.0845  0.6628 -0.4788
 5925TIP3    H139266   1.561   0.662  13.822 -1.2415 -0.3508 -0.2794
 5925TIP3    H239267   1.700   0.649  13.881 -1.9177  2.1709  2.0023
 5926TIP3   OH239268   2.878   3.587  13.643 -0.2006 -0.1573  0.1438
 5926TIP3    H139269   2.920   3.504  13.665  0.2562 -0.0364 -0.2905
 5926TIP3    H239270   2.858   3.581  13.550 -0.5216  0.0656  0.1965
 5927TIP3   OH239271   1.375   3.619  14.225 -0.7120  0.1136  0.0192
 5927TIP3    H139272   1.447   3.637  14.285 -1.1215  0.8410  0.3014
 5927TIP3    H239273   1.414   3.566  14.156  0.3553  1.3682 -0.3676
 5928TIP3   OH239274   5.275   5.408  14.651  0.3938 -0.3893  0.0581
 5928TIP3    H139275   5.238   5.368  14.572  0.4196 -0.9297  0.3195
 5928TIP3    H239276   5.279   5.502  14.631 -2.8439 -0.0681  0.7218
 5929TIP3   OH239277   4.057   2.271  13.248  0.1381  0.0280  0.2777
 5929TIP3    H139278   3.989   2.208  13.271  0.2868 -0.4324 -0.5506
 5929TIP3    H239279   4.078   2.253  13.157  0.0973  1.3579 -0.0088
 5930TIP3   OH239280   4.584   5.486  16.057  0.1663 -0.1689  0.7390
 5930TIP3    H139281   4.666   5.440  16.077 -0.3648 -1.0849  0.8317
 5930TIP3    H239282   4.582   5.491  15.961  2.0792  3.0787  0.7697
 5931TIP3   OH239283   3.146   4.843  14.911  0.7680  0.3492 -0.2160
 5931TIP3    H139284   3.197   4.914  14.873  2.4926 -0.3493  0.7274
 5931TIP3    H239285   3.073   4.887  14.955  2.0448  1.5788  0.7143
 5932TIP3   OH239286   4.006   2.325  16.605  0.3327  0.1519 -0.8715
 5932TIP3    H139287   4.015   2.389  16.675 -1.7799 -0.4015 -0.0673
 5932TIP3    H239288   3.933   2.357  16.552  0.3430 -0.7110 -1.4137
 5933TIP3   OH239289   4.845   6.217  15.596  0.1049  0.3151  0.2533
 5933TIP3    H139290   4.865   6.267  15.517  2.6119  1.0849  1.3108
 5933TIP3    H239291   4.784   6.272  15.645  0.6922  1.0781  0.1267
 5934TIP3   OH239292   3.320   1.532   3.995  0.3002  0.2475 -0.0564
 5934TIP3    H139293   3.243   1.563   4.043 -0.1614 -0.5803 -0.2534
 5934TIP3    H239294   3.312   1.570   3.908 -0.1104 -0.1773 -0.2058
 5935TIP3   OH239295   6.454   5.300   5.176  0.2969  0.0415 -0.1054
 5935TIP3    H139296   6.490   5.217   5.148 -0.3770 -0.4433  0.4415
 5935TIP3    H239297   6.445   5.292   5.271 -0.4426  0.4681 -0.1331
 5936TIP3   OH239298   6.104   1.782  15.482  0.8099 -0.2370 -0.3592
 5936TIP3    H139299   6.151   1.710  15.525 -2.6800 -3.0403 -1.0554
 5936TIP3    H239300   6.077   1.839  15.554  1.0809 -1.1479  0.4704
 5937TIP3   OH239301   0.830   1.368  15.781  0.2932  0.1605  0.4114
 5937TIP3    H139302   0.840   1.423  15.704  0.4005  0.6764  0.7927
 5937TIP3    H239303   0.742   1.331  15.773 -0.7322  2.2907  1.3800
 5938TIP3   OH239304   3.718   0.223  13.258 -0.3370  0.1760 -0.0224
 5938TIP3    H139305   3.749   0.136  13.233  1.3252  0.9777 -0.8349
 5938TIP3    H239306   3.720   0.222  13.354  1.6226 -0.0141 -0.0475
 5939TIP3   OH239307   6.699   2.977   0.702  0.2628  0.1595  0.3497
 5939TIP3    H139308   6.604   2.977   0.695  0.2008 -0.6812  1.0127
 5939TIP3    H239309   6.724   3.069   0.705 -0.6849  0.3783  2.0645
 5940TIP3   OH239310   1.407   3.544   1.119  0.5838 -0.1986 -0.2311
 5940TIP3    H139311   1.485   3.525   1.171  1.0458  0.0304 -0.8407
 5940TIP3    H239312   1.421   3.631   1.084 -1.1769  1.0044  1.8854
 5941TIP3   OH239313   1.517   5.181   6.573  0.0803 -0.1504  0.1926
 5941TIP3    H139314   1.516   5.088   6.596 -1.1137 -0.8195 -2.4037
 5941TIP3    H239315   1.586   5.189   6.508  1.7859  1.2687  2.1122
 5942TIP3   OH239316   5.416   4.681  12.508 -0.6031 -0.3803  0.0526
 5942TIP3    H139317   5.438   4.752  12.568 -1.7403 -0.4390  0.5484
 5942TIP3    H239318   5.410   4.723  12.422 -0.0780 -0.0918  0.1577
 5943TIP3   OH239319   1.820   5.993  16.315  0.6526  0.2742  0.0620
 5943TIP3    H139320   1.791   5.960  16.230 -1.2467  1.5109  0.2084
 5943TIP3    H239321   1.901   6.041  16.295  2.3523 -2.6573 -0.4454
 5944TIP3   OH239322   2.070   5.725  11.437 -0.3595 -0.0545  0.5535
 5944TIP3    H139323   2.087   5.645  11.387 -0.8725  0.6653 -0.8007
 5944TIP3    H239324   1.980   5.748  11.414  0.1731  1.5351  0.0432
 5945TIP3   OH239325   5.949   1.472  13.795  0.4307  0.0798 -0.4743
 5945TIP3    H139326   6.003   1.546  13.821  0.0610  0.3164 -0.3771
 5945TIP3    H239327   5.876   1.473  13.857  0.7835 -0.7824 -0.0311
 5946TIP3   OH239328   5.434   3.155  11.215  0.1003 -0.5661 -0.0637
 5946TIP3    H139329   5.406   3.073  11.254  0.4083 -1.0665 -0.8772
 5946TIP3    H239330   5.474   3.130  11.131  0.7097  0.3514 -0.0649
 5947TIP3   OH239331   2.983   2.015   0.441  0.0426 -0.1857  0.6799
 5947TIP3    H139332   3.030   2.014   0.524  0.0430 -1.3953  0.6737
 5947TIP3    H239333   3.046   1.978   0.378  0.7257  2.4308 -0.2448
 5948TIP3   OH239334   3.585   4.371   0.183  0.0583 -0.0399 -0.3321
 5948TIP3    H139335   3.545   4.456   0.164 -0.0352 -0.2146 -0.9242
 5948TIP3    H239336   3.653   4.390   0.247  0.9050  0.6745 -1.4177
 5949TIP3   OH239337   6.675   5.921  11.988 -0.0107  0.2297  0.2664
 5949TIP3    H139338   6.714   5.873  11.914  0.9760 -1.0285  1.5774
 5949TIP3    H239339   6.637   5.999  11.948  3.3077  1.2005 -1.1868
 5950TIP3   OH239340   5.109   2.715   0.551  0.0768 -0.4481  0.3873
 5950TIP3    H139341   5.155   2.795   0.527 -2.1543  0.7668  0.0468
 5950TIP3    H239342   5.147   2.647   0.495  0.4395  0.8153 -0.9100
 5951TIP3   OH239343   2.415   1.315   2.093 -0.1254 -0.1106 -0.5533
 5951TIP3    H139344   2.480   1.260   2.047 -0.8736 -1.3001 -0.2023
 5951TIP3    H239345   2.330   1.280   2.065 -0.6673  2.1675 -1.9076
 5952TIP3   OH239346   0.607   6.610   5.124  0.3793  0.1057 -0.3005
 5952TIP3    H139347   0.698   6.639   5.123 -0.1856  1.9149 -0.3824
 5952TIP3    H239348   0.596   6.568   5.209  1.5612 -1.0917 -0.7098
 5953TIP3   OH239349   0.838   3.330   4.494 -0.3576 -0.7289 -0.3216
 5953TIP3    H139350   0.812   3.279   4.570 -0.8065 -0.1800 -0.1032
 5953TIP3    H239351   0.840   3.421   4.525  0.5755 -0.6256 -0.6648
 5954TIP3   OH239352   1.146   5.771   3.458  0.4385  0.3806  0.1300
 5954TIP3    H139353   1.064   5.819   3.459  0.9628  1.4316 -2.5838
 5954TIP3    H239354   1.197   5.808   3.530 -1.3774 -0.1907  1.7519
 5955TIP3   OH239355   3.047   5.444   2.640  0.1645 -0.2204 -0.0323
 5955TIP3    H139356   3.027   5.354   2.615 -0.1955 -0.0641 -0.3194
 5955TIP3    H239357   3.105   5.436   2.716  1.1712 -0.7045 -0.8441
 5956TIP3   OH239358   6.428   0.332   1.630 -0.0300 -0.1294 -0.3298
 5956TIP3    H139359   6.472   0.412   1.602 -0.1622  0.0164 -0.1156
 5956TIP3    H239360   6.379   0.357   1.709 -0.6261 -0.2462 -0.6544
 5957TIP3   OH239361   3.809   0.656  14.402  0.3796  0.2605  0.2475
 5957TIP3    H139362   3.826   0.562  14.392  1.8201  0.6173 -0.8010
 5957TIP3    H239363   3.730   0.672  14.352 -1.3679 -0.8541  2.5473
 5958TIP3   OH239364   0.364   2.189   5.276  0.1499 -0.1111  0.4593
 5958TIP3    H139365   0.353   2.166   5.368  1.7084  0.8459  0.9100
 5958TIP3    H239366   0.416   2.118   5.239  2.2963  1.0740  1.1125
 5959TIP3   OH239367   4.991   3.673  16.160  0.5350  0.3621  0.0532
 5959TIP3    H139368   5.006   3.751  16.214 -1.2579  0.5164  0.3629
 5959TIP3    H239369   4.987   3.707  16.071 -0.7792  0.7231  0.2352
 5960TIP3   OH239370   1.139   0.182   0.503 -0.8900 -0.7386  0.1368
 5960TIP3    H139371   1.119   0.089   0.514  1.5325 -0.9927  2.9961
 5960TIP3    H239372   1.189   0.206   0.581  1.4957  2.1449 -2.1279
 5961TIP3   OH239373   6.704   4.659  16.955 -0.5901  0.1455  0.0224
 5961TIP3    H139374   6.750   4.740  16.977  1.2305 -1.2602  1.5762
 5961TIP3    H239375   6.624   4.662  17.007  0.3822  0.0848  1.5607
 5962TIP3   OH239376   2.430   1.797  14.942 -0.1116 -0.4459  0.3324
 5962TIP3    H139377   2.384   1.828  15.020 -0.4588 -0.1404  0.0124
 5962TIP3    H239378   2.438   1.876  14.887  0.4749 -0.5728  0.2278
 5963TIP3   OH239379   6.377   2.434  17.286  0.1435 -0.2604  0.6035
 5963TIP3    H139380   6.353   2.429  17.193 -0.0228 -1.0485  0.6866
 5963TIP3    H239381   6.462   2.479  17.287  0.4944 -0.9140  0.0153
 5964TIP3   OH239382   6.727   0.064   6.172 -0.2221  0.4819 -0.0136
 5964TIP3    H139383   6.695   0.095   6.087  0.6515 -0.9951 -0.9042
 5964TIP3    H239384   6.656   0.008   6.205  0.5062 -1.0319 -0.9791
 5965TIP3   OH239385   0.583   0.734   0.145 -0.6656 -0.6781  0.7938
 5965TIP3    H139386   0.508   0.696   0.099  1.1930 -1.5237 -1.6410
 5965TIP3    H239387   0.622   0.661   0.194  0.0846 -0.8355 -0.0306
 5966TIP3   OH239388   6.241   6.236  17.234  0.3361  0.3694  0.2754
 5966TIP3    H139389   6.188   6.240  17.154 -1.0707  0.8405  1.2071
 5966TIP3    H239390   6.314   6.295  17.218 -0.6661  1.5157 -0.1569
 5967TIP3   OH239391   3.716   3.316   0.636  0.1646  0.7794 -0.4277
 5967TIP3    H139392   3.679   3.261   0.706  0.6841 -0.1513 -0.8648
 5967TIP3    H239393   3.775   3.376   0.682  1.3007 -0.5197 -0.1426
 5968TIP3   OH239394   2.688   5.787  14.478  0.3583  0.5138  0.9469
 5968TIP3    H139395   2.659   5.712  14.530  0.4137  0.2151  0.5572
 5968TIP3    H239396   2.741   5.839  14.538 -0.4027  0.6963  1.4626
 5969TIP3   OH239397   4.852   3.991   1.243  0.1719  0.1609 -0.6364
 5969TIP3    H139398   4.790   3.919   1.234 -0.7902  0.9211 -0.1591
 5969TIP3    H239399   4.935   3.956   1.209 -0.7207 -0.5796 -2.0801
 5970TIP3   OH239400   6.455   4.472  14.007 -0.4614 -0.0798  0.0477
 5970TIP3    H139401   6.455   4.553  13.956 -0.8894  0.1178  0.3614
 5970TIP3    H239402   6.516   4.489  14.078 -1.3813  0.3783  0.7481
 5971TIP3   OH239403   0.402   2.465  12.012  0.1189 -0.1122 -0.1438
 5971TIP3    H139404   0.376   2.531  12.077 -0.8165 -1.7284  1.1526
 5971TIP3    H239405   0.326   2.456  11.955  0.1747 -0.2184 -0.2013
 5972TIP3   OH239406   6.580   2.016  15.831  0.2378 -0.1629  0.6328
 5972TIP3    H139407   6.599   2.107  15.855  1.0021 -0.3931  0.9128
 5972TIP3    H239408   6.605   1.965  15.908  0.3653 -0.6683  0.2623
 5973TIP3   OH239409   4.859   1.791  14.688 -0.0192  0.0925  0.1644
 5973TIP3    H139410   4.895   1.868  14.643 -0.4259  1.4400  2.1127
 5973TIP3    H239411   4.768   1.785  14.657 -0.0611  0.5477  0.1985
 5974TIP3   OH239412   6.270   0.819   2.359 -0.0566  0.4223 -0.1272
 5974TIP3    H139413   6.332   0.829   2.287  0.1685  0.7138  0.1077
 5974TIP3    H239414   6.314   0.859   2.435 -0.9662  1.5908 -0.2013
 5975TIP3   OH239415   5.285   6.510   4.353 -0.0983 -0.1000 -0.1899
 5975TIP3    H139416   5.204   6.493   4.305 -0.4119  1.7770 -0.3804
 5975TIP3    H239417   5.354   6.508   4.286 -0.3539  1.0609 -0.5036
 5976TIP3   OH239418   0.433   1.984  12.632 -0.2457 -0.2475  0.3583
 5976TIP3    H139419   0.505   1.983  12.569 -0.7981  1.1486 -0.3164
 5976TIP3    H239420   0.355   1.966  12.578 -0.7611  1.2595  0.5900
 5977TIP3   OH239421   3.354   0.226  15.372 -0.1008  0.4357  0.0657
 5977TIP3    H139422   3.303   0.145  15.362  0.5465 -0.0205  0.4488
 5977TIP3    H239423   3.375   0.251  15.282  1.8982 -1.2426  0.0219
 5978TIP3   OH239424   5.780   6.791   3.008  0.0779  0.0489 -0.0318
 5978TIP3    H139425   5.869   6.759   3.022  0.2063  0.8605  1.0806
 5978TIP3    H239426   5.787   6.853   2.936  0.1474 -0.9933 -0.9372
 5979TIP3   OH239427   0.202   1.254  12.951  0.2940 -0.1003  0.2370
 5979TIP3    H139428   0.181   1.240  13.044 -1.9537 -1.2309 -0.3827
 5979TIP3    H239429   0.267   1.324  12.951 -1.1608  1.3289  2.5672
 5980TIP3   OH239430   4.064   2.116   4.304 -1.2415  0.3076  0.4609
 5980TIP3    H139431   4.104   2.151   4.384  1.4071  1.7811 -1.4286
 5980TIP3    H239432   4.072   2.021   4.314  0.5654  0.5114  1.2416
 5981TIP3   OH239433   2.329   1.232   5.881  0.6005  0.4663  0.5455
 5981TIP3    H139434   2.320   1.295   5.809 -0.9191 -0.8123 -0.4085
 5981TIP3    H239435   2.377   1.159   5.842  0.5345  0.1391  1.0820
 5982TIP3   OH239436   2.358   5.412   1.577  0.0916  0.5506 -0.1026
 5982TIP3    H139437   2.301   5.351   1.530 -0.8825  1.3663 -0.0070
 5982TIP3    H239438   2.304   5.490   1.588  0.2108  0.2915  2.5623
 5983TIP3   OH239439   5.093   2.717  13.814 -0.0271  0.0032  0.0252
 5983TIP3    H139440   5.079   2.783  13.747 -1.7220 -0.0058  0.3279
 5983TIP3    H239441   5.052   2.638  13.779  0.6443 -0.4756  0.3091
 5984TIP3   OH239442   1.801   0.961  12.032 -0.1935 -0.1815  0.2692
 5984TIP3    H139443   1.869   0.918  12.083  1.2880  0.3239 -1.2416
 5984TIP3    H239444   1.821   1.054  12.039  0.0272 -0.1124 -1.2235
 5985TIP3   OH239445   4.810   4.032  11.990 -0.2778 -0.2947  0.0124
 5985TIP3    H139446   4.845   3.944  11.977  0.6695  0.1316 -0.3993
 5985TIP3    H239447   4.827   4.076  11.907 -0.7264  0.2849  0.2265
 5986TIP3   OH239448   3.795   2.399  16.133  0.4565 -0.0986 -0.3101
 5986TIP3    H139449   3.786   2.366  16.044 -0.1497  0.4186 -0.4444
 5986TIP3    H239450   3.807   2.493  16.123 -2.2949  0.3476  0.2575
 5987TIP3   OH239451   3.685   3.017   2.982  0.6101 -0.0816 -0.3510
 5987TIP3    H139452   3.617   2.998   2.917 -1.0519  2.0421  0.7324
 5987TIP3    H239453   3.664   2.960   3.056  2.1432 -2.0445 -1.3713
 5988TIP3   OH239454   3.929   3.810   2.242  0.6655  0.1149  0.4281
 5988TIP3    H139455   3.989   3.883   2.225 -1.8668  1.8474 -1.6082
 5988TIP3    H239456   3.846   3.839   2.204 -0.1520 -4.3292 -1.4787
 5989TIP3   OH239457   1.843   2.044   0.504  0.0555 -0.3254 -0.2025
 5989TIP3    H139458   1.897   2.018   0.579  0.3539  1.1747  0.1185
 5989TIP3    H239459   1.762   1.994   0.515  0.0699 -0.0844  1.1741
 5990TIP3   OH239460   0.352   1.446   3.054  0.6389  0.3490 -0.5208
 5990TIP3    H139461   0.435   1.471   3.013 -0.0968  0.6571 -1.8345
 5990TIP3    H239462   0.289   1.510   3.022  0.2214  1.1896  1.8474
 5991TIP3   OH239463   5.431   6.077  16.306  0.3051 -0.0977  0.1567
 5991TIP3    H139464   5.383   6.137  16.248  1.3064 -0.7066 -1.3016
 5991TIP3    H239465   5.420   5.991  16.266  1.6304 -0.4147  0.4541
 5992TIP3   OH239466   2.023   5.090   2.885  0.3613  0.3411 -0.0999
 5992TIP3    H139467   2.069   5.169   2.855  3.3476 -1.2281  0.1646
 5992TIP3    H239468   2.093   5.028   2.904 -1.9547 -2.4928 -0.5738
 5993TIP3   OH239469   5.910   1.926  13.966 -0.2177 -0.0228 -0.9824
 5993TIP3    H139470   5.969   1.880  13.906 -0.6977  0.9300 -2.2004
 5993TIP3    H239471   5.910   1.872  14.045 -0.4506 -1.9074 -2.2352
 5994TIP3   OH239472   0.146   3.979   5.772 -0.2750 -0.5735 -0.3640
 5994TIP3    H139473   0.072   4.041   5.775 -0.1270 -0.3270 -1.3202
 5994TIP3    H239474   0.160   3.953   5.862  1.6406  3.1808  0.5507
 5995TIP3   OH239475   1.104   2.082   3.206  0.1555  0.0182  0.0422
 5995TIP3    H139476   1.017   2.079   3.246 -0.6706  2.0508 -1.4738
 5995TIP3    H239477   1.155   2.138   3.264 -0.0215  0.1345  0.0861
 5996TIP3   OH239478   4.366   1.750  15.006 -0.3458 -0.0525 -0.8357
 5996TIP3    H139479   4.392   1.660  15.026  0.5235  0.6886  1.5724
 5996TIP3    H239480   4.426   1.777  14.937 -0.8034 -1.4064 -1.7895
 5997TIP3   OH239481   1.179   1.915   4.139  0.0464  0.1534  0.2621
 5997TIP3    H139482   1.215   1.838   4.096 -1.6714 -0.5581  0.0809
 5997TIP3    H239483   1.206   1.988   4.082  0.5373 -0.4451 -0.2842
 5998TIP3   OH239484   3.356   3.251   4.580 -0.2222 -0.3048  0.2171
 5998TIP3    H139485   3.411   3.299   4.641  0.5080 -0.0321 -0.6422
 5998TIP3    H239486   3.418   3.202   4.526 -0.8483 -0.4004 -0.4163
 5999TIP3   OH239487   1.479   3.555   6.354 -0.0887  0.4007 -0.1409
 5999TIP3    H139488   1.476   3.470   6.397 -0.2722  1.1037  1.2928
 5999TIP3    H239489   1.569   3.585   6.366  0.0377  0.3137 -0.8480
 6000TIP3   OH239490   4.427   1.183   4.671  0.6000 -0.6737 -0.2500
 6000TIP3    H139491   4.447   1.266   4.713  0.2801 -0.9670  0.4907
 6000TIP3    H239492   4.353   1.202   4.614  0.9434 -0.3078 -0.5773
 6001TIP3   OH239493   4.479   3.499   1.125  0.4831  0.2553  0.0730
 6001TIP3    H139494   4.476   3.589   1.093  1.6888 -0.0537 -0.9663
 6001TIP3    H239495   4.395   3.486   1.169 -0.8536  1.0336 -2.1333
 6002TIP3   OH239496   1.815   6.213  15.950 -0.0488  0.0718  0.2057
 6002TIP3    H139497   1.783   6.186  16.036  1.2872 -3.3402 -0.3084
 6002TIP3    H239498   1.754   6.173  15.888 -1.1479  2.7164 -0.4948
 6003TIP3   OH239499   0.153   0.941   3.131  0.0761 -0.1659  0.0697
 6003TIP3    H139500   0.212   0.962   3.203  0.1336  2.0992 -0.5926
 6003TIP3    H239501   0.173   1.007   3.063 -3.3927  0.8899 -0.0312
 6004TIP3   OH239502   0.417   4.548   2.622  0.2995  0.0803 -0.3787
 6004TIP3    H139503   0.452   4.490   2.554 -0.1120  0.4791 -0.9336
 6004TIP3    H239504   0.417   4.494   2.701 -1.2900 -1.1114 -1.1586
 6005TIP3   OH239505   2.861   2.407   3.669 -0.3330  0.4005  0.1235
 6005TIP3    H139506   2.853   2.451   3.584  1.1626 -0.7944 -0.6638
 6005TIP3    H239507   2.876   2.478   3.731  3.0897  0.9660 -1.2749
 6006TIP3   OH239508   3.830   5.258   5.887  0.2676  0.5897  0.8083
 6006TIP3    H139509   3.846   5.269   5.981 -0.4421 -0.9416  1.1150
 6006TIP3    H239510   3.866   5.172   5.867 -0.5105  0.4811 -0.1234
 6007TIP3   OH239511   6.247   5.915  11.468  0.0901  0.0867  0.4632
 6007TIP3    H139512   6.295   5.997  11.479  0.4613 -0.4409  3.2106
 6007TIP3    H239513   6.311   5.854  11.432  0.2317  0.6056 -0.1659
 6008TIP3   OH239514   1.176   1.395   3.241 -0.2704 -0.4100 -0.0486
 6008TIP3    H139515   1.188   1.486   3.212  1.7504 -1.2765 -2.0380
 6008TIP3    H239516   1.086   1.374   3.216 -0.5990  0.8854  0.0039
 6009TIP3   OH239517   1.354   1.063   2.233 -0.5912  0.3468  0.1313
 6009TIP3    H139518   1.402   1.053   2.316 -0.6923 -0.7713  0.0669
 6009TIP3    H239519   1.344   1.157   2.222  0.4450  0.5457  0.8121
 6010TIP3   OH239520   0.409   1.884   3.043 -0.1119 -0.2450  0.6639
 6010TIP3    H139521   0.396   1.828   2.967 -0.9339  0.7063  0.0935
 6010TIP3    H239522   0.444   1.966   3.007 -3.1367  1.2524  0.9442
 6011TIP3   OH239523   4.976   5.351   0.704  0.0957 -0.0421  0.0491
 6011TIP3    H139524   4.961   5.313   0.618  0.8222 -0.0348 -0.0804
 6011TIP3    H239525   5.016   5.436   0.687  0.1802 -0.0112  0.3913
 6012TIP3   OH239526   2.596   5.878  16.143  0.1505  0.3868 -0.0054
 6012TIP3    H139527   2.598   5.945  16.211  1.1153 -0.4639  0.8297
 6012TIP3    H239528   2.506   5.844  16.145 -0.3090  1.5833 -0.3737
 6013TIP3   OH239529   0.597   1.411  16.307 -0.4552 -0.0851  0.2662
 6013TIP3    H139530   0.648   1.355  16.249  0.1084 -0.8788  1.5116
 6013TIP3    H239531   0.510   1.413  16.267 -0.3454 -1.4449 -0.0655
 6014TIP3   OH239532   1.545   5.328  11.278  0.1381 -0.1764 -0.4057
 6014TIP3    H139533   1.493   5.265  11.228  0.6837 -0.7887 -0.2130
 6014TIP3    H239534   1.608   5.363  11.214  2.4558 -2.7454  0.3475
 6015TIP3   OH239535   1.711   4.892   2.594  0.1925 -0.0801  0.1789
 6015TIP3    H139536   1.781   4.836   2.627 -0.6010 -1.2899 -0.1692
 6015TIP3    H239537   1.693   4.859   2.506 -0.5660  0.4460  0.1327
 6016TIP3   OH239538   3.862   1.595   0.841 -0.3988 -0.5384 -0.3861
 6016TIP3    H139539   3.895   1.628   0.758 -1.8698 -1.0546 -1.2077
 6016TIP3    H239540   3.921   1.523   0.864  1.3456  1.0380  0.1655
 6017TIP3   OH239541   3.424   2.490   3.758  0.7997 -0.0734  0.0431
 6017TIP3    H139542   3.420   2.583   3.734 -0.6453 -0.4198 -1.1525
 6017TIP3    H239543   3.377   2.484   3.841  0.2564  0.1701 -0.2398
 6018TIP3   OH239544   0.781   6.209   3.351 -0.7273 -0.1270 -0.9741
 6018TIP3    H139545   0.837   6.246   3.419 -0.5619 -0.0088 -1.1751
 6018TIP3    H239546   0.693   6.236   3.375 -0.5835  0.6091 -1.2572
 6019TIP3   OH239547   4.275   4.273  16.337 -0.6075  0.2795  0.2578
 6019TIP3    H139548   4.252   4.206  16.272 -1.8965  1.8031 -0.8965
 6019TIP3    H239549   4.214   4.345  16.320  0.0820  1.3397  2.1475
 6020TIP3   OH239550   5.777   1.607   5.471  0.0136  0.1592  0.4168
 6020TIP3    H139551   5.812   1.687   5.434 -0.0878 -0.4150 -0.9333
 6020TIP3    H239552   5.699   1.635   5.519 -0.8250  0.7053 -1.2229
 6021TIP3   OH239553   4.723   6.690   0.857 -0.2813 -0.8381 -0.6910
 6021TIP3    H139554   4.635   6.664   0.830 -0.5182 -0.2203 -0.5386
 6021TIP3    H239555   4.709   6.746   0.934  0.2125 -0.3151 -0.9776
 6022TIP3   OH239556   6.513   3.941  11.410 -0.2419  0.3862 -0.4666
 6022TIP3    H139557   6.584   3.910  11.354  1.4903  2.1406  0.7199
 6022TIP3    H239558   6.465   4.003  11.355 -1.6707 -1.7380 -1.6980
 6023TIP3   OH239559   2.703   3.308   1.083 -0.4378  0.5011  0.5041
 6023TIP3    H139560   2.775   3.246   1.075 -1.0171  0.0980 -2.0538
 6023TIP3    H239561   2.744   3.388   1.116  0.9096 -0.2132  0.5716
 6024TIP3   OH239562   6.555   6.501  11.635  0.0780  0.2297 -0.0543
 6024TIP3    H139563   6.506   6.468  11.560 -0.3710  0.1261  0.2785
 6024TIP3    H239564   6.508   6.581  11.661 -0.7359 -0.6059  1.1032
 6025TIP3   OH239565   6.268   5.505  13.970 -1.1495 -0.0751  0.4381
 6025TIP3    H139566   6.300   5.439  13.909 -0.4562 -1.1605  1.9332
 6025TIP3    H239567   6.288   5.469  14.057  1.0839  2.9724  1.2750
 6026TIP3   OH239568   6.659   5.488   3.318 -0.0425 -0.0783  0.2183
 6026TIP3    H139569   6.625   5.476   3.229  0.0837 -0.5140  0.2256
 6026TIP3    H239570   6.582   5.510   3.370 -0.3963 -1.4741  0.3115
 6027TIP3   OH239571   3.184   3.918  16.440  0.1387  0.0112  0.0102
 6027TIP3    H139572   3.203   3.863  16.516 -0.3531 -2.4984 -1.6312
 6027TIP3    H239573   3.247   3.990  16.446 -0.3366  0.2378  3.1399
 6028TIP3   OH239574   6.765   5.997   2.208 -0.0778 -0.8270 -0.0743
 6028TIP3    H139575   6.694   6.018   2.269  1.2842  0.6582  1.0594
 6028TIP3    H239576   6.780   6.079   2.160  1.2995 -0.9326  0.1585
 6029TIP3   OH239577   4.598   1.511  13.039 -0.2036  0.2323  0.5707
 6029TIP3    H139578   4.537   1.583  13.025 -0.8013 -0.6444 -1.5218
 6029TIP3    H239579   4.588   1.489  13.132 -0.9442  1.9826  0.9280
 6030TIP3   OH239580   5.210   0.082   4.032  0.1123 -0.4046 -0.2914
 6030TIP3    H139581   5.180   0.005   3.984 -0.0044 -0.8642  0.5021
 6030TIP3    H239582   5.157   0.154   3.999  0.3410 -0.6366 -1.1646
 6031TIP3   OH239583   2.513   2.261  10.719 -0.0200  0.1345  0.4024
 6031TIP3    H139584   2.558   2.183  10.686  0.5070 -0.0953  1.6516
 6031TIP3    H239585   2.426   2.257  10.678  0.0818 -0.9816  0.2843
 6032TIP3   OH239586   6.733   2.726  14.420  0.7388  0.9721  0.1698
 6032TIP3    H139587   6.643   2.727  14.452 -0.0898 -0.9562 -1.9367
 6032TIP3    H239588   6.755   2.818  14.406 -0.4848  1.5268  1.7651
 6033TIP3   OH239589   0.192   4.439  16.857 -0.2067  0.0546  1.1127
 6033TIP3    H139590   0.105   4.413  16.886 -1.5801  1.2884 -1.6901
 6033TIP3    H239591   0.224   4.364  16.807 -1.6049  1.2281 -1.6905
 6034TIP3   OH239592   0.401   1.466   5.217 -0.6510 -0.0693 -0.0169
 6034TIP3    H139593   0.348   1.460   5.138  0.9545  0.2801 -1.1576
 6034TIP3    H239594   0.375   1.548   5.258  0.1092  0.8758 -1.4014
 6035TIP3   OH239595   4.871   4.057  11.065 -0.8640 -0.1989 -0.6181
 6035TIP3    H139596   4.835   3.982  11.017 -0.9075  0.4520 -1.6305
 6035TIP3    H239597   4.795   4.098  11.107 -0.8823 -0.5602 -0.3028
 6036TIP3   OH239598   1.851   1.050   5.210  0.1123  0.3851  0.2598
 6036TIP3    H139599   1.789   1.056   5.283  1.3875 -2.1012  1.5987
 6036TIP3    H239600   1.815   0.982   5.154 -0.1928  1.4184 -0.8365
 6037TIP3   OH239601   5.362   0.993  15.341  0.4825  0.1998 -0.1284
 6037TIP3    H139602   5.435   1.017  15.398  0.4019 -0.7998  0.4114
 6037TIP3    H239603   5.371   1.051  15.265  0.8973  1.1774  0.6529
 6038TIP3   OH239604   4.011   5.231  13.657 -0.0238  0.1994 -0.2885
 6038TIP3    H139605   3.969   5.277  13.729 -0.6285 -1.7080  0.6136
 6038TIP3    H239606   4.104   5.231  13.680  0.2346  2.5838 -1.2404
 6039TIP3   OH239607   2.469   3.028   1.924 -0.7525  0.3747  0.3070
 6039TIP3    H139608   2.565   3.028   1.918 -0.7820 -0.2172 -0.1395
 6039TIP3    H239609   2.440   3.059   1.839 -0.9744 -0.0484  0.2306
 6040TIP3   OH239610   2.611   0.131   2.356  0.3937 -0.4864  0.2432
 6040TIP3    H139611   2.541   0.176   2.403 -0.6043 -1.9023  0.1424
 6040TIP3    H239612   2.691   0.157   2.402 -0.2739  0.5442  0.8297
 6041TIP3   OH239613   2.353   6.273   0.140 -0.6867 -0.4632 -0.0810
 6041TIP3    H139614   2.293   6.263   0.214 -0.1274 -0.5339  0.3648
 6041TIP3    H239615   2.410   6.345   0.165 -1.1555  0.1958 -0.8960
 6042TIP3   OH239616   5.864   5.736   4.932 -0.7581  0.3829 -0.1527
 6042TIP3    H139617   5.948   5.782   4.927 -0.5200  0.0708  0.8726
 6042TIP3    H239618   5.836   5.748   5.023 -0.6510 -1.5807  0.1571
 6043TIP3   OH239619   3.437   5.291  16.617 -0.1328  0.2413  0.3285
 6043TIP3    H139620   3.493   5.289  16.540 -1.6298  1.2794 -0.8400
 6043TIP3    H239621   3.463   5.371  16.664  0.9115 -0.4946  1.0133
 6044TIP3   OH239622   1.932   2.469  14.331 -0.5145 -0.5620 -0.1444
 6044TIP3    H139623   1.865   2.535  14.316 -1.1309 -1.3282 -0.8272
 6044TIP3    H239624   1.957   2.479  14.423 -0.8966  0.3353 -0.1400
 6045TIP3   OH239625   2.284   5.117   4.739 -0.1532 -0.1704 -0.6096
 6045TIP3    H139626   2.237   5.033   4.729 -1.1485  0.2831  0.1979
 6045TIP3    H239627   2.249   5.172   4.669  0.5870 -0.4601 -1.2142
 6046TIP3   OH239628   5.271   1.676  13.096 -0.3152 -0.0983 -0.3480
 6046TIP3    H139629   5.256   1.742  13.163 -2.2403 -1.8326  0.9941
 6046TIP3    H239630   5.223   1.709  13.019 -1.2538  0.0889  0.3044
 6047TIP3   OH239631   3.545   4.600  12.081 -0.4764  0.1041  0.0752
 6047TIP3    H139632   3.602   4.616  12.006 -0.8794  0.5413 -0.1450
 6047TIP3    H239633   3.601   4.558  12.146 -0.1903 -0.5359 -0.5727
 6048TIP3   OH239634   1.240   1.511  16.431 -0.1212  0.2272 -1.0522
 6048TIP3    H139635   1.307   1.506  16.500  0.5691 -0.0109 -1.7387
 6048TIP3    H239636   1.262   1.441  16.370 -2.5316 -1.5575  0.0574
 6049TIP3   OH239637   4.911   0.885   0.026 -0.2290  0.4392  0.7934
 6049TIP3    H139638   4.914   0.817   0.093  4.5307 -0.9620 -0.6171
 6049TIP3    H239639   4.983   0.864  -0.033 -1.2863  4.3212 -2.1306
 6050TIP3   OH239640   1.737   6.696  11.564 -0.1791  0.3063  0.3118
 6050TIP3    H139641   1.698   6.670  11.480 -0.4208  0.6608  0.3162
 6050TIP3    H239642   1.832   6.692  11.549 -0.1203 -3.1037  1.0347
 6051TIP3   OH239643   1.112   4.040  15.156 -0.1005 -0.5556  0.0197
 6051TIP3    H139644   1.059   4.084  15.222 -1.6341 -0.5022 -1.2185
 6051TIP3    H239645   1.166   3.979  15.205  0.2426  0.9229  1.5167
 6052TIP3   OH239646   0.487   3.113   1.245  0.2049 -0.3725 -0.0061
 6052TIP3    H139647   0.487   3.168   1.323 -1.3954 -0.1488 -0.1477
 6052TIP3    H239648   0.540   3.162   1.182  0.6486 -0.0646  0.6000
 6053TIP3   OH239649   2.995   0.742  13.689 -0.3199  0.9199  0.3852
 6053TIP3    H139650   3.089   0.761  13.683 -0.3297  1.5081  1.8388
 6053TIP3    H239651   2.959   0.815  13.739 -1.4154  0.2909  0.5371
 6054TIP3   OH239652   1.045   3.167  17.243 -0.0063  0.4831  0.3627
 6054TIP3    H139653   0.989   3.239  17.212  2.6881  2.3336 -0.3937
 6054TIP3    H239654   1.055   3.110  17.167  1.9173  1.9920 -0.5503
 6055TIP3   OH239655   1.398   5.882   4.990  0.3190 -0.4361 -0.0152
 6055TIP3    H139656   1.382   5.790   4.970 -0.7000 -0.3615  0.4005
 6055TIP3    H239657   1.335   5.903   5.059 -1.1425  1.2130 -1.7795
 6056TIP3   OH239658   0.373   2.990  12.812  0.2433 -0.2934 -0.1652
 6056TIP3    H139659   0.378   2.912  12.758 -2.5491 -1.5450  1.2657
 6056TIP3    H239660   0.312   3.048  12.766 -0.5685 -0.5222  0.6088
 6057TIP3   OH239661   6.755   1.570  13.810  0.2883  0.0491 -0.3607
 6057TIP3    H139662   6.703   1.505  13.857 -0.2270 -1.1106 -2.4922
 6057TIP3    H239663   6.729   1.654  13.849 -2.2413 -0.6238 -0.5413
 6058TIP3   OH239664   0.773   4.731   6.452 -0.1747  0.1106 -0.0809
 6058TIP3    H139665   0.813   4.755   6.369  0.9160 -0.0968  0.3718
 6058TIP3    H239666   0.788   4.637   6.460 -0.0240  0.1778  0.4814
 6059TIP3   OH239667   0.643   6.221  13.042  0.7910  0.3412 -0.5414
 6059TIP3    H139668   0.703   6.172  13.098  0.3481  0.5240  0.1023
 6059TIP3    H239669   0.587   6.154  13.002  0.5772  0.2719 -0.1301
 6060TIP3   OH239670   2.928   0.407  14.162 -0.0076  0.3959  0.0399
 6060TIP3    H139671   2.837   0.389  14.137  0.3361 -0.7253 -0.4499
 6060TIP3    H239672   2.946   0.345  14.232  0.7914 -0.3218 -0.7830
 6061TIP3   OH239673   3.702   0.990  11.884 -0.3330 -0.2545 -0.4342
 6061TIP3    H139674   3.642   1.038  11.827 -2.3698 -0.9182  1.0590
 6061TIP3    H239675   3.763   1.056  11.916 -1.9202  0.9986  0.0837
 6062TIP3   OH239676   1.388   5.073   2.621  0.4300 -0.6442  0.4109
 6062TIP3    H139677   1.472   5.114   2.600 -0.7131  1.6904  0.2498
 6062TIP3    H239678   1.351   5.051   2.535  0.1475 -0.1663  0.4113
 6063TIP3   OH239679   0.225   4.377  11.224  0.8508  0.5816  0.1126
 6063TIP3    H139680   0.233   4.295  11.174 -2.0348  0.0009  0.4991
 6063TIP3    H239681   0.274   4.441  11.173  0.4435 -0.6847 -1.9429
 6064TIP3   OH239682   0.466   0.207  12.066  0.5673 -0.0144  0.2769
 6064TIP3    H139683   0.381   0.247  12.083  0.5915 -0.2608  0.9859
 6064TIP3    H239684   0.460   0.176  11.976  0.9082  2.5003 -0.6551
 6065TIP3   OH239685   2.781   1.529  13.847 -0.1485 -0.3068  0.0417
 6065TIP3    H139686   2.874   1.515  13.828 -0.2029 -1.2306  0.4515
 6065TIP3    H239687   2.748   1.574  13.769  0.1468 -1.9742 -1.0698
 6066TIP3   OH239688   5.257   3.557   3.973 -0.2617 -0.9842  0.3959
 6066TIP3    H139689   5.245   3.621   4.043 -0.2013  0.8318 -1.2209
 6066TIP3    H239690   5.215   3.477   4.006 -1.9626  0.4066  1.6704
 6067TIP3   OH239691   5.185   6.102  13.827  0.5861 -0.1611 -0.1667
 6067TIP3    H139692   5.245   6.038  13.791 -0.1170  0.1525 -2.0023
 6067TIP3    H239693   5.101   6.057  13.831  0.9318 -0.6103  2.4124
 6068TIP3   OH239694   6.768   4.150   5.876 -0.8030 -0.2992 -0.2980
 6068TIP3    H139695   6.792   4.231   5.923 -2.2913 -0.5993  1.0270
 6068TIP3    H239696   6.732   4.093   5.944 -1.8637 -1.2136 -1.6040
 6069TIP3   OH239697   5.497   0.613   2.622  0.3824 -0.6825 -0.1494
 6069TIP3    H139698   5.593   0.617   2.619  0.3936 -1.1978 -0.7994
 6069TIP3    H239699   5.469   0.703   2.637  1.0070 -0.7075  1.2120
 6070TIP3   OH239700   1.969   3.170   0.983 -0.1991  0.0447 -0.1387
 6070TIP3    H139701   1.955   3.099   0.920  0.9726  0.4511 -0.8755
 6070TIP3    H239702   1.882   3.187   1.021 -0.7244 -0.8723 -0.9248
 6071TIP3   OH239703   0.970   0.013  14.484 -0.1066 -0.3379  0.4091
 6071TIP3    H139704   1.014   0.091  14.517 -0.5704 -0.7256  1.9790
 6071TIP3    H239705   0.880   0.041  14.466  0.7285  0.4651 -2.8399
 6072TIP3   OH239706   1.501   5.119  12.490  0.3429 -0.1806  0.6105
 6072TIP3    H139707   1.532   5.057  12.423  0.1178 -0.4929  0.7923
 6072TIP3    H239708   1.468   5.193  12.440 -0.4835 -0.7204  0.3412
 6073TIP3   OH239709   5.425   3.310   0.580  0.2374  0.0326  0.2944
 6073TIP3    H139710   5.470   3.267   0.507  0.2117 -0.9663  0.8577
 6073TIP3    H239711   5.448   3.257   0.656 -1.9503 -0.5421  0.5934
 6074TIP3   OH239712   2.516   4.181  13.824  0.0793 -0.7313 -0.6651
 6074TIP3    H139713   2.571   4.175  13.902  1.1871  0.3487 -1.3463
 6074TIP3    H239714   2.541   4.264  13.783 -0.8700 -1.0310 -1.8777
 6075TIP3   OH239715   3.318   3.657  12.495 -0.2743 -0.5049  0.0502
 6075TIP3    H139716   3.257   3.730  12.504 -0.5837 -0.9363  1.5296
 6075TIP3    H239717   3.285   3.606  12.422 -0.4936  0.4078 -0.4941
 6076TIP3   OH239718   2.638   3.114   1.261  0.2524  0.4498 -0.1434
 6076TIP3    H139719   2.633   3.200   1.220 -0.2132  0.9743  0.9852
 6076TIP3    H239720   2.721   3.115   1.309  2.4010 -1.3312 -3.5690
 6077TIP3   OH239721   1.895   1.299  15.083  0.0304  0.0242  0.4102
 6077TIP3    H139722   1.801   1.315  15.090 -0.2567 -1.4937  0.3541
 6077TIP3    H239723   1.901   1.222  15.026  1.3641  0.7619 -0.4476
 6078TIP3   OH239724   6.765   4.505  15.712 -0.5126 -0.7509  0.1579
 6078TIP3    H139725   6.749   4.490  15.805  1.6567 -1.8002  0.3932
 6078TIP3    H239726   6.750   4.599  15.700  0.5644 -0.3410  1.8782
 6079TIP3   OH239727   2.347   6.492  15.143  0.6334  0.2633  0.6039
 6079TIP3    H139728   2.329   6.457  15.056  1.2681 -3.9933  2.0402
 6079TIP3    H239729   2.268   6.539  15.168 -0.5981 -0.8082 -1.2183
 6080TIP3   OH239730   1.623   0.033   3.411  0.3119  0.2493 -0.1616
 6080TIP3    H139731   1.716   0.035   3.436 -0.0544 -1.1552  1.3610
 6080TIP3    H239732   1.578  -0.005   3.487 -1.5303  0.9747 -0.8565
 6081TIP3   OH239733   5.631   2.066  15.486  0.1724 -0.0466  0.0020
 6081TIP3    H139734   5.653   1.986  15.534  0.4227  0.2412  0.3702
 6081TIP3    H239735   5.535   2.068  15.488  0.1445 -0.6673 -0.5623
 6082TIP3   OH239736   1.607   6.199   1.498 -0.1383  0.7969 -0.2963
 6082TIP3    H139737   1.682   6.154   1.460 -0.3215  0.2929 -0.0601
 6082TIP3    H239738   1.553   6.130   1.535  0.7563  1.3632  2.1652
 6083TIP3   OH239739   2.518   3.536  16.839  0.3106 -0.0093 -1.0500
 6083TIP3    H139740   2.611   3.549  16.858 -0.0496 -1.1444  1.7650
 6083TIP3    H239741   2.499   3.596  16.767  2.9045  1.2190 -0.7597
 6084TIP3   OH239742   2.130   1.473   2.185  0.2434 -0.5960 -0.2508
 6084TIP3    H139743   2.114   1.559   2.147 -2.2176  0.5746  3.2099
 6084TIP3    H239744   2.051   1.423   2.166  0.7115 -1.3485 -0.2487
 6085TIP3   OH239745   2.940   4.538   2.507 -0.0458 -0.2415 -0.0737
 6085TIP3    H139746   3.036   4.538   2.515  0.1298  3.3830 -1.2446
 6085TIP3    H239747   2.923   4.589   2.427 -3.0046 -0.1050  0.5880
 6086TIP3   OH239748   0.769   1.066  16.277  0.1026  0.5725  0.1966
 6086TIP3    H139749   0.776   1.045  16.371 -0.4110  0.6502  0.2532
 6086TIP3    H239750   0.675   1.077  16.262  0.1875  0.6052 -0.3232
 6087TIP3   OH239751   5.754   2.868  12.665 -0.3459 -0.5160  0.2789
 6087TIP3    H139752   5.781   2.904  12.580  0.0273 -1.7697 -0.1537
 6087TIP3    H239753   5.661   2.891  12.673 -0.2284  0.1214 -0.2018
 6088TIP3   OH239754   0.889   1.718   0.408  0.1184  0.0048  0.1087
 6088TIP3    H139755   0.869   1.710   0.315 -0.0523  0.4793  0.1034
 6088TIP3    H239756   0.812   1.683   0.452 -0.6245  1.5564  0.0854
 6089TIP3   OH239757   0.232   0.439  10.516 -0.5259  0.2024 -0.0127
 6089TIP3    H139758   0.200   0.493  10.589  0.0130 -0.1995  0.5296
 6089TIP3    H239759   0.304   0.490  10.478  0.5008 -0.4606  0.9923
 6090TIP3   OH239760   4.288   0.641   4.132  0.2435 -0.0048 -0.0565
 6090TIP3    H139761   4.217   0.578   4.150  1.3249 -0.9012  1.1391
 6090TIP3    H239762   4.318   0.618   4.044 -1.5214  0.9567 -0.9463
 6091TIP3   OH239763   0.629   1.646   0.438 -1.6792  0.8773  0.3312
 6091TIP3    H139764   0.571   1.615   0.508 -0.5076 -2.6752 -0.1721
 6091TIP3    H239765   0.589   1.615   0.357 -0.2930  0.3249 -0.1732
 6092TIP3   OH239766   3.985   1.960  11.249  0.0175 -0.4028  0.1509
 6092TIP3    H139767   4.061   2.011  11.220  0.2663  0.3084  1.9743
 6092TIP3    H239768   4.013   1.919  11.331 -1.8168  0.5424  1.3000
 6093TIP3   OH239769   4.068   1.812  15.427 -0.4008 -0.0531  0.4681
 6093TIP3    H139770   4.076   1.816  15.332 -0.8007  0.2048  0.4434
 6093TIP3    H239771   4.155   1.784  15.458 -0.2614 -0.0954  0.0334
 6094TIP3   OH239772   0.706   1.523  13.859  0.4774  0.4577 -0.2303
 6094TIP3    H139773   0.655   1.477  13.792 -1.1993 -0.2548  1.5009
 6094TIP3    H239774   0.758   1.454  13.901 -1.2318  0.2890  1.6490
 6095TIP3   OH239775   6.694   1.311   3.323  0.7692 -0.0317 -0.4691
 6095TIP3    H139776   6.607   1.337   3.293  1.0924  0.1112 -1.3077
 6095TIP3    H239777   6.737   1.278   3.244  0.9185 -1.6267  0.2701
 6096TIP3   OH239778   6.311   2.645  13.443 -0.4474  0.4377 -0.3491
 6096TIP3    H139779   6.284   2.737  13.441 -0.8343  0.3036 -1.4568
 6096TIP3    H239780   6.229   2.596  13.449 -0.2626  0.1551 -0.1318
 6097TIP3   OH239781   3.438   2.116   1.759 -0.3181 -0.3393  0.7542
 6097TIP3    H139782   3.348   2.084   1.746 -0.3970 -0.3213  1.2438
 6097TIP3    H239783   3.435   2.162   1.843 -1.0702  4.1767 -1.6113
 6098TIP3   OH239784   1.058   6.339   1.741  0.0588 -0.4179 -0.3954
 6098TIP3    H139785   1.141   6.386   1.729 -0.1333 -0.1313 -0.6093
 6098TIP3    H239786   0.991   6.407   1.734 -0.2678 -0.8428 -1.4355
 6099TIP3   OH239787   6.518   1.992  12.140  0.1203  0.1092 -0.0371
 6099TIP3    H139788   6.486   2.067  12.090 -2.2645 -1.6348 -1.2128
 6099TIP3    H239789   6.554   1.932  12.074 -0.4347 -0.9362  0.5895
 6100TIP3   OH239790   1.781   5.225   5.359  0.3067 -0.7105  0.0958
 6100TIP3    H139791   1.872   5.244   5.384 -0.3120  0.3309  1.6052
 6100TIP3    H239792   1.761   5.290   5.292  0.2523 -0.0998  0.7019
 6101TIP3   OH239793   6.040   1.819  13.575 -0.2570  0.4195 -0.3329
 6101TIP3    H139794   6.045   1.890  13.511  1.1806 -0.3769 -1.1258
 6101TIP3    H239795   6.044   1.739  13.522 -1.3039 -0.2551  0.5932
 6102TIP3   OH239796   2.118   5.668   6.013 -0.5517 -0.0248 -0.0659
 6102TIP3    H139797   2.073   5.587   6.036  1.3571 -1.3956 -1.0205
 6102TIP3    H239798   2.182   5.681   6.083  0.2555 -0.2254 -0.7650
 6103TIP3   OH239799   2.067   4.574   0.418  0.0209  0.3587  0.1909
 6103TIP3    H139800   2.103   4.620   0.494  0.4849 -0.1908  0.3126
 6103TIP3    H239801   2.123   4.601   0.346 -0.1202  0.5089  0.1393
 6104TIP3   OH239802   4.064   2.165   0.408  0.0454  0.9276 -0.0738
 6104TIP3    H139803   4.132   2.223   0.441  2.3819 -0.0750 -2.9476
 6104TIP3    H239804   4.094   2.077   0.432 -0.7462  0.5432 -0.4778
 6105TIP3   OH239805   5.717   5.185  15.978  0.2103  0.1656  0.2522
 6105TIP3    H139806   5.653   5.251  16.004  0.3275  0.5703 -0.4692
 6105TIP3    H239807   5.718   5.189  15.882  0.1160 -0.9836  0.1979
 6106TIP3   OH239808   2.806   1.496   3.748  0.8179 -0.0501  0.1776
 6106TIP3    H139809   2.749   1.501   3.672  0.0119  1.5167  0.8603
 6106TIP3    H239810   2.894   1.483   3.711  0.3990  0.4046 -1.0063
 6107TIP3   OH239811   4.145   0.537  13.912  0.0924  0.0274 -0.2295
 6107TIP3    H139812   4.232   0.498  13.905 -0.6208 -1.8102  0.6843
 6107TIP3    H239813   4.093   0.492  13.846 -0.6402 -0.2965  0.5526
 6108TIP3   OH239814   4.796   2.609  14.596 -0.5139 -0.5541 -0.1371
 6108TIP3    H139815   4.820   2.698  14.571 -0.6058 -0.9924 -1.7965
 6108TIP3    H239816   4.758   2.619  14.684  3.4211  0.4594  1.5538
 6109TIP3   OH239817   4.667   5.412   3.348 -0.3862 -0.0048  0.1530
 6109TIP3    H139818   4.742   5.472   3.354 -0.5850  0.1420  1.2854
 6109TIP3    H239819   4.621   5.439   3.269  0.4331  0.2850 -0.2341
 6110TIP3   OH239820   4.242   0.500  16.575  0.0530 -0.2350  0.0115
 6110TIP3    H139821   4.294   0.580  16.576  1.1638 -0.9167 -1.3668
 6110TIP3    H239822   4.153   0.529  16.596  0.3180  1.4560 -1.0739
 6111TIP3   OH239823   3.282   1.937  13.216 -0.1936  0.6248 -0.5393
 6111TIP3    H139824   3.319   1.919  13.302  0.7987  2.1839 -0.6241
 6111TIP3    H239825   3.288   1.854  13.169 -0.4738 -0.1538  0.7957
 6112TIP3   OH239826   2.797   1.533   0.986  0.1771  0.2310 -0.2988
 6112TIP3    H139827   2.865   1.589   0.948 -0.4909  0.8528 -0.5775
 6112TIP3    H239828   2.767   1.479   0.914 -0.1229  0.4478 -0.3348
 6113TIP3   OH239829   6.439   0.179   4.844 -0.2559 -0.2161 -0.8197
 6113TIP3    H139830   6.408   0.267   4.868  1.3028  0.5044 -1.4090
 6113TIP3    H239831   6.490   0.150   4.920 -0.6568 -0.5651 -0.6815
 6114TIP3   OH239832   2.144   1.122  13.683 -0.3651 -0.4210 -0.0545
 6114TIP3    H139833   2.156   1.201  13.735 -0.9862  0.3526 -1.0706
 6114TIP3    H239834   2.137   1.153  13.593 -1.8005 -1.5222 -0.3401
 6115TIP3   OH239835   1.790   2.039   3.321 -0.0155 -0.0617 -0.2167
 6115TIP3    H139836   1.786   2.088   3.403 -0.3724  1.4811 -1.1327
 6115TIP3    H239837   1.883   2.024   3.306  0.0257 -0.7592  0.6963
 6116TIP3   OH239838   4.075   0.444   2.740  0.2299 -0.2363 -0.0486
 6116TIP3    H139839   4.091   0.369   2.682 -2.0222 -2.4650  2.0677
 6116TIP3    H239840   4.002   0.490   2.699 -0.1442 -0.7492  0.0339
 6117TIP3   OH239841   6.817   4.869   1.889  0.1259 -0.2304 -0.2455
 6117TIP3    H139842   6.890   4.823   1.846  1.8213  1.9624  0.1602
 6117TIP3    H239843   6.764   4.799   1.926  1.6201 -1.9400 -1.1894
 6118TIP3   OH239844   3.363   5.985   3.360  0.4133 -0.3622  0.4220
 6118TIP3    H139845   3.370   6.015   3.451  0.1402  0.7242  0.0897
 6118TIP3    H239846   3.276   6.014   3.332 -0.2008 -2.2234  0.3639
 6119TIP3   OH239847   4.564   0.426  12.301  0.2435  0.3814 -0.3254
 6119TIP3    H139848   4.654   0.452  12.285  0.7538 -0.9760  0.2538
 6119TIP3    H239849   4.529   0.492  12.361  1.7158 -0.6212  1.6740
 6120TIP3   OH239850   3.679   0.708   0.784 -0.1534 -0.1434 -0.0689
 6120TIP3    H139851   3.716   0.724   0.697 -1.0256  0.6157 -0.3129
 6120TIP3    H239852   3.646   0.794   0.812 -2.2797 -0.9042 -0.1339
 6121TIP3   OH239853   2.960   4.512  14.506 -0.2587 -0.3541  0.7370
 6121TIP3    H139854   3.021   4.549  14.570 -0.3298 -0.0706  0.6426
 6121TIP3    H239855   3.000   4.531  14.421 -1.1708  1.1222  0.6055
 6122TIP3   OH239856   5.683   1.903  13.332 -0.5370 -0.4835 -0.4990
 6122TIP3    H139857   5.612   1.901  13.268 -1.5015  0.0156  0.5451
 6122TIP3    H239858   5.749   1.843  13.296 -1.7567 -1.4583 -1.1616
 6123TIP3   OH239859   1.087   4.819   5.403 -0.6299  0.1863 -0.3731
 6123TIP3    H139860   0.995   4.800   5.381 -0.1190 -1.8292 -0.8536
 6123TIP3    H239861   1.120   4.737   5.440  0.6872  1.2296  0.8356
 6124TIP3   OH239862   3.409   6.646   1.625 -0.6126  0.4627  0.1203
 6124TIP3    H139863   3.485   6.671   1.678  0.2344 -0.6994 -0.5282
 6124TIP3    H239864   3.428   6.680   1.538 -0.1493 -1.0788 -0.3959
 6125TIP3   OH239865   3.030   2.287   0.628  0.0008 -0.2798  0.1072
 6125TIP3    H139866   3.012   2.198   0.655 -0.4738 -0.4866 -0.8491
 6125TIP3    H239867   3.099   2.317   0.686 -0.0683 -1.1597  0.6426
 6126TIP3   OH239868   4.841   2.266  16.799 -0.4865  0.5715 -0.3913
 6126TIP3    H139869   4.768   2.318  16.833 -1.8128  0.6497 -3.2399
 6126TIP3    H239870   4.880   2.320  16.731  0.8557 -0.3930 -0.4093
 6127TIP3   OH239871   5.829   0.045  12.023  0.2147  0.5900  0.3673
 6127TIP3    H139872   5.768   0.106  11.981 -0.5220 -1.1888 -1.2310
 6127TIP3    H239873   5.827  -0.033  11.967 -1.1571 -2.0956  3.9771
 6128TIP3   OH239874   6.067   2.465   4.258 -0.2783  0.3743 -0.0475
 6128TIP3    H139875   6.073   2.541   4.199 -0.1407  1.5190  1.3996
 6128TIP3    H239876   5.977   2.434   4.247 -0.3827  0.8358 -0.5544
 6129TIP3   OH239877   2.498   2.295   5.448  0.1073 -0.0794  0.8893
 6129TIP3    H139878   2.511   2.257   5.361 -2.2083 -0.5256  0.7228
 6129TIP3    H239879   2.479   2.220   5.505  2.9395  0.0466  2.1035
 6130TIP3   OH239880   5.304   4.628   4.170  0.0113  0.1364 -0.0019
 6130TIP3    H139881   5.338   4.541   4.192  0.1214  0.2792  0.3856
 6130TIP3    H239882   5.269   4.618   4.082 -0.0140 -0.3161  0.0587
 6131TIP3   OH239883   3.226   2.269   0.972 -0.0348  0.0956 -0.2746
 6131TIP3    H139884   3.250   2.277   1.064 -0.0470  1.7470 -0.4073
 6131TIP3    H239885   3.130   2.267   0.972 -0.0477  0.5489 -0.2723
 6132TIP3   OH239886   3.714   6.062  15.634 -0.8642 -0.5399 -0.1785
 6132TIP3    H139887   3.694   6.030  15.722 -0.3796  0.8203  0.4366
 6132TIP3    H239888   3.786   6.005  15.604  1.5274  1.3206  1.7972
 6133TIP3   OH239889   5.724   5.898  13.783  0.2505 -0.4040  0.0215
 6133TIP3    H139890   5.734   5.817  13.833  2.8999  0.6722  1.3480
 6133TIP3    H239891   5.775   5.883  13.703  0.3622 -0.1988  0.0562
 6134TIP3   OH239892   3.989   2.575  11.074  0.0044 -0.0369  0.3458
 6134TIP3    H139893   3.937   2.572  10.994  1.3648 -1.9671 -0.5034
 6134TIP3    H239894   4.060   2.512  11.059  1.5334  1.1754  2.1888
 6135TIP3   OH239895   4.298   0.235  11.413  0.3739 -0.6066 -0.3730
 6135TIP3    H139896   4.225   0.176  11.432 -0.9025  1.0570  0.0287
 6135TIP3    H239897   4.269   0.285  11.337  1.1551 -0.0249 -0.2914
 6136TIP3   OH239898   2.230   4.918  16.285  0.0144 -0.0378  0.5042
 6136TIP3    H139899   2.198   4.836  16.323 -1.2755 -0.3548 -1.2373
 6136TIP3    H239900   2.260   4.894  16.197  2.3268  0.8266  1.0128
 6137TIP3   OH239901   3.354   6.364  13.713  0.5522 -0.0587  0.3407
 6137TIP3    H139902   3.282   6.329  13.765  0.1965  1.9211  1.2439
 6137TIP3    H239903   3.400   6.287  13.680 -0.0578 -1.3600  2.4335
 6138TIP3   OH239904   4.056   3.942   1.854 -0.0284 -0.2594 -0.1254
 6138TIP3    H139905   4.103   3.934   1.771  1.0105 -1.1998  0.5310
 6138TIP3    H239906   4.030   3.853   1.875  0.6253 -0.1725  1.0731
 6139TIP3   OH239907   2.999   5.917   5.747 -0.6485 -0.1525  0.6930
 6139TIP3    H139908   2.990   5.829   5.784 -0.0267 -0.9147 -0.9006
 6139TIP3    H239909   2.910   5.940   5.719 -0.6162 -0.7806  0.0432
 6140TIP3   OH239910   5.072   4.445  15.514 -0.0059  0.7464 -0.1923
 6140TIP3    H139911   5.009   4.388  15.470 -1.7610  2.1440  0.4463
 6140TIP3    H239912   5.156   4.426  15.472 -1.0211 -0.4726 -1.7008
 6141TIP3   OH239913   3.602   2.299   1.159  0.1152 -0.4545 -0.5080
 6141TIP3    H139914   3.570   2.221   1.205 -0.1087 -0.5573 -0.8338
 6141TIP3    H239915   3.572   2.287   1.068 -0.5874  0.3813 -0.3931
 6142TIP3   OH239916   2.020   5.876   4.164 -0.6602  0.0212 -0.4059
 6142TIP3    H139917   1.971   5.844   4.239  0.7626  0.0530  0.5460
 6142TIP3    H239918   2.074   5.802   4.136  0.6377  0.7437  0.1430
 6143TIP3   OH239919   1.606   1.526   2.488 -0.2684 -0.3447  0.0209
 6143TIP3    H139920   1.638   1.450   2.536  0.4617  0.7275  1.2527
 6143TIP3    H239921   1.511   1.523   2.497 -0.0795  0.4138  2.4024
 6144TIP3   OH239922   3.839   0.453  15.260  0.0786 -0.1569 -0.2213
 6144TIP3    H139923   3.778   0.414  15.324 -0.6796  1.9079  0.3555
 6144TIP3    H239924   3.790   0.525  15.221  0.7706 -0.9828 -2.7189
 6145TIP3   OH239925   2.303   4.592  13.487  0.4214 -0.8587 -0.2375
 6145TIP3    H139926   2.220   4.543  13.492 -0.7657  1.1252  0.0142
 6145TIP3    H239927   2.359   4.537  13.432 -1.1733 -2.0803 -0.7177
 6146TIP3   OH239928   3.768   5.564  13.362  0.1176 -0.0150  0.2910
 6146TIP3    H139929   3.759   5.570  13.457 -2.4370 -2.5881  0.2805
 6146TIP3    H239930   3.833   5.495  13.348 -1.2201 -1.2845  0.1981
 6147TIP3   OH239931   0.928   0.860  15.733 -0.4385  0.1409  0.5548
 6147TIP3    H139932   0.993   0.879  15.665 -0.2458 -0.8079  0.4721
 6147TIP3    H239933   0.916   0.944  15.778  0.7272  0.3604  0.4768
 6148TIP3   OH239934   1.958   4.337   1.564  0.1109  0.3360  0.2249
 6148TIP3    H139935   1.990   4.348   1.654  0.8821 -0.0852  0.0010
 6148TIP3    H239936   1.868   4.368   1.567 -0.3639 -1.1168  1.5044
 6149TIP3   OH239937   6.670   2.845   3.875 -0.2652  0.6998 -0.0786
 6149TIP3    H139938   6.632   2.806   3.953 -0.7280 -0.4047 -0.8453
 6149TIP3    H239939   6.604   2.908   3.845 -0.8356 -0.0845 -0.5133
 6150TIP3   OH239940   2.473   4.060   2.735  0.3289  0.1094 -0.4588
 6150TIP3    H139941   2.459   4.086   2.826  1.8936  0.0708 -0.1786
 6150TIP3    H239942   2.398   4.094   2.688  0.8490  2.5714  0.4032
 6151TIP3   OH239943   1.416   0.359  14.689  0.0017  0.4583  0.5514
 6151TIP3    H139944   1.430   0.288  14.751 -0.1643 -0.1927 -0.1426
 6151TIP3    H239945   1.355   0.322  14.624  1.0029  0.7557 -0.5802
 6152TIP3   OH239946   2.658   5.856  11.855  0.5168  0.1455  0.2237
 6152TIP3    H139947   2.688   5.828  11.941  1.0051 -0.1484 -0.0422
 6152TIP3    H239948   2.564   5.874  11.867  0.5544 -0.0228  0.7800
 6153TIP3   OH239949   3.879   6.105   2.211 -0.6678 -0.3682  0.7842
 6153TIP3    H139950   3.787   6.090   2.232 -1.0630 -0.2875 -0.8029
 6153TIP3    H239951   3.889   6.070   2.123  0.4538  1.0054  0.3519
 6154TIP3   OH239952   0.075   6.664   6.097 -0.0482 -0.1787 -0.1180
 6154TIP3    H139953   0.033   6.741   6.136  1.0503  0.6676 -0.5888
 6154TIP3    H239954   0.051   6.592   6.155  2.8702  1.3096  3.0604
 6155TIP3   OH239955   3.770   3.336  14.790 -0.0152  0.0179  0.4940
 6155TIP3    H139956   3.849   3.282  14.791 -1.0787 -1.5624  3.4127
 6155TIP3    H239957   3.739   3.332  14.700  1.0227 -2.6487  0.2240
 6156TIP3   OH239958   5.184   5.812  12.718  0.2269  0.0433  0.3121
 6156TIP3    H139959   5.127   5.735  12.724  1.5572 -0.9637  0.2566
 6156TIP3    H239960   5.144   5.866  12.649 -0.4561 -0.8227  0.0147
 6157TIP3   OH239961   3.955   1.332   5.249 -0.4932  0.2933  0.3095
 6157TIP3    H139962   3.890   1.266   5.226 -1.0846 -0.1024  2.8696
 6157TIP3    H239963   4.039   1.293   5.222 -1.0226 -0.6336 -0.0158
 6158TIP3   OH239964   0.906   0.135  14.723  0.1603  0.2819 -0.3936
 6158TIP3    H139965   0.887   0.053  14.679 -1.5358 -0.9211  2.4347
 6158TIP3    H239966   0.988   0.119  14.769 -0.4080 -0.0102  0.5328
 6159TIP3   OH239967   0.267   2.545   3.735 -0.3171 -0.9239 -0.0714
 6159TIP3    H139968   0.289   2.570   3.646  0.8601 -3.2016 -0.4531
 6159TIP3    H239969   0.171   2.543   3.736 -0.3335 -1.8083 -1.5627
 6160TIP3   OH239970   6.055   0.215  17.100 -0.0210 -0.3848  0.0179
 6160TIP3    H139971   5.967   0.245  17.074 -0.4535 -0.5732  1.2376
 6160TIP3    H239972   6.062   0.238  17.192  0.6634 -1.6621  0.2982
 6161TIP3   OH239973   6.407   0.534  14.754 -0.1590  0.7398 -0.0596
 6161TIP3    H139974   6.373   0.589  14.824  2.2411 -0.0667  1.7890
 6161TIP3    H239975   6.380   0.446  14.777 -0.3486  0.6134 -0.7621
 6162TIP3   OH239976   2.729   6.753   2.050 -0.0957  0.0938  0.0715
 6162TIP3    H139977   2.794   6.800   2.101 -0.7367  1.8643 -0.7153
 6162TIP3    H239978   2.687   6.694   2.113  0.4048  0.9037  1.1677
 6163TIP3   OH239979   1.706   3.322   0.812 -0.0054  0.3716  0.1449
 6163TIP3    H139980   1.708   3.408   0.855 -0.2731  1.1107 -1.2783
 6163TIP3    H239981   1.795   3.311   0.777  0.2966 -0.3576  1.1158
 6164TIP3   OH239982   4.251   2.940  17.116  0.0019 -0.5308 -0.5079
 6164TIP3    H139983   4.300   2.891  17.182  0.2269 -0.6432 -0.7578
 6164TIP3    H239984   4.218   2.873  17.056 -1.6907 -0.6010  0.4582
 6165TIP3   OH239985   5.332   0.512   1.411 -0.1842 -0.1329  0.1615
 6165TIP3    H139986   5.276   0.517   1.334 -1.0400  1.1090  0.8441
 6165TIP3    H239987   5.348   0.603   1.436  0.7755 -0.5043  0.9521
 6166TIP3   OH239988   1.947   1.303  11.360 -0.3168  0.0678 -0.1158
 6166TIP3    H139989   1.878   1.318  11.296  1.2470  0.1887 -1.8326
 6166TIP3    H239990   2.001   1.234  11.322  0.6199  0.1093  1.0956
 6167TIP3   OH239991   0.991   0.433   5.737 -0.2126  0.4076 -0.0285
 6167TIP3    H139992   1.028   0.378   5.668 -0.8082  1.4083 -1.1805
 6167TIP3    H239993   1.022   0.521   5.716 -1.8336  0.9950 -0.0444
 6168TIP3   OH239994   1.917   2.665   1.621  0.4312  0.1591  0.4127
 6168TIP3    H139995   1.860   2.648   1.547  0.2020  1.7333  0.1957
 6168TIP3    H239996   1.969   2.741   1.594  1.6532 -0.4021  1.1448
 6169TIP3   OH239997   0.699   0.503   0.199 -0.1235  0.4288 -0.0738
 6169TIP3    H139998   0.787   0.490   0.166 -0.0742  0.8473 -0.1089
 6169TIP3    H239999   0.692   0.443   0.274  0.9863  2.0642  1.3714
 6170TIP3   OH240000   2.620   1.244  17.021  0.4075  0.7058 -0.2009
 6170TIP3    H140001   2.556   1.262  17.090  1.2153  0.8719  0.5158
 6170TIP3    H240002   2.641   1.330  16.985 -1.0675  0.4937 -1.6293
 6171TIP3   OH240003   3.224   3.102  12.970  0.0177  0.1865  0.2506
 6171TIP3    H140004   3.304   3.154  12.964  0.1835 -0.0595  0.2833
 6171TIP3    H240005   3.178   3.117  12.888  1.0985 -1.2835 -0.6502
 6172TIP3   OH240006   3.077   3.132   1.614 -0.1145  0.5479 -0.4089
 6172TIP3    H140007   3.105   3.224   1.621  1.1350  0.1590 -0.0794
 6172TIP3    H240008   3.119   3.089   1.689  0.7937 -0.6412 -1.5739
 6173TIP3   OH240009   2.028   6.545   1.755  0.3414  0.6448 -0.5959
 6173TIP3    H140010   2.009   6.454   1.776  2.2857  0.6483  1.3495
 6173TIP3    H240011   2.120   6.545   1.728  0.2427  1.9649 -0.9759
 6174TIP3   OH240012   3.957   1.478  13.232  0.3282 -0.0632 -0.2193
 6174TIP3    H140013   3.875   1.527  13.239  0.7856  0.6909 -0.0196
 6174TIP3    H240014   3.997   1.488  13.318  0.1779 -1.2453 -0.0059
 6175TIP3   OH240015   3.552   2.612  15.966  0.2648 -0.0136  0.1019
 6175TIP3    H140016   3.595   2.695  15.948  3.1660 -1.3552  0.6641
 6175TIP3    H240017   3.533   2.575  15.879  0.8759  0.2556 -0.1445
 6176TIP3   OH240018   4.740   5.849   0.661 -0.0129  0.2046  0.5349
 6176TIP3    H140019   4.706   5.934   0.689  0.5172  0.4017  0.5899
 6176TIP3    H240020   4.717   5.843   0.569 -1.0038 -0.0653  0.7980
 6177TIP3   OH240021   4.370   6.647  13.280 -0.3188  0.7298 -0.6096
 6177TIP3    H140022   4.309   6.617  13.212 -2.4407  2.1712  0.6288
 6177TIP3    H240023   4.372   6.575  13.343 -2.4278  1.5072  0.4074
 6178TIP3   OH240024   4.837   4.647  13.219 -0.1192 -0.1479 -0.1571
 6178TIP3    H140025   4.768   4.585  13.195 -1.0508  0.8931 -0.2252
 6178TIP3    H240026   4.839   4.643  13.315  0.1084 -0.5890 -0.1797
 6179TIP3   OH240027   3.412   4.368   5.826 -0.1432  0.0006  0.0978
 6179TIP3    H140028   3.439   4.404   5.910 -0.5970  2.1280 -0.6265
 6179TIP3    H240029   3.398   4.445   5.770 -2.3471 -1.2536 -1.1687
 6180TIP3   OH240030   3.915   0.901  11.660  0.0374 -1.4888  0.4343
 6180TIP3    H140031   4.007   0.891  11.638  0.5772  0.1909  1.8582
 6180TIP3    H240032   3.912   0.899  11.755 -1.3091 -0.9221  0.4195
 6181TIP3   OH240033   6.447   1.825  16.245 -0.0307  0.5472  0.2538
 6181TIP3    H140034   6.491   1.906  16.269 -1.6502  1.1738  1.2107
 6181TIP3    H240035   6.359   1.834  16.280 -0.3562 -1.4739  0.0420
 6182TIP3   OH240036   1.786   5.451  11.196 -0.2048  0.3487 -0.2822
 6182TIP3    H140037   1.846   5.482  11.129  0.5442  1.8270  1.0591
 6182TIP3    H240038   1.842   5.413  11.263 -0.8869 -0.0558  0.0680
 6183TIP3   OH240039   4.379   2.976   4.680 -0.1253 -0.1534 -1.4557
 6183TIP3    H140040   4.456   2.976   4.737 -0.7379  2.9363 -0.5286
 6183TIP3    H240041   4.395   2.906   4.617  2.0044 -1.5930  0.6207
 6184TIP3   OH240042   4.299   2.939   1.570 -0.0352  0.2217 -0.0245
 6184TIP3    H140043   4.366   3.001   1.540  0.2319 -0.8378 -1.6924
 6184TIP3    H240044   4.349   2.863   1.598 -0.3923  0.5569  1.5640
 6185TIP3   OH240045   0.889   0.989   3.796  0.8296 -0.0744  0.2917
 6185TIP3    H140046   0.981   1.015   3.793  0.4480  1.1807 -3.0682
 6185TIP3    H240047   0.841   1.069   3.776 -0.8575 -1.2310 -0.4479
 6186TIP3   OH240048   3.595   2.907   3.204  0.3519 -0.0795 -0.5141
 6186TIP3    H140049   3.636   2.936   3.286  0.1042  3.9613 -1.7558
 6186TIP3    H240050   3.501   2.917   3.219  0.3386  1.4070 -1.5458
 6187TIP3   OH240051   0.401   5.044  13.775 -0.2025  0.4404  0.3636
 6187TIP3    H140052   0.410   4.998  13.858 -0.3862 -1.1106 -0.4391
 6187TIP3    H240053   0.306   5.051  13.762 -0.1845 -0.5699 -0.3659
 6188TIP3   OH240054   4.114   4.545  15.329 -0.2132  0.5876 -0.4590
 6188TIP3    H140055   4.044   4.603  15.359 -1.0335  0.3077 -1.8224
 6188TIP3    H240056   4.192   4.600  15.328 -0.6018  1.1525  0.1306
 6189TIP3   OH240057   1.487   6.110   5.425  0.2793 -0.3059 -0.3538
 6189TIP3    H140058   1.424   6.133   5.356 -0.2179 -1.0228 -0.1394
 6189TIP3    H240059   1.572   6.119   5.383  0.0490  0.7496 -0.6257
 6190TIP3   OH240060   3.962   3.049  16.912  0.4929 -0.1155 -0.8941
 6190TIP3    H140061   4.005   2.968  16.885 -0.8751 -1.4895  0.8948
 6190TIP3    H240062   3.871   3.023  16.928 -0.6509  2.3582 -2.9799
 6191TIP3   OH240063   6.035   6.045   0.069  0.1315 -0.2160 -0.1333
 6191TIP3    H140064   6.063   6.038   0.160 -0.1620 -1.6888 -0.1472
 6191TIP3    H240065   6.056   5.960   0.030  2.3804  1.1506 -2.0513
 6192TIP3   OH240066   3.547   1.248   0.180  0.2387 -0.3224 -0.8392
 6192TIP3    H140067   3.563   1.342   0.169  2.0502 -0.6306 -1.1106
 6192TIP3    H240068   3.466   1.242   0.229  1.8708  1.4554  2.2012
 6193TIP3   OH240069   5.645   2.824  14.326 -0.6641 -0.1846 -0.4686
 6193TIP3    H140070   5.706   2.844  14.398  0.6666  1.2707 -1.9458
 6193TIP3    H240071   5.571   2.782  14.368  1.4896 -2.2858  1.3746
 6194TIP3   OH240072   2.417   0.745  12.959 -0.1872  0.0071 -0.0667
 6194TIP3    H140073   2.361   0.822  12.973 -0.0586  0.1803 -0.4907
 6194TIP3    H240074   2.502   0.771  12.996  0.4339  0.8324 -1.9943
 6195TIP3   OH240075   2.237   1.328  11.463 -0.0112  0.2523  0.0418
 6195TIP3    H140076   2.169   1.330  11.396  0.1441  1.1841 -0.0837
 6195TIP3    H240077   2.268   1.418  11.470  1.1270 -0.1435  0.1829
 6196TIP3   OH240078   2.998   3.671  10.811 -0.0571  0.2553 -0.0479
 6196TIP3    H140079   2.953   3.740  10.861 -1.6115 -1.4664  1.0010
 6196TIP3    H240080   2.932   3.603  10.800  1.6677 -1.3912 -0.4040
 6197TIP3   OH240081   6.220   5.540  12.028  0.2375  0.2218 -0.6415
 6197TIP3    H140082   6.306   5.542  12.071 -0.1123  1.6286  0.0197
 6197TIP3    H240083   6.236   5.576  11.941  0.3046  0.4909 -0.5164
 6198TIP3   OH240084   1.101   4.016  13.371 -0.4533 -0.0526 -0.2924
 6198TIP3    H140085   1.047   4.093  13.390 -0.6656 -1.0379  3.4545
 6198TIP3    H240086   1.038   3.950  13.343 -0.6864  0.1320 -0.2101
 6199TIP3   OH240087   2.146   2.770  13.825  0.4339  0.4026  0.5236
 6199TIP3    H140088   2.087   2.835  13.786  0.3160  0.8600  1.4414
 6199TIP3    H240089   2.232   2.789  13.787  0.3119  0.8166  0.4547
 6200TIP3   OH240090   5.272   5.401  13.711 -0.5512 -0.6126  0.0756
 6200TIP3    H140091   5.302   5.406  13.801 -0.0735 -3.1248  0.0787
 6200TIP3    H240092   5.336   5.452  13.661 -0.5443  0.3615  1.0768
 6201TIP3   OH240093   1.167   4.536   6.328  0.3257 -0.1357 -0.2026
 6201TIP3    H140094   1.105   4.586   6.275  2.1339 -0.4865 -2.7218
 6201TIP3    H240095   1.134   4.446   6.326  0.3400 -0.1288 -0.6432
 6202TIP3   OH240096   5.932   3.745   4.377  0.3810  0.0613 -0.5772
 6202TIP3    H140097   5.954   3.692   4.454  0.9679  0.7719 -0.2493
 6202TIP3    H240098   5.991   3.714   4.308 -1.7367 -2.2022 -1.4388
 6203TIP3   OH240099   4.401   1.949  16.924 -0.1353 -0.3685  0.7460
 6203TIP3    H140100   4.305   1.954  16.918  0.0215  1.1865 -1.3299
 6203TIP3    H240101   4.431   2.035  16.894  1.9396 -1.0599  0.7382
 6204TIP3   OH240102   2.625   4.755   0.364  0.1931 -0.3676 -0.3163
 6204TIP3    H140103   2.593   4.704   0.438  2.0344 -1.5281 -0.2989
 6204TIP3    H240104   2.695   4.809   0.400 -0.6327  0.9914 -0.6894
 6205TIP3   OH240105   2.270   2.551  11.517 -0.3313 -0.0280  0.4429
 6205TIP3    H140106   2.343   2.551  11.455  0.1957 -0.2475  1.0662
 6205TIP3    H240107   2.200   2.504  11.471 -0.8051  1.9490 -0.9854
 6206TIP3   OH240108   5.379   5.303  17.165 -0.0007  0.2466 -0.0652
 6206TIP3    H140109   5.391   5.369  17.097  0.5382 -0.2565 -0.4622
 6206TIP3    H240110   5.428   5.337  17.240  1.3519 -0.3101 -0.6830
 6207TIP3   OH240111   0.692   2.387  11.428  0.3804 -0.2641  0.0070
 6207TIP3    H140112   0.743   2.324  11.378 -0.9657 -1.2341 -0.1577
 6207TIP3    H240113   0.643   2.334  11.491 -0.5714  0.6338  0.0369
 6208TIP3   OH240114   5.110   0.579  13.364 -0.0236  0.0741 -0.1359
 6208TIP3    H140115   5.070   0.504  13.319  0.9543 -1.4730  1.5414
 6208TIP3    H240116   5.088   0.567  13.456 -0.6670  2.3897  0.0557
 6209TIP3   OH240117   4.632   1.213  15.759  0.2912  0.2383  0.0200
 6209TIP3    H140118   4.719   1.214  15.799  1.0182  0.0590 -1.5074
 6209TIP3    H240119   4.650   1.209  15.665 -1.4081 -3.4450 -0.1976
 6210TIP3   OH240120   3.604   5.399   5.806 -0.2350 -0.1549  0.3130
 6210TIP3    H140121   3.675   5.335   5.818  0.7038  1.3703  3.4139
 6210TIP3    H240122   3.525   5.353   5.832  0.2073 -0.5989  0.8884
 6211TIP3   OH240123   1.944   6.374   1.340 -0.1599 -0.4375  0.0938
 6211TIP3    H140124   1.972   6.313   1.272 -0.8612  0.1518 -0.7501
 6211TIP3    H240125   1.918   6.453   1.291 -0.1858  0.1762  1.0873
 6212TIP3   OH240126   2.936   5.457   4.515  0.0365  0.5278 -0.2113
 6212TIP3    H140127   2.907   5.482   4.428 -0.9310 -0.4269 -0.1784
 6212TIP3    H240128   2.967   5.367   4.505 -1.3692 -0.0772  0.6887
 6213TIP3   OH240129   3.111   3.143   2.793  0.3225  0.3917  0.4797
 6213TIP3    H140130   3.065   3.078   2.741  4.2656 -2.6530  0.5874
 6213TIP3    H240131   3.130   3.100   2.876  0.6884  2.5797  1.5839
 6214TIP3   OH240132   1.254   3.440   3.935  0.3829 -0.0369  0.3624
 6214TIP3    H140133   1.257   3.359   3.986 -0.1169  0.4068  1.1089
 6214TIP3    H240134   1.198   3.420   3.860 -1.6652  0.2923  1.7688
 6215TIP3   OH240135   5.792   6.633   2.582  0.3577 -0.0471  0.4697
 6215TIP3    H140136   5.727   6.642   2.652 -0.4249  2.6886 -0.5723
 6215TIP3    H240137   5.773   6.548   2.543 -2.4961  0.6238  0.3180
 6216TIP3   OH240138   4.957   2.508  11.571  0.4477  0.4056 -0.1819
 6216TIP3    H140139   4.995   2.560  11.500  0.2306 -0.6721 -1.1041
 6216TIP3    H240140   4.890   2.455  11.528  1.8463 -1.9210  0.4093
 6217TIP3   OH240141   1.459   1.164   2.471  0.0395  0.2183 -0.4336
 6217TIP3    H140142   1.428   1.250   2.443 -0.2927 -0.3295 -1.8109
 6217TIP3    H240143   1.554   1.169   2.461  0.0230  0.4432 -0.4809
 6218TIP3   OH240144   2.655   1.254   3.903  1.0339  0.2712 -0.2489
 6218TIP3    H140145   2.580   1.232   3.959  0.7015 -0.3947 -0.9509
 6218TIP3    H240146   2.636   1.341   3.870 -0.3595 -0.6620 -1.9548
 6219TIP3   OH240147   3.559   3.219   0.869 -0.2619  0.6749 -0.3753
 6219TIP3    H140148   3.499   3.279   0.913 -1.6519 -0.3514 -0.8499
 6219TIP3    H240149   3.573   3.148   0.932 -0.0983  0.5733 -0.5256
 6220TIP3   OH240150   4.983   3.248  13.906 -0.1204 -0.3731 -0.3317
 6220TIP3    H140151   4.928   3.225  13.831  0.4711  0.9055 -1.1847
 6220TIP3    H240152   4.944   3.202  13.980  0.5342 -3.3835 -1.7875
 6221TIP3   OH240153   6.142   4.351  16.242 -0.1132  0.1752  0.4946
 6221TIP3    H140154   6.176   4.432  16.205 -1.9837  1.4030  1.3921
 6221TIP3    H240155   6.216   4.315  16.292  0.4582  1.8224  0.8747
 6222TIP3   OH240156   4.228   1.427   3.963  0.4662 -0.0087  0.1691
 6222TIP3    H140157   4.317   1.404   3.939  0.1632 -0.0885 -0.8925
 6222TIP3    H240158   4.179   1.345   3.954  0.0090  0.3456 -0.6304
 6223TIP3   OH240159   4.329   1.522  14.569  0.2798  0.7646  0.0151
 6223TIP3    H140160   4.256   1.534  14.509  0.8808  1.3569 -0.6132
 6223TIP3    H240161   4.398   1.579  14.534  2.0780 -1.9991 -1.0812
 6224TIP3   OH240162   4.582   6.818  16.284 -0.2319  0.2823  0.2200
 6224TIP3    H140163   4.508   6.876  16.269 -0.1415  0.6644  1.2009
 6224TIP3    H240164   4.637   6.865  16.348  1.0559  0.1904 -0.8018
 6225TIP3   OH240165   4.511   0.292  14.937 -0.0029 -0.2814 -0.0819
 6225TIP3    H140166   4.471   0.211  14.905  1.2336 -0.5081 -1.0925
 6225TIP3    H240167   4.437   0.345  14.967 -1.1498 -0.4483 -2.4623
 6226TIP3   OH240168   3.691   6.223  16.304 -0.0541  0.0428 -0.0065
 6226TIP3    H140169   3.696   6.318  16.309 -0.8369 -0.0042  2.0167
 6226TIP3    H240170   3.626   6.198  16.370  0.8769 -1.9744  0.1959
 6227TIP3   OH240171   4.502   4.839  14.948  0.2540 -0.0852 -0.0172
 6227TIP3    H140172   4.426   4.897  14.950  1.0241  0.8979  1.5285
 6227TIP3    H240173   4.567   4.882  15.005  2.7056  0.1257 -2.8388
 6228TIP3   OH240174   4.336   5.237  16.224 -0.0251 -0.1997 -0.7509
 6228TIP3    H140175   4.299   5.180  16.157 -1.7154 -2.8079  2.2594
 6228TIP3    H240176   4.264   5.296  16.249  0.4788  0.5066 -0.9417
 6229TIP3   OH240177   3.918   4.368  16.402 -1.0509  0.5148 -0.0784
 6229TIP3    H140178   3.932   4.288  16.452 -1.5627  0.6957  0.3535
 6229TIP3    H240179   3.975   4.358  16.326  1.5728  1.3141  1.7152
 6230TIP3   OH240180   2.303   0.908   0.490 -0.0809  0.4185  0.0504
 6230TIP3    H140181   2.384   0.938   0.449  0.5949 -1.6116 -0.1448
 6230TIP3    H240182   2.323   0.904   0.584  1.1400 -3.2007 -0.2857
 6231TIP3   OH240183   1.848   2.985   1.306 -0.6042 -0.4891 -0.1607
 6231TIP3    H140184   1.940   3.003   1.289 -0.2337  0.8305  2.9763
 6231TIP3    H240185   1.808   3.072   1.318 -1.9149 -1.1169  0.1652
 6232TIP3   OH240186   4.378   3.774  16.524 -0.1374  0.1617  0.1283
 6232TIP3    H140187   4.417   3.765  16.437 -1.9702  0.1445 -0.7055
 6232TIP3    H240188   4.328   3.694  16.537  1.8590 -0.8190  2.1238
 6233TIP3   OH240189   6.432   2.010   3.992 -0.5471  0.0738 -0.0893
 6233TIP3    H140190   6.421   1.932   3.937  1.3954 -1.8795  2.1639
 6233TIP3    H240191   6.477   2.073   3.936 -0.3417 -1.1621 -1.3419
 6234TIP3   OH240192   5.329   3.150  12.881 -0.5167  0.1318 -0.2948
 6234TIP3    H140193   5.290   3.164  12.795  1.4987 -2.8177 -1.7722
 6234TIP3    H240194   5.411   3.201  12.879 -1.6895  2.1020  0.8527
 6235TIP3   OH240195   2.693   3.823  16.276 -0.4961 -0.1988 -0.2976
 6235TIP3    H140196   2.773   3.865  16.309 -1.1502 -0.3458  1.5039
 6235TIP3    H240197   2.715   3.729  16.274 -0.4365 -0.1848 -0.3075
 6236TIP3   OH240198   0.463   0.949   1.275  0.1763  0.0507  0.2935
 6236TIP3    H140199   0.557   0.932   1.272  0.3416  1.2216 -1.4655
 6236TIP3    H240200   0.425   0.866   1.305  1.6068 -0.9883 -0.7143
 6237TIP3   OH240201   6.553   6.737  16.926  0.2720  0.3255 -0.0123
 6237TIP3    H140202   6.632   6.760  16.973  0.8038 -0.8707 -0.2982
 6237TIP3    H240203   6.578   6.738  16.834 -0.8017  2.8075 -0.3013
 6238TIP3   OH240204   0.377   0.238  15.495  0.8493 -0.1229  0.4474
 6238TIP3    H140205   0.392   0.317  15.442  1.6004  0.3226  1.3133
 6238TIP3    H240206   0.444   0.242  15.563 -1.7118  0.6351  2.9888
 6239TIP3   OH240207   0.637   3.836  13.026  0.0980  0.0117  0.4108
 6239TIP3    H140208   0.634   3.742  13.011 -2.0061 -0.1519  1.7783
 6239TIP3    H240209   0.604   3.874  12.944  3.6273 -0.2610 -1.2583
 6240TIP3   OH240210   1.703   3.729   5.725  0.3349 -0.0554 -0.3126
 6240TIP3    H140211   1.767   3.685   5.670 -0.2124 -0.2259 -0.8218
 6240TIP3    H240212   1.618   3.701   5.690 -0.0287 -0.7706  1.0905
 6241TIP3   OH240213   3.728   2.441  14.949 -0.0659  0.5302 -0.1654
 6241TIP3    H140214   3.703   2.482  15.031 -0.2407  1.5619 -0.7257
 6241TIP3    H240215   3.645   2.426  14.903  0.0601  0.3455 -0.3360
 6242TIP3   OH240216   3.067   0.960  16.732  0.0232 -0.1920  0.2193
 6242TIP3    H140217   2.986   1.007  16.749 -0.0253  0.3143 -1.3699
 6242TIP3    H240218   3.081   0.908  16.811  0.3656  2.8502  2.2471
 6243TIP3   OH240219   5.221   4.881   1.037  0.4648 -0.0550  0.3143
 6243TIP3    H140220   5.196   4.824   0.965  1.5023  0.2495 -0.3119
 6243TIP3    H240221   5.168   4.960   1.024  1.6925  0.5904 -1.0002
 6244TIP3   OH240222   1.639   3.830  17.087  0.6827 -0.5682 -0.0298
 6244TIP3    H140223   1.714   3.838  17.145 -0.3105 -0.4591  1.2522
 6244TIP3    H240224   1.580   3.900  17.115 -0.2715 -1.1974 -0.4579
 6245TIP3   OH240225   2.175   2.261  14.368  0.3851  0.5908 -0.4317
 6245TIP3    H140226   2.084   2.250  14.341  0.3037  1.6694 -0.6131
 6245TIP3    H240227   2.210   2.328  14.309  1.2226  0.3660 -0.1973
 6246TIP3   OH240228   1.777   0.902  15.590 -0.2501 -0.1078  0.5003
 6246TIP3    H140229   1.712   0.872  15.526  1.6269 -0.5730 -1.2377
 6246TIP3    H240230   1.805   0.987  15.558  3.2913 -1.8634 -1.3597
 6247TIP3   OH240231   4.987   6.093  12.251 -0.0651 -0.2773 -0.5130
 6247TIP3    H140232   4.989   6.181  12.214  0.0565  0.0318  0.2222
 6247TIP3    H240233   5.075   6.059  12.235  1.3399  1.3904  3.1461
 6248TIP3   OH240234   3.204   5.092  10.990  0.2073 -0.1823 -0.5177
 6248TIP3    H140235   3.189   5.148  10.915  1.6576  0.5904 -0.2418
 6248TIP3    H240236   3.246   5.149  11.055 -1.8170 -0.5878  1.2263
 6249TIP3   OH240237   2.777   6.322   1.949 -0.7228  0.1002  0.5577
 6249TIP3    H140238   2.772   6.246   1.892 -1.3227  1.1514 -0.8207
 6249TIP3    H240239   2.704   6.378   1.921  0.4537  1.7452  0.6950
 6250TIP3   OH240240   3.580   1.746  15.768 -0.8355  0.1215 -0.0569
 6250TIP3    H140241   3.669   1.774  15.746 -0.5405 -0.3990  0.4659
 6250TIP3    H240242   3.543   1.820  15.816 -1.2244  0.9634 -1.6283
 6251TIP3   OH240243   2.111   1.182   5.228  0.0923 -0.4723 -0.4557
 6251TIP3    H140244   2.044   1.158   5.163  1.4381 -1.9240 -1.3580
 6251TIP3    H240245   2.110   1.277   5.230 -1.0765 -0.4528 -1.4475
 6252TIP3   OH240246   3.567   0.003   2.785  0.9111  0.0977 -0.0076
 6252TIP3    H140247   3.629  -0.030   2.851  1.5334  1.4678  0.1139
 6252TIP3    H240248   3.623   0.027   2.711  0.3419 -0.2368 -0.5436
 6253TIP3   OH240249   1.260   4.518  15.726  0.2735  0.4181  0.1205
 6253TIP3    H140250   1.315   4.465  15.669  1.7119  0.0626  1.8336
 6253TIP3    H240251   1.272   4.608  15.693  0.6458  0.1481 -0.4878
 6254TIP3   OH240252   0.652   4.603   2.948  0.3618 -0.8578  0.2360
 6254TIP3    H140253   0.586   4.537   2.929 -0.7860  1.1823 -3.2911
 6254TIP3    H240254   0.603   4.684   2.963  1.9164  0.0837  0.3832
 6255TIP3   OH240255   2.429   4.101   3.753  0.2880  0.7591  0.0467
 6255TIP3    H140256   2.520   4.101   3.726  0.4070  1.1767  0.4484
 6255TIP3    H240257   2.386   4.165   3.697  0.2899  0.7396  0.0229
 6256TIP3   OH240258   5.308   6.756  13.140  0.2009 -0.1231 -0.6235
 6256TIP3    H140259   5.345   6.681  13.187  0.9749  1.0267  0.6286
 6256TIP3    H240260   5.384   6.800  13.102  0.0058  1.5302  0.8888
 6257TIP3   OH240261   1.750   4.302   1.273 -0.2095 -0.5884 -0.1790
 6257TIP3    H140262   1.802   4.251   1.336 -2.1444 -2.5204 -0.0907
 6257TIP3    H240263   1.674   4.331   1.324  0.0630  1.0206 -0.6735
 6258TIP3   OH240264   6.244   0.401  15.468 -0.4382  0.4790 -0.7520
 6258TIP3    H140265   6.315   0.389  15.532 -1.5567  1.0101  0.6087
 6258TIP3    H240266   6.173   0.346  15.500 -0.8096  0.2769 -1.8846
 6259TIP3   OH240267   1.657   5.060   4.955 -0.1065  0.0093 -0.1130
 6259TIP3    H140268   1.699   5.028   5.036  0.1033 -0.7373 -0.5107
 6259TIP3    H240269   1.599   5.130   4.985  0.8007  0.4923  0.5512
 6260TIP3   OH240270   6.349   1.657   0.520  0.3896 -0.0771 -0.3693
 6260TIP3    H140271   6.337   1.660   0.425 -1.2213 -0.6244 -0.1922
 6260TIP3    H240272   6.443   1.644   0.532  0.4817 -0.8622 -1.9048
 6261TIP3   OH240273   2.063   0.637   4.086 -0.2807 -0.1109  0.6365
 6261TIP3    H140274   2.138   0.598   4.130 -0.7500  0.5552  2.0623
 6261TIP3    H240275   1.989   0.581   4.110 -1.0502  1.8809  3.1193
 6262TIP3   OH240276   3.697   1.604  12.657  0.5322  0.2653  0.5927
 6262TIP3    H140277   3.667   1.557  12.736  1.9455 -2.3494 -0.3604
 6262TIP3    H240278   3.620   1.609  12.602  0.2562 -0.6861  0.8686
 6263TIP3   OH240279   0.995   6.659   4.239 -0.2009 -0.7505 -0.2452
 6263TIP3    H140280   0.995   6.734   4.299 -2.4831 -1.4005  0.6313
 6263TIP3    H240281   1.012   6.584   4.295  2.4161 -0.8921 -1.1750
 6264TIP3   OH240282   2.178   0.530   6.271  0.1182 -0.1231  0.1154
 6264TIP3    H140283   2.117   0.508   6.201 -0.6151 -0.5106  0.8689
 6264TIP3    H240284   2.254   0.474   6.255  0.4011  0.5549 -0.9827
 6265TIP3   OH240285   3.893   2.670  13.489  0.2806  0.3824  0.5947
 6265TIP3    H140286   3.905   2.695  13.398 -1.7361 -0.2680  0.1133
 6265TIP3    H240287   3.962   2.716  13.537  1.3941  0.6639 -1.2594
 6266TIP3   OH240288   5.518   0.343  15.706  0.1167 -1.0199 -0.2624
 6266TIP3    H140289   5.508   0.250  15.727 -1.3968 -0.7972  0.0582
 6266TIP3    H240290   5.430   0.371  15.680  1.0488 -0.2575 -2.6939
 6267TIP3   OH240291   2.623   0.762   2.790 -0.4737  0.0378 -0.7414
 6267TIP3    H140292   2.686   0.719   2.848 -0.1657 -0.4996 -1.4605
 6267TIP3    H240293   2.670   0.769   2.706 -0.5623  1.6832 -0.6531
 6268TIP3   OH240294   5.733   0.771  13.332 -0.3621 -0.2770  0.5518
 6268TIP3    H140295   5.670   0.757  13.403 -0.5365  1.0526  0.6777
 6268TIP3    H240296   5.720   0.862  13.306  0.0927 -0.5783 -0.8135
 6269TIP3   OH240297   3.128   0.253   0.304 -0.1791 -0.2039 -0.4498
 6269TIP3    H140298   3.168   0.180   0.352  0.5465 -0.4024 -1.3566
 6269TIP3    H240299   3.184   0.328   0.323 -0.9124  0.1191  0.4627
 6270TIP3   OH240300   5.398   5.178   1.329  0.1745  0.5160 -0.1774
 6270TIP3    H140301   5.330   5.206   1.390  0.0350  0.9204 -0.5180
 6270TIP3    H240302   5.455   5.254   1.319  0.1751  0.4650 -0.5812
 6271TIP3   OH240303   5.585   5.619   0.220 -0.9786 -0.6480  0.2300
 6271TIP3    H140304   5.633   5.701   0.213  1.6366 -1.9335  2.3984
 6271TIP3    H240305   5.493   5.646   0.221 -0.1798  2.2559  1.1342
 6272TIP3   OH240306   2.370   4.603   0.283 -0.2818  0.5453 -0.1523
 6272TIP3    H140307   2.457   4.645   0.282 -0.7631  1.6090  1.1569
 6272TIP3    H240308   2.387   4.514   0.314  0.3852  0.6535 -0.1913
 6273TIP3   OH240309   2.991   2.858  11.332  0.3258 -0.1824 -0.8286
 6273TIP3    H140310   2.962   2.769  11.352  1.8794 -0.2164  1.4057
 6273TIP3    H240311   2.922   2.915  11.368 -0.9115 -0.4663 -2.6928
 6274TIP3   OH240312   4.315   4.835  12.814 -0.5361 -0.1906 -0.1301
 6274TIP3    H140313   4.321   4.741  12.830  0.2858 -0.2536 -0.7375
 6274TIP3    H240314   4.345   4.845  12.723 -1.0771  0.6021 -0.2211
 6275TIP3   OH240315   4.475   5.319  11.482 -0.0077 -0.3878  0.2540
 6275TIP3    H140316   4.516   5.301  11.397 -0.7845 -0.4843 -0.1022
 6275TIP3    H240317   4.409   5.251  11.492 -2.2870  1.5930 -0.6390
 6276TIP3   OH240318   5.218   4.411   2.667  0.2828  0.4476  0.0625
 6276TIP3    H140319   5.266   4.443   2.590 -0.0364 -1.5210 -0.9909
 6276TIP3    H240320   5.286   4.380   2.727  0.4724  0.8220  0.0427
 6277TIP3   OH240321   6.094   4.453   0.669 -0.2552  0.2870  0.8003
 6277TIP3    H140322   6.021   4.407   0.630 -0.8256  0.3868  1.7457
 6277TIP3    H240323   6.126   4.510   0.599 -1.9440  1.2583  0.8008
 6278TIP3   OH240324   1.726   3.130   1.602  0.1809  0.0885 -0.6832
 6278TIP3    H140325   1.725   3.098   1.692  1.0976  0.5145 -0.5263
 6278TIP3    H240326   1.652   3.085   1.561 -0.3203 -0.0130  0.3088
 6279TIP3   OH240327   6.746   0.572  17.007  0.0885  0.3203 -0.8663
 6279TIP3    H140328   6.790   0.518  16.942  0.4822  0.9109 -1.1000
 6279TIP3    H240329   6.653   0.559  16.991  0.1818 -0.7796 -0.5017
 6280TIP3   OH240330   5.300   3.543  13.624 -0.0498 -0.4569  0.3492
 6280TIP3    H140331   5.299   3.467  13.682 -0.3293 -1.5311 -1.0472
 6280TIP3    H240332   5.208   3.554  13.598  0.1036 -0.0890 -0.0330
 6281TIP3   OH240333   4.924   4.912  13.184  0.0990  0.2369 -0.4668
 6281TIP3    H140334   4.943   4.824  13.216 -0.6323 -0.1096 -0.9843
 6281TIP3    H240335   4.835   4.930  13.213 -0.0756  0.4573 -1.1284
 6282TIP3   OH240336   0.055   4.448   4.159 -0.6580  0.8572  0.5385
 6282TIP3    H140337   0.119   4.493   4.104  0.1207 -0.5416  0.2717
 6282TIP3    H240338   0.106   4.378   4.202 -2.0184 -0.3108  0.2698
 6283TIP3   OH240339   6.229   4.204  13.483  0.2284 -0.2826  0.2469
 6283TIP3    H140340   6.258   4.256  13.559  1.5957 -0.5567 -0.0787
 6283TIP3    H240341   6.251   4.114  13.507 -1.2640 -0.6186  0.3991
 6284TIP3   OH240342   5.649   3.878  11.126  0.6026 -0.2748  0.2288
 6284TIP3    H140343   5.679   3.955  11.172 -0.8588  0.2153  0.3970
 6284TIP3    H240344   5.610   3.911  11.045  1.0981 -0.9354 -0.2889
 6285TIP3   OH240345   6.169   4.616  14.136  0.0881  0.6293 -0.0356
 6285TIP3    H140346   6.109   4.645  14.205  1.6129 -0.4492  1.7897
 6285TIP3    H240347   6.136   4.530  14.110 -0.7762  1.2458 -1.0449
 6286TIP3   OH240348   3.182   5.263   2.193  0.0181 -0.2531 -0.4573
 6286TIP3    H140349   3.275   5.276   2.215 -0.4153  0.6646  0.8808
 6286TIP3    H240350   3.154   5.348   2.156  0.1951 -1.1307 -2.7170
 6287TIP3   OH240351   1.806   6.036  16.580 -0.1673 -0.1047  0.2910
 6287TIP3    H140352   1.780   6.128  16.579 -1.0534 -0.3422  1.0879
 6287TIP3    H240353   1.799   6.008  16.489 -1.8240  0.0864  0.3442
 6288TIP3   OH240354   2.422   3.622  11.786  0.3003 -0.2025  0.2848
 6288TIP3    H140355   2.499   3.566  11.794  0.2161 -0.2751  0.5931
 6288TIP3    H240356   2.352   3.574  11.831 -1.0136 -2.1013 -3.5579
 6289TIP3   OH240357   4.077   0.979   0.955 -0.2401  0.3954  0.0147
 6289TIP3    H140358   4.039   0.896   0.983 -0.9561  0.9629  0.7527
 6289TIP3    H240359   4.008   1.044   0.970  0.2082  1.0839 -0.8240
 6290TIP3   OH240360   2.635   0.188   4.829 -0.3230  0.1708 -0.5277
 6290TIP3    H140361   2.699   0.192   4.900 -1.3445 -1.6789  0.5646
 6290TIP3    H240362   2.596   0.275   4.826  1.4231  0.9675 -0.4255
 6291TIP3   OH240363   3.015   4.479  14.957 -0.7176 -0.0510 -0.0324
 6291TIP3    H140364   3.062   4.546  14.909 -0.4333 -1.0596 -1.1917
 6291TIP3    H240365   3.077   4.450  15.025 -0.3965  0.0124 -0.2971
 6292TIP3   OH240366   2.741   2.091  16.809  0.1958 -0.2283  0.0169
 6292TIP3    H140367   2.766   2.011  16.856  1.0052  0.5860  0.9940
 6292TIP3    H240368   2.669   2.063  16.752  0.9348 -1.8131 -0.1858
 6293TIP3   OH240369   2.396   3.446   3.527  0.5209  0.0225  0.1538
 6293TIP3    H140370   2.314   3.486   3.498 -0.4982 -1.1055  1.3976
 6293TIP3    H240371   2.369   3.379   3.590  2.4639  0.5200  1.5720
 6294TIP3   OH240372   4.114   3.579  13.913 -0.5466  0.5794 -0.1070
 6294TIP3    H140373   4.131   3.571  14.007 -0.4870  1.8759  0.0056
 6294TIP3    H240374   4.030   3.535  13.900  0.2527 -1.0946  0.2592
 6295TIP3   OH240375   1.793   6.360   1.596  0.2095  0.5333 -0.1735
 6295TIP3    H140376   1.711   6.325   1.562  0.5585 -0.1219 -0.3321
 6295TIP3    H240377   1.843   6.387   1.518  0.3043  0.5885 -0.0947
 6296TIP3   OH240378   5.354   5.480  11.627  0.5667  0.0336  0.0941
 6296TIP3    H140379   5.309   5.488  11.710  0.0379 -0.6429 -0.1204
 6296TIP3    H240380   5.416   5.553  11.625  1.3951 -0.6047  1.5825
 6297TIP3   OH240381   3.251   3.923   4.280  0.2812  0.4332  0.3476
 6297TIP3    H140382   3.168   3.908   4.234  1.1826  0.1173 -1.2284
 6297TIP3    H240383   3.230   3.988   4.347 -1.5770 -0.8185  1.0119
 6298TIP3   OH240384   1.254   0.528  14.940 -0.2469  0.1710  0.2389
 6298TIP3    H140385   1.278   0.436  14.927  1.3537  0.5529  0.3765
 6298TIP3    H240386   1.169   0.537  14.897 -0.7451 -1.5351  0.8125
 6299TIP3   OH240387   1.983   4.125   4.766  0.7991  0.0831 -0.0916
 6299TIP3    H140388   1.896   4.163   4.751  0.4240 -0.5152  0.5516
 6299TIP3    H240389   1.983   4.044   4.715 -0.3711 -1.8036  2.7455
 6300TIP3   OH240390   0.084   6.587   0.346  0.0476 -0.2083 -0.4163
 6300TIP3    H140391   0.077   6.604   0.252  1.6349 -1.2781 -0.7369
 6300TIP3    H240392   0.175   6.606   0.367 -0.4197  0.5066  1.0135
 6301TIP3   OH240393   3.969   4.242   5.020  0.0845  0.3401 -0.4416
 6301TIP3    H140394   3.927   4.248   4.935  0.6336 -1.2855 -0.8388
 6301TIP3    H240395   3.904   4.201   5.076 -0.5767  2.1295  0.1632
 6302TIP3   OH240396   3.268   6.508  16.643  0.2801  0.7101 -0.2940
 6302TIP3    H140397   3.259   6.482  16.551  1.1385 -1.2039  0.1286
 6302TIP3    H240398   3.363   6.511  16.658  0.1769 -1.5193  1.1652
 6303TIP3   OH240399   3.892   6.497   5.559 -0.0773 -0.9029  0.1018
 6303TIP3    H140400   3.867   6.503   5.467 -1.2586  0.4999  0.4933
 6303TIP3    H240401   3.938   6.413   5.566 -1.8102 -1.9962 -1.3258
 6304TIP3   OH240402   2.425   3.487  15.558  0.3486  0.1906  0.4025
 6304TIP3    H140403   2.382   3.552  15.612 -0.5932 -0.1758  0.1001
 6304TIP3    H240404   2.514   3.521  15.545  1.3413 -0.7902  4.0409
 6305TIP3   OH240405   5.643   0.905  14.483 -0.3757  0.0208 -0.2199
 6305TIP3    H140406   5.583   0.942  14.419  1.2523  0.0051 -1.8138
 6305TIP3    H240407   5.695   0.980  14.512  0.4696 -0.3621 -0.7151
 6306TIP3   OH240408   1.598   6.126   0.376  0.6083 -0.0872 -0.4752
 6306TIP3    H140409   1.543   6.081   0.312 -2.6099  1.7989  0.8534
 6306TIP3    H240410   1.564   6.216   0.377  2.9992  0.8383  1.2461
 6307TIP3   OH240411   0.388   0.200  13.505  0.5887  0.1709  0.3434
 6307TIP3    H140412   0.351   0.147  13.576 -1.3456  1.6005  0.4456
 6307TIP3    H240413   0.478   0.217  13.533  1.3180 -3.1197  0.2366
 6308TIP3   OH240414   6.164   4.145   6.260  0.5717 -0.3081  0.4927
 6308TIP3    H140415   6.112   4.107   6.332  0.2535 -0.1473  0.3462
 6308TIP3    H240416   6.232   4.080   6.244  0.0090 -0.8380  0.2244
 6309TIP3   OH240417   4.099   5.143   0.678  0.0565  0.4199  0.0524
 6309TIP3    H140418   4.137   5.229   0.661 -0.2824  0.3519 -1.0644
 6309TIP3    H240419   4.040   5.128   0.605 -0.6884 -0.3111  0.7926
 6310TIP3   OH240420   3.355   4.247   2.145  0.6493  0.0299  0.0851
 6310TIP3    H140421   3.308   4.324   2.177  2.1188  0.9268  0.1186
 6310TIP3    H240422   3.299   4.211   2.077 -0.7223  0.3084  1.0569
 6311TIP3   OH240423   6.672   5.383  13.668  0.1761 -0.5080  0.5926
 6311TIP3    H140424   6.640   5.311  13.614 -0.9999  0.5120 -0.1208
 6311TIP3    H240425   6.599   5.405  13.726  0.7726 -0.3620  1.3005
 6312TIP3   OH240426   2.507   1.088  13.012 -0.1063  0.5302  0.3072
 6312TIP3    H140427   2.428   1.097  13.066 -0.6335  0.0966 -0.3890
 6312TIP3    H240428   2.476   1.054  12.928  1.0794 -1.8310  0.7695
 6313TIP3   OH240429   3.242   1.782  15.359 -0.7231  0.2938 -0.4596
 6313TIP3    H140430   3.290   1.836  15.295  0.5902 -0.6797 -0.3146
 6313TIP3    H240431   3.294   1.788  15.439 -0.0761 -1.8533 -0.6780
 6314TIP3   OH240432   6.600   3.624  14.108  0.5389  0.0130 -0.6022
 6314TIP3    H140433   6.630   3.702  14.154 -0.5077 -0.8077  1.5204
 6314TIP3    H240434   6.646   3.552  14.150 -1.0189 -0.8200 -0.2797
 6315TIP3   OH240435   6.098   2.842   1.771 -0.2285 -0.3272  0.0262
 6315TIP3    H140436   6.010   2.810   1.751 -0.4101 -0.0558  0.3912
 6315TIP3    H240437   6.113   2.913   1.709 -1.0210  0.9054  1.2113
 6316TIP3   OH240438   2.927   4.414   5.384  0.2553 -0.2748 -0.3150
 6316TIP3    H140439   2.906   4.385   5.295 -1.0465  1.3095 -0.5553
 6316TIP3    H240440   2.958   4.335   5.429 -0.4585 -1.3918 -1.7494
 6317TIP3   OH240441   5.580   6.158  14.977 -0.2782  0.2474 -0.1315
 6317TIP3    H140442   5.632   6.232  15.012  0.7885 -0.7595  0.4624
 6317TIP3    H240443   5.602   6.085  15.035 -0.6016 -0.7704 -1.2888
 6318TIP3   OH240444   0.779   3.022  11.881  0.5392 -0.4571 -0.3835
 6318TIP3    H140445   0.836   3.037  11.806 -0.7200 -0.5599 -1.3598
 6318TIP3    H240446   0.713   2.960  11.851  1.5063 -2.5049  1.5574
 6319TIP3   OH240447   2.709   4.886   5.634  0.3188 -0.3811 -0.4861
 6319TIP3    H140448   2.662   4.968   5.626  1.5532  0.4135  0.3266
 6319TIP3    H240449   2.681   4.849   5.718 -0.1494 -0.7414 -0.7978
 6320TIP3   OH240450   6.429   2.040  11.742  0.4657  0.5301 -0.4846
 6320TIP3    H140451   6.437   1.957  11.695  0.7010  0.4610 -0.3234
 6320TIP3    H240452   6.513   2.051  11.787  0.4467  0.8695 -0.5290
 6321TIP3   OH240453   3.326   2.581   0.991  0.7103 -0.6010 -0.4785
 6321TIP3    H140454   3.231   2.590   0.997  0.8785  2.5770 -1.6032
 6321TIP3    H240455   3.341   2.553   0.901  0.9184  0.8956 -0.9256
 6322TIP3   OH240456   5.939   2.948   2.484 -0.0083  0.7623  0.2003
 6322TIP3    H140457   5.946   2.928   2.578 -0.2432 -0.8850 -0.1170
 6322TIP3    H240458   5.962   3.040   2.478  1.6206  0.4868  1.6819
 6323TIP3   OH240459   3.905   4.864  14.284 -0.0774 -0.3821  0.1465
 6323TIP3    H140460   3.897   4.881  14.191  0.2183  0.9235  0.3415
 6323TIP3    H240461   3.947   4.778  14.290  1.6758  0.3624 -0.9496
 6324TIP3   OH240462   5.239   3.536   6.134  0.0593  0.3011  0.0363
 6324TIP3    H140463   5.319   3.586   6.116  0.5985 -0.9737 -1.2435
 6324TIP3    H240464   5.253   3.500   6.222  1.5844 -1.1429 -0.7580
 6325TIP3   OH240465   4.458   0.523   6.457 -0.5725 -0.1505  0.0866
 6325TIP3    H140466   4.483   0.433   6.435  1.1091 -0.8745  4.5057
 6325TIP3    H240467   4.407   0.515   6.537 -1.0855  2.7855  0.1014
 6326TIP3   OH240468   3.132   6.017  15.641 -0.0390 -0.2897  0.6407
 6326TIP3    H140469   3.194   6.085  15.614  1.2872 -1.3285  1.0258
 6326TIP3    H240470   3.181   5.963  15.702 -1.2341 -1.3251  0.7027
 6327TIP3   OH240471   5.839   6.676  16.340  0.1634 -0.3700 -0.7194
 6327TIP3    H140472   5.924   6.633  16.342  0.7630  0.8174  0.4836
 6327TIP3    H240473   5.847   6.741  16.270  0.6567  0.5191  0.1475
 6328TIP3   OH240474   2.764   2.303  14.442 -0.2180  0.1668  0.0762
 6328TIP3    H140475   2.824   2.248  14.492  0.1514  0.1776 -0.3594
 6328TIP3    H240476   2.705   2.241  14.399 -0.2814  0.1444  0.1928
 6329TIP3   OH240477   4.955   3.869  12.243 -0.7508  0.1077  0.6260
 6329TIP3    H140478   4.864   3.898  12.247 -0.8704  0.7945 -3.7273
 6329TIP3    H240479   4.951   3.785  12.197  0.8021  0.0502  0.5614
 6330TIP3   OH240480   6.317   4.753   0.687 -0.0083  0.2990 -0.0649
 6330TIP3    H140481   6.377   4.726   0.757  0.6229  1.3039 -0.1982
 6330TIP3    H240482   6.231   4.726   0.717  0.0071  2.3430  1.9578
 6331TIP3   OH240483   2.956   1.038  15.682  0.4306  0.3847  0.4272
 6331TIP3    H140484   2.883   1.072  15.734 -1.1287 -0.7491 -0.9706
 6331TIP3    H240485   3.014   1.114  15.670  1.1046  0.5539  4.1756
 6332TIP3   OH240486   4.803   4.311   0.816  0.4295 -0.0852  0.4844
 6332TIP3    H140487   4.742   4.386   0.812  1.1482  0.4446 -0.5986
 6332TIP3    H240488   4.772   4.251   0.749  0.2640 -0.4608  0.8930
 6333TIP3   OH240489   2.232   4.043  12.349 -0.2277  0.4284 -0.5916
 6333TIP3    H140490   2.206   4.101  12.421 -2.0709 -0.0974 -0.7950
 6333TIP3    H240491   2.161   3.979  12.345  1.6971 -1.7418 -0.4821
 6334TIP3   OH240492   3.422   2.577   4.445  0.3778 -0.1119 -0.2589
 6334TIP3    H140493   3.332   2.551   4.466  0.6595 -0.3864  0.6475
 6334TIP3    H240494   3.414   2.667   4.412 -0.0324  0.5552  1.6010
 6335TIP3   OH240495   1.998   5.331   1.200 -0.3414 -0.5910 -0.0701
 6335TIP3    H140496   2.018   5.353   1.109 -0.0199 -1.7476 -0.2813
 6335TIP3    H240497   1.935   5.398   1.227  0.1428  0.2111 -0.9016
 6336TIP3   OH240498   5.842   1.263   4.063  0.0268 -0.0877  0.0366
 6336TIP3    H140499   5.769   1.226   4.013 -3.3090  2.3073  2.8929
 6336TIP3    H240500   5.853   1.351   4.027 -1.4137  1.1029  2.3265
 6337TIP3   OH240501   4.863   6.650  17.268 -0.3070  0.1621 -0.1285
 6337TIP3    H140502   4.822   6.677  17.186 -0.0469 -1.1776 -0.7271
 6337TIP3    H240503   4.909   6.728  17.299 -0.1291  0.5996 -1.4454
 6338TIP3   OH240504   5.164   1.231   4.484  0.2696 -0.0869  0.3742
 6338TIP3    H140505   5.074   1.209   4.458  0.8818 -1.3090 -0.7490
 6338TIP3    H240506   5.153   1.295   4.554 -1.4680  0.3191 -0.2464
 6339TIP3   OH240507   5.317   0.828   2.679 -0.4492 -0.4990 -0.3994
 6339TIP3    H140508   5.348   0.904   2.630  0.9005  0.0343  1.2467
 6339TIP3    H240509   5.222   0.836   2.679 -0.3252  0.9412 -0.6488
 6340TIP3   OH240510   2.389   3.189  11.855 -0.0226  0.5881  0.3709
 6340TIP3    H140511   2.319   3.254  11.855  1.1659  1.9488 -1.5402
 6340TIP3    H240512   2.408   3.175  11.762  1.3453 -0.7236  0.8322
 6341TIP3   OH240513   2.633   3.907  13.181 -0.3847  0.1864 -0.7095
 6341TIP3    H140514   2.653   3.993  13.218  0.3465 -0.1870 -0.2129
 6341TIP3    H240515   2.578   3.865  13.247  2.8429 -1.3801  1.1281
 6342TIP3   OH240516   1.290   6.645   5.267 -0.0276 -0.1572  0.4555
 6342TIP3    H140517   1.310   6.658   5.360  1.0210 -0.8584  0.3465
 6342TIP3    H240518   1.251   6.728   5.239 -0.1007  0.1560  1.4593
 6343TIP3   OH240519   2.863   1.086  11.793  0.3960 -0.5799  0.7654
 6343TIP3    H140520   2.835   1.107  11.882  0.1285  0.7319  0.3749
 6343TIP3    H240521   2.880   1.170  11.751  3.0553 -1.2405  0.3651
 6344TIP3   OH240522   1.604   1.864  11.386  0.4316 -0.1391  0.0978
 6344TIP3    H140523   1.517   1.904  11.388  1.0917  1.3081  0.7591
 6344TIP3    H240524   1.591   1.777  11.425 -0.5516  0.4037  1.0029
 6345TIP3   OH240525   4.789   3.626   2.874  0.2207  0.0928  0.2368
 6345TIP3    H140526   4.808   3.671   2.792  0.8496 -1.3664 -0.4256
 6345TIP3    H240527   4.694   3.610   2.872 -0.1881  2.2612  0.9440
 6346TIP3   OH240528   5.145   1.983   5.418  0.2677  0.3182  0.0222
 6346TIP3    H140529   5.201   1.961   5.344  0.1232 -0.6026  0.1808
 6346TIP3    H240530   5.172   1.924   5.488 -2.0565 -1.4012 -0.4403
 6347TIP3   OH240531   5.813   2.724   0.153 -0.4616  0.3561  0.1810
 6347TIP3    H140532   5.867   2.797   0.183  1.1274  0.2217 -2.2676
 6347TIP3    H240533   5.724   2.749   0.179  0.4044  1.8512  1.8308
 6348TIP3   OH240534   4.069   2.696  13.844  0.2785  0.2828 -0.1355
 6348TIP3    H140535   3.981   2.711  13.877  1.0154 -0.0488  2.0623
 6348TIP3    H240536   4.093   2.609  13.876  0.9402 -0.1810 -1.8062
 6349TIP3   OH240537   0.739   3.118   1.610  0.4567 -0.2294 -0.4785
 6349TIP3    H140538   0.729   3.101   1.704 -1.3268 -3.8399 -1.2470
 6349TIP3    H240539   0.668   3.179   1.588 -0.3024 -0.8796  0.1597
 6350TIP3   OH240540   6.630   6.027   6.135  0.5317  0.6795 -0.3061
 6350TIP3    H140541   6.677   5.991   6.209 -0.9145  0.8840  0.7362
 6350TIP3    H240542   6.603   6.115   6.163 -3.8783 -0.8571  0.7044
 6351TIP3   OH240543   4.279   2.186  16.582 -0.4797  0.4234  0.0860
 6351TIP3    H140544   4.190   2.223  16.577 -1.3886 -1.5240  1.2734
 6351TIP3    H240545   4.296   2.153  16.494 -0.1833  2.4047 -0.6351
 6352TIP3   OH240546   2.644   1.469   1.197  0.5892  0.1496  0.1483
 6352TIP3    H140547   2.688   1.494   1.115 -0.3970  3.2001  0.4660
 6352TIP3    H240548   2.553   1.496   1.184  0.3405  0.3256  2.1171
 6353TIP3   OH240549   0.375   4.699  12.873  0.6034 -0.1581 -0.5592
 6353TIP3    H140550   0.423   4.619  12.894  0.0205 -0.3500  0.0795
 6353TIP3    H240551   0.431   4.746  12.811  0.5430 -1.4771 -1.6217
 6354TIP3   OH240552   1.192   3.744   2.169 -0.8753  0.0797  0.2641
 6354TIP3    H140553   1.226   3.719   2.083  0.0009 -0.3823  0.7382
 6354TIP3    H240554   1.105   3.779   2.151 -0.1752  1.2487 -0.9695
 6355TIP3   OH240555   3.790   1.704   2.015  0.2475 -0.9443 -0.5550
 6355TIP3    H140556   3.796   1.718   2.109  0.6625 -1.2532 -0.5326
 6355TIP3    H240557   3.837   1.622   2.000  0.0727 -0.9619 -1.0124
 6356TIP3   OH240558   4.598   3.603   0.729  0.0875  1.0315 -0.3187
 6356TIP3    H140559   4.654   3.527   0.740 -0.5001  0.5098 -0.9263
 6356TIP3    H240560   4.516   3.579   0.772 -0.3812  1.0005 -1.2145
 6357TIP3   OH240561   5.029   5.864   0.683 -0.0114 -0.9099  0.1366
 6357TIP3    H140562   4.934   5.853   0.676 -0.3498  0.7167  1.8003
 6357TIP3    H240563   5.045   5.882   0.776  1.8555 -0.5272 -0.2340
 6358TIP3   OH240564   2.626   3.698  12.156 -0.2600  0.2343 -0.2136
 6358TIP3    H140565   2.658   3.620  12.111  0.5784 -0.0465  0.8488
 6358TIP3    H240566   2.551   3.668  12.206  0.0451  0.1052  0.1723
 6359TIP3   OH240567   2.134   2.994  11.632 -0.1078 -0.1369 -0.3817
 6359TIP3    H140568   2.118   3.086  11.613 -1.2790 -0.9173 -3.4724
 6359TIP3    H240569   2.150   2.991  11.726 -2.4967  2.8871  0.1933
 6360TIP3   OH240570   0.942   4.610   4.383 -0.0965 -0.0840  0.0344
 6360TIP3    H140571   1.024   4.659   4.378  0.3284 -0.8852 -1.2350
 6360TIP3    H240572   0.874   4.677   4.389  0.5551  0.6267 -0.4255
 6361TIP3   OH240573   6.672   0.061   6.508 -0.0621 -0.4323  0.2330
 6361TIP3    H140574   6.720  -0.019   6.530 -0.6188 -1.7011 -2.9811
 6361TIP3    H240575   6.607   0.034   6.444  0.4742  2.7997 -1.8115
 6362TIP3   OH240576   2.825   3.819   2.838 -0.6673  0.9028 -0.0435
 6362TIP3    H140577   2.877   3.807   2.759 -0.5256 -0.6648  0.2769
 6362TIP3    H240578   2.754   3.755   2.830 -0.7348  0.8398  1.0267
 6363TIP3   OH240579   4.766   4.306   2.335 -1.1087 -0.5877  0.4652
 6363TIP3    H140580   4.860   4.287   2.334 -0.8459  0.5334 -2.5970
 6363TIP3    H240581   4.724   4.221   2.350  0.3475 -1.7525 -1.7387
 6364TIP3   OH240582   6.401   4.156   5.011 -0.1046 -0.8716 -0.2223
 6364TIP3    H140583   6.407   4.252   5.016  0.5524 -0.8604 -1.0965
 6364TIP3    H240584   6.398   4.137   4.917 -3.0161 -1.5710 -0.0358
 6365TIP3   OH240585   4.901   0.193  11.884 -0.5171 -0.1970  0.0479
 6365TIP3    H140586   4.932   0.230  11.967  0.2692  1.7420 -1.0827
 6365TIP3    H240587   4.817   0.154  11.906 -1.1832  1.9137  1.3908
 6366TIP3   OH240588   4.031   1.014  13.085  0.3537 -0.8808  0.4121
 6366TIP3    H140589   3.951   1.003  13.033  1.2672 -0.6923 -1.0346
 6366TIP3    H240590   4.041   1.109  13.095 -0.5249 -0.9269  2.0778
 6367TIP3   OH240591   4.476   2.182   2.416 -0.5914  0.1360 -0.3853
 6367TIP3    H140592   4.569   2.174   2.393 -0.6244  0.6887 -0.7110
 6367TIP3    H240593   4.451   2.093   2.443  0.1725  0.1185  0.2601
 6368TIP3   OH240594   2.775   6.583  17.235 -0.0501 -0.0021 -0.6933
 6368TIP3    H140595   2.782   6.618  17.324  1.5278  1.3434 -1.3010
 6368TIP3    H240596   2.717   6.508  17.243 -2.4926  1.9637  0.9183
 6369TIP3   OH240597   3.908   4.823  13.531  1.1778  0.0060  0.4091
 6369TIP3    H140598   3.882   4.769  13.457 -0.0824 -0.4865  1.1955
 6369TIP3    H240599   3.955   4.764  13.589 -2.2429 -0.9136  2.4014
 6370TIP3   OH240600   5.064   5.635   2.456 -0.2670 -0.5617  0.0881
 6370TIP3    H140601   5.029   5.668   2.374 -0.3676 -1.1432 -0.1082
 6370TIP3    H240602   5.158   5.622   2.439  0.1441  1.4394  0.7566
 6371TIP3   OH240603   0.506   6.459  15.913 -0.2072 -0.4619 -0.6573
 6371TIP3    H140604   0.596   6.466  15.945 -0.2600 -1.0281 -0.3834
 6371TIP3    H240605   0.452   6.469  15.991 -0.3282 -2.1323 -0.5089
 6372TIP3   OH240606   3.237   1.048   5.435  0.1915  0.9639 -0.2119
 6372TIP3    H140607   3.296   0.974   5.450 -0.4559  0.2643 -1.1354
 6372TIP3    H240608   3.201   1.067   5.522  0.0327 -0.0797 -0.0438
 6373TIP3   OH240609   2.426   5.404   1.918 -0.1845  0.5863  0.1992
 6373TIP3    H140610   2.509   5.449   1.928 -0.1122  0.4916  0.0073
 6373TIP3    H240611   2.439   5.319   1.961 -0.1285  0.5025  0.0137
 6374TIP3   OH240612   4.108   2.952  13.982 -0.2913 -0.6372 -0.2100
 6374TIP3    H140613   4.124   2.875  13.928  0.7490 -1.2623  0.9863
 6374TIP3    H240614   4.074   3.017  13.920  0.1654 -1.5850 -1.4818
 6375TIP3   OH240615   5.173   2.315   0.034  0.1026  0.0378 -0.1494
 6375TIP3    H140616   5.129   2.301   0.118 -3.4451 -0.3222 -1.9673
 6375TIP3    H240617   5.224   2.235   0.020  0.6615  0.0689  1.5821
 6376TIP3   OH240618   2.378   0.497   4.582  0.4207  0.7286  0.3728
 6376TIP3    H140619   2.404   0.405   4.578  0.8523  0.9008 -2.0146
 6376TIP3    H240620   2.427   0.533   4.656  1.6775 -0.5455  0.1853
 6377TIP3   OH240621   6.135   3.082  11.806 -0.2292  0.0091  0.5382
 6377TIP3    H140622   6.202   3.100  11.739 -1.2188  1.7934  0.0054
 6377TIP3    H240623   6.174   3.113  11.887  1.2477 -2.7617  0.9713
 6378TIP3   OH240624   0.186   6.587  15.577 -0.4847 -0.4440 -0.0130
 6378TIP3    H140625   0.167   6.609  15.486  0.9277 -2.3158 -0.7787
 6378TIP3    H240626   0.280   6.603  15.587 -0.5076 -0.8692  0.9364
 6379TIP3   OH240627   6.212   0.507   4.034  0.3510 -0.6952 -0.7948
 6379TIP3    H140628   6.281   0.519   4.100  1.3517  1.7774 -2.2281
 6379TIP3    H240629   6.159   0.586   4.040  0.2715 -0.5741 -2.7308
 6380TIP3   OH240630   5.524   4.754  13.680 -0.4262  0.2172 -0.0921
 6380TIP3    H140631   5.494   4.815  13.612  1.4776 -0.5132 -1.6664
 6380TIP3    H240632   5.485   4.670  13.656  1.5439 -0.3998 -1.2745
 6381TIP3   OH240633   2.705   4.650   4.182  0.9044  0.2860  0.1864
 6381TIP3    H140634   2.682   4.685   4.096  2.3694  0.1811 -0.2672
 6381TIP3    H240635   2.780   4.704   4.210  1.1648 -0.4290  0.8808
 6382TIP3   OH240636   1.999   5.201   3.914 -0.0145 -0.9634 -0.1818
 6382TIP3    H140637   2.000   5.134   3.845 -1.0924 -0.6930 -0.4617
 6382TIP3    H240638   2.026   5.281   3.869 -1.7160 -0.5650 -0.5398
 6383TIP3   OH240639   3.307   1.065   1.020 -0.1078 -0.2411  0.5567
 6383TIP3    H140640   3.288   1.098   1.108  0.4865 -3.1704  1.8388
 6383TIP3    H240641   3.395   1.097   1.001  0.6437 -1.4052  1.9645
 6384TIP3   OH240642   4.834   5.580  12.591 -0.2733  0.2570  0.0417
 6384TIP3    H140643   4.903   5.620  12.537 -0.6646  1.9407  0.7464
 6384TIP3    H240644   4.755   5.629  12.568 -1.1295 -1.2816 -0.3317
 6385TIP3   OH240645   5.993   4.689   0.250  0.8311  0.4350 -0.3633
 6385TIP3    H140646   5.937   4.674   0.326  1.0610  0.0198 -0.2747
 6385TIP3    H240647   5.940   4.745   0.192  1.4837  2.6108  1.0727
 6386TIP3   OH240648   5.352   4.026  12.456  0.2330 -0.3137  0.2973
 6386TIP3    H140649   5.269   3.979  12.464 -0.0034  0.3641  2.1096
 6386TIP3    H240650   5.342   4.080  12.378 -0.5370 -1.1977 -0.2259
 6387TIP3   OH240651   3.018   1.023   2.730  0.0489  0.3893  0.0352
 6387TIP3    H140652   3.003   1.059   2.642 -0.1381  0.0961 -0.0519
 6387TIP3    H240653   3.095   0.967   2.721 -2.5856 -3.2762 -0.9802
 6388TIP3   OH240654   3.079   2.903   2.144 -0.8469  0.1221 -0.0650
 6388TIP3    H140655   3.112   2.833   2.200 -1.7216 -1.3766 -1.3895
 6388TIP3    H240656   3.113   2.984   2.184 -0.1787 -1.0116  1.7122
 6389TIP3   OH240657   0.580   6.390  16.558  0.1643 -0.2689  0.1973
 6389TIP3    H140658   0.592   6.365  16.466  0.8715  1.5505 -0.2378
 6389TIP3    H240659   0.485   6.397  16.569  0.1137  0.8266 -0.7954
 6390TIP3   OH240660   6.354   1.296  13.887  0.2938 -0.1972  0.1829
 6390TIP3    H140661   6.438   1.333  13.915 -1.4189  1.8297  2.9475
 6390TIP3    H240662   6.341   1.221  13.944  0.5548 -0.9707 -0.7600
 6391TIP3   OH240663   1.997   3.840   4.380  0.0702 -0.5604  0.5164
 6391TIP3    H140664   2.093   3.835   4.374  0.2027 -1.1313  2.5717
 6391TIP3    H240665   1.966   3.764   4.331  0.7042 -0.8412  0.5463
 6392TIP3   OH240666   1.395   1.969   4.425 -0.4410 -0.6128 -0.1931
 6392TIP3    H140667   1.308   2.005   4.409  0.2114  0.6031 -1.1001
 6392TIP3    H240668   1.439   2.036   4.477  0.5259 -0.4188 -1.2412
 6393TIP3   OH240669   3.785   2.584   4.627 -0.0525 -0.2306 -0.0128
 6393TIP3    H140670   3.721   2.592   4.557  0.4914  1.6381 -0.3327
 6393TIP3    H240671   3.852   2.526   4.592  0.3620  0.9276 -1.1749
 6394TIP3   OH240672   0.244   4.866  15.939  0.7254 -0.0760  0.4362
 6394TIP3    H140673   0.274   4.845  15.850  2.5284  0.2146  0.9622
 6394TIP3    H240674   0.279   4.953  15.956  2.5664 -1.1527  2.3804
 6395TIP3   OH240675   0.997   0.587  13.294 -0.4927 -0.0720  0.2363
 6395TIP3    H140676   0.907   0.601  13.268 -0.1701  1.4826 -0.0871
 6395TIP3    H240677   1.047   0.590  13.213 -0.1752 -1.2543  0.3730
 6396TIP3   OH240678   6.272   5.933  13.638  0.0065 -0.0870 -0.3418
 6396TIP3    H140679   6.317   5.940  13.554  0.1371  0.5060 -0.2285
 6396TIP3    H240680   6.219   5.854  13.631 -0.0281 -0.0049 -0.9978
 6397TIP3   OH240681   1.469   1.334   1.508  0.7765  0.3644  0.0234
 6397TIP3    H140682   1.510   1.420   1.499  1.0092  0.2128 -0.3888
 6397TIP3    H240683   1.379   1.353   1.533  0.2037  0.8089 -2.2844
 6398TIP3   OH240684   5.873   0.174   6.481  0.1194 -0.2300  0.1564
 6398TIP3    H140685   5.876   0.188   6.576 -0.9729 -1.4872  0.3967
 6398TIP3    H240686   5.937   0.105   6.465  1.6426  1.2565 -0.2928
 6399TIP3   OH240687   1.404   0.424   0.644 -0.3946  0.3542  0.0247
 6399TIP3    H140688   1.371   0.504   0.686  3.2902  1.3427  1.1858
 6399TIP3    H240689   1.399   0.443   0.550  0.2105  1.8885  0.2772
 6400TIP3   OH240690   5.422   6.475  13.832 -0.7346 -0.5199 -0.0548
 6400TIP3    H140691   5.421   6.519  13.747  0.7357 -1.4494 -0.5757
 6400TIP3    H240692   5.332   6.446  13.845 -1.6724  2.2634  0.1319
 6401TIP3   OH240693   5.595   0.914  12.888  0.1424  0.4175  0.3344
 6401TIP3    H140694   5.639   0.835  12.855  0.0688  0.6104 -0.2350
 6401TIP3    H240695   5.515   0.882  12.929 -0.6784  0.3255 -1.2982
 6402TIP3   OH240696   1.791   5.573   0.891 -0.0466  0.3567 -0.0339
 6402TIP3    H140697   1.813   5.557   0.799 -2.7528  1.0611 -0.8505
 6402TIP3    H240698   1.699   5.599   0.890 -0.0623  0.6353  2.8658
 6403TIP3   OH240699   6.213   0.513  14.985 -0.3151 -0.5505  0.3347
 6403TIP3    H140700   6.249   0.591  15.027  0.7447 -0.9216  0.1296
 6403TIP3    H240701   6.238   0.441  15.041 -4.6021 -0.4230  2.6154
 6404TIP3   OH240702   4.308   1.374  12.986  0.2951 -0.0151 -0.7450
 6404TIP3    H140703   4.403   1.362  12.996  0.3301 -0.1167 -1.1626
 6404TIP3    H240704   4.283   1.306  12.922  0.1128  0.6777 -1.4169
 6405TIP3   OH240705   3.303   0.997   0.487  0.2398  0.2606 -0.1001
 6405TIP3    H140706   3.264   0.951   0.561  1.3756 -2.3488 -1.0708
 6405TIP3    H240707   3.371   1.052   0.526  0.7028 -0.9500  0.8254
 6406TIP3   OH240708   2.960   0.329   3.132  0.0204  0.0624  0.3006
 6406TIP3    H140709   2.969   0.297   3.042 -0.0125 -0.2074  0.3938
 6406TIP3    H240710   2.887   0.278   3.168 -1.7008  2.0019 -0.3442
 6407TIP3   OH240711   1.943   2.688  13.603 -0.8916  0.0994  0.0330
 6407TIP3    H140712   1.992   2.633  13.665  1.2479  0.1449 -1.5394
 6407TIP3    H240713   1.881   2.628  13.561  0.2820 -0.7757 -0.4784
 6408TIP3   OH240714   5.276   0.374   0.898  0.1517  0.2442 -0.0617
 6408TIP3    H140715   5.338   0.362   0.826 -0.3136 -1.2335 -0.2336
 6408TIP3    H240716   5.316   0.328   0.972 -1.4960 -2.2230 -0.6337
 6409TIP3   OH240717   2.566   2.215   3.251 -0.2766  0.0328 -0.2879
 6409TIP3    H140718   2.521   2.268   3.317 -0.0686 -0.1166 -0.0274
 6409TIP3    H240719   2.521   2.236   3.169  0.0472  0.8892 -0.2457
 6410TIP3   OH240720   1.506   2.426   6.818 -0.5133 -0.4607 -0.0306
 6410TIP3    H140721   1.451   2.386   6.885  0.3417  0.9549  1.5826
 6410TIP3    H240722   1.546   2.353   6.772  0.0189 -1.4786  1.9870
 6411TIP3   OH240723   4.668   5.111   3.892  0.1567 -0.2165  0.2647
 6411TIP3    H140724   4.689   5.177   3.827  1.0168  0.1087  0.8756
 6411TIP3    H240725   4.752   5.076   3.921 -0.3157 -2.9958 -1.4907
 6412TIP3   OH240726   4.848   2.927  14.248  0.2705  0.0121  0.0387
 6412TIP3    H140727   4.879   2.906  14.160 -0.2781 -0.2927 -0.0838
 6412TIP3    H240728   4.769   2.874  14.258  0.3321  0.0530  0.7127
 6413TIP3   OH240729   4.158   4.747   4.578  0.0062 -0.4610 -0.1911
 6413TIP3    H140730   4.170   4.841   4.586 -0.4712 -0.5131  1.4285
 6413TIP3    H240731   4.241   4.715   4.544  0.7141  0.3738  0.7367
 6414TIP3   OH240732   3.536   5.042  14.058  0.0404  0.2043 -0.6540
 6414TIP3    H140733   3.494   4.990  13.989  2.1942 -1.6027 -0.6827
 6414TIP3    H240734   3.624   5.060  14.025  0.3694  1.1842  0.6969
 6415TIP3   OH240735   1.894   1.820  12.635  0.0101  0.1120  0.3242
 6415TIP3    H140736   1.849   1.798  12.553  0.4429  1.6002 -0.3320
 6415TIP3    H240737   1.848   1.897  12.668  0.4867  0.1344  0.9581
 6416TIP3   OH240738   3.641   0.272  15.814  0.0534 -0.5301 -0.1655
 6416TIP3    H140739   3.579   0.254  15.743  0.0562 -0.9490 -0.0633
 6416TIP3    H240740   3.655   0.187  15.855  4.1150 -1.3626 -2.9534
 6417TIP3   OH240741   6.174   3.948  11.377  0.3371  0.4625 -0.1700
 6417TIP3    H140742   6.200   3.935  11.285  4.3984  0.1108  0.9229
 6417TIP3    H240743   6.157   3.860  11.410 -0.0965  0.4945 -0.3062
 6418TIP3   OH240744   1.812   4.952  15.830 -0.1373 -0.2874  0.0276
 6418TIP3    H140745   1.883   4.979  15.889  1.4276 -1.3197 -1.3115
 6418TIP3    H240746   1.826   5.004  15.751  1.0028 -2.6236 -1.3853
 6419TIP3   OH240747   0.439   0.973  13.520  0.2460  0.0673  0.3247
 6419TIP3    H140748   0.354   1.001  13.553  2.0871  2.1935  3.4912
 6419TIP3    H240749   0.479   1.052  13.485  1.9039 -0.3681  1.1605
 6420TIP3   OH240750   2.718   6.350  16.904 -1.1010  0.4864  0.2403
 6420TIP3    H140751   2.627   6.322  16.908 -0.9262  0.1921  3.2856
 6420TIP3    H240752   2.719   6.420  16.839 -2.6430 -2.5100 -3.1596
 6421TIP3   OH240753   6.158   3.707  13.923  0.2854  0.2899 -0.4532
 6421TIP3    H140754   6.075   3.661  13.912  0.5462 -0.1231 -0.7297
 6421TIP3    H240755   6.134   3.798  13.938 -0.2522  0.0148  0.4040
 6422TIP3   OH240756   1.224   1.004  15.006 -0.2108 -0.0204 -0.0526
 6422TIP3    H140757   1.235   0.941  14.935  0.3538  0.6387 -0.5549
 6422TIP3    H240758   1.136   0.987  15.040 -0.3904 -0.4957 -0.7604
 6423TIP3   OH240759   3.055   6.762   1.539 -0.1098  0.2073 -0.2101
 6423TIP3    H140760   2.980   6.805   1.497 -0.4880  0.8870  1.1191
 6423TIP3    H240761   3.108   6.729   1.467 -1.5984 -0.1081 -1.1671
 6424TIP3   OH240762   0.994   4.159   5.045 -0.0965  0.2174  0.1785
 6424TIP3    H140763   0.947   4.146   5.127  0.8693 -1.2515  0.5295
 6424TIP3    H240764   0.946   4.106   4.981  2.0277 -2.7251  0.9203
 6425TIP3   OH240765   4.509   3.704  15.380  0.8612  0.5518 -0.8192
 6425TIP3    H140766   4.553   3.684  15.297  0.3907 -1.1893 -0.6579
 6425TIP3    H240767   4.434   3.646  15.383  1.4881 -0.2173  1.3419
 6426TIP3   OH240768   2.752   2.421   4.983 -0.3280 -0.3746 -0.2484
 6426TIP3    H140769   2.719   2.409   4.893 -0.3496  0.3342 -0.3375
 6426TIP3    H240770   2.681   2.466   5.028  0.7661  1.7362 -0.6091
 6427TIP3   OH240771   5.374   1.205  14.598  0.4188 -0.5605 -0.0110
 6427TIP3    H140772   5.331   1.121  14.583 -0.0993 -0.5447  1.2642
 6427TIP3    H240773   5.463   1.182  14.625  0.1682 -0.7281  0.6999
 6428TIP3   OH240774   0.753   5.442  13.678 -0.0798  0.8400 -0.3043
 6428TIP3    H140775   0.714   5.402  13.756 -0.5619 -0.1564 -1.0403
 6428TIP3    H240776   0.840   5.471  13.706  0.2839 -0.7405  0.2515
 6429TIP3   OH240777   0.428   2.102   5.957 -0.5453  0.7947 -0.9333
 6429TIP3    H140778   0.443   2.025   5.901 -0.6387  0.5787 -0.6620
 6429TIP3    H240779   0.359   2.075   6.017  0.9387  0.3258  0.6157
 6430TIP3   OH240780   2.364   1.606   1.372 -0.3291  0.2694  0.1451
 6430TIP3    H140781   2.279   1.587   1.411 -0.5260 -2.6724 -1.5832
 6430TIP3    H240782   2.417   1.639   1.445 -1.6018 -2.1413  2.2422
 6431TIP3   OH240783   6.371   1.130  16.712  0.2627 -0.3822 -0.2261
 6431TIP3    H140784   6.291   1.167  16.750  1.2692  1.2530  0.3531
 6431TIP3    H240785   6.359   1.140  16.618 -1.2648 -2.3850 -0.2690
 6432TIP3   OH240786   3.914   5.672   4.946 -0.3859 -0.1342  0.3446
 6432TIP3    H140787   3.993   5.680   4.893 -0.2991 -0.1316  0.4745
 6432TIP3    H240788   3.946   5.657   5.035 -0.5316 -0.3601  0.3611
 6433TIP3   OH240789   6.366   4.533  14.975 -0.0685 -0.2698  0.0424
 6433TIP3    H140790   6.320   4.448  14.975  2.1101 -1.4922  1.0033
 6433TIP3    H240791   6.445   4.517  14.925  1.9021  0.2877  2.8606
 6434TIP3   OH240792   3.018   0.061  16.193  0.1849 -0.0327  0.0088
 6434TIP3    H140793   2.966   0.002  16.138 -1.5554 -0.5013  2.0890
 6434TIP3    H240794   3.077   0.004  16.241 -0.4351  0.0412  0.8811
 6435TIP3   OH240795   3.382   4.680  14.327  0.0157 -0.0793 -0.0294
 6435TIP3    H140796   3.440   4.684  14.251  1.9084 -1.1633  1.3376
 6435TIP3    H240797   3.385   4.768  14.365 -1.3616  0.6305 -1.4618
 6436TIP3   OH240798   4.094   1.949  16.946 -0.9145 -0.3485  0.2629
 6436TIP3    H140799   4.067   2.019  16.886 -1.6445 -0.9671 -0.1443
 6436TIP3    H240800   4.015   1.931  16.998 -0.1469  0.5205  1.7626
 6437TIP3   OH240801   3.251   6.258   4.651  0.4597  0.0085 -0.0395
 6437TIP3    H140802   3.331   6.242   4.701  1.2218 -1.1744 -1.5913
 6437TIP3    H240803   3.280   6.310   4.576 -0.0826 -1.0931 -1.0252
 6438TIP3   OH240804   3.546   1.979   5.934 -0.1152 -0.1956 -0.0953
 6438TIP3    H140805   3.458   1.990   5.900  0.0787  2.7268  0.2082
 6438TIP3    H240806   3.552   2.041   6.007  1.9621 -0.8000  0.2913
 6439TIP3   OH240807   1.088   2.022  12.462  0.2164  0.2075 -0.0648
 6439TIP3    H140808   1.037   1.971  12.399 -0.0358  0.0929  0.2307
 6439TIP3    H240809   1.178   1.993  12.449  0.0434 -0.4687  0.2495
 6440TIP3   OH240810   3.458   3.365  13.172 -0.2326  0.1096  0.4478
 6440TIP3    H140811   3.385   3.427  13.164 -1.9269 -1.9381 -0.3072
 6440TIP3    H240812   3.457   3.317  13.089  0.5329 -1.4752  1.3371
 6441TIP3   OH240813   2.508   5.059   5.556 -0.6695  0.1433 -0.0659
 6441TIP3    H140814   2.460   5.037   5.476  1.4400  2.5290 -2.0589
 6441TIP3    H240815   2.441   5.093   5.615 -2.2602 -1.6825 -0.7611
 6442TIP3   OH240816   4.822   2.790  10.313 -1.0187  0.2970  0.4589
 6442TIP3    H140817   4.853   2.703  10.290  0.2669  0.4795  1.4663
 6442TIP3    H240818   4.743   2.803  10.259  1.5897  0.4950 -3.4697
 6443TIP3   OH240819   1.350   0.910  12.321 -0.1400  0.5254 -0.0296
 6443TIP3    H140820   1.433   0.945  12.353  0.1124  0.9284 -1.1027
 6443TIP3    H240821   1.374   0.837  12.265 -0.3383  2.1374 -2.3017
 6444TIP3   OH240822   5.177   6.108  13.171  0.2414 -0.2882 -0.5342
 6444TIP3    H140823   5.183   6.053  13.094 -0.3929  1.7817 -2.1027
 6444TIP3    H240824   5.083   6.113  13.190  0.3880 -0.7478  0.3349
 6445TIP3   OH240825   2.998   1.503  12.674  0.4516 -0.4320 -0.0610
 6445TIP3    H140826   3.062   1.497  12.745 -0.1935 -2.3397  0.3911
 6445TIP3    H240827   2.915   1.477  12.714 -0.9509  3.4196 -0.2912
 6446TIP3   OH240828   6.708   3.661   3.562  0.1014 -0.1575  0.3543
 6446TIP3    H140829   6.778   3.597   3.576  1.0978  0.9653  0.5957
 6446TIP3    H240830   6.746   3.726   3.502 -0.5848  0.6980  0.8349
 6447TIP3   OH240831   3.336   4.831   6.468 -0.3750  0.4924 -0.4335
 6447TIP3    H140832   3.408   4.807   6.409 -1.5148 -0.7547 -1.3557
 6447TIP3    H240833   3.379   4.866   6.546  1.1766  2.2832 -2.0380
 6448TIP3   OH240834   1.893   2.600   0.209 -0.3604  0.3518  0.0254
 6448TIP3    H140835   1.813   2.566   0.170 -0.5516  1.5593 -0.6517
 6448TIP3    H240836   1.963   2.548   0.168 -0.7964 -0.8655  0.7947
 6449TIP3   OH240837   4.859   5.569   0.345 -0.0139 -0.9951  0.0223
 6449TIP3    H140838   4.914   5.645   0.325 -0.6522 -0.5778 -0.1554
 6449TIP3    H240839   4.818   5.591   0.428  0.7895 -1.7011  0.6165
 6450TIP3   OH240840   3.361   4.556   1.088  0.1069  1.0584 -0.0725
 6450TIP3    H140841   3.391   4.639   1.124 -0.2260  1.0718  0.1808
 6450TIP3    H240842   3.299   4.581   1.019  0.0433  1.0197 -0.0291
 6451TIP3   OH240843   5.984   2.472  13.004 -0.2946  0.1457 -0.1412
 6451TIP3    H140844   6.068   2.428  12.989 -1.4206 -1.7573 -1.1491
 6451TIP3    H240845   5.941   2.419  13.071 -1.2081  0.3661 -0.5482
 6452TIP3   OH240846   2.760   3.933   6.320  0.7934 -0.1822 -0.4695
 6452TIP3    H140847   2.718   3.969   6.398  0.9730 -1.1209  0.0618
 6452TIP3    H240848   2.852   3.921   6.344  0.5097 -2.0663 -0.2580
 6453TIP3   OH240849   1.209   1.333   6.610  0.0991  0.2572 -0.1753
 6453TIP3    H140850   1.170   1.245   6.611  1.2991 -0.3446 -2.2129
 6453TIP3    H240851   1.303   1.317   6.619  0.3788  1.2747 -1.2007
 6454TIP3   OH240852   3.919   5.061   0.252 -0.4111  0.0641  0.3533
 6454TIP3    H140853   3.957   5.145   0.226 -0.1005 -0.6660 -1.6555
 6454TIP3    H240854   3.990   4.998   0.243 -1.5569 -1.0095 -1.7409
 6455TIP3   OH240855   2.484   2.755  16.463  0.0042 -0.0974 -0.3716
 6455TIP3    H140856   2.577   2.746  16.441  0.2403  0.4255  0.4158
 6455TIP3    H240857   2.483   2.785  16.554 -0.9226  0.4926 -0.5660
 6456TIP3   OH240858   6.073   0.841   6.494 -0.5330 -0.0012 -0.6015
 6456TIP3    H140859   6.138   0.775   6.468 -0.6941 -0.2588 -0.3526
 6456TIP3    H240860   6.084   0.912   6.430  1.9566  1.2404  1.0917
 6457TIP3   OH240861   2.294   0.395   5.956  0.0364  0.3725  0.0312
 6457TIP3    H140862   2.345   0.466   5.917  0.2852  0.5210  0.6131
 6457TIP3    H240863   2.347   0.367   6.031 -0.3706  0.0088  0.1811
 6458TIP3   OH240864   2.371   2.501   4.201 -0.1541 -0.4309  0.5318
 6458TIP3    H140865   2.380   2.433   4.135  2.7133  0.4892 -0.1153
 6458TIP3    H240866   2.459   2.538   4.209 -0.6857  0.2623  4.0170
 6459TIP3   OH240867   2.963   3.188   5.199  0.2064 -0.0667 -0.1140
 6459TIP3    H140868   3.039   3.149   5.242 -1.4232 -0.4634  2.4832
 6459TIP3    H240869   2.996   3.270   5.162  1.5722  0.5638  2.3811
 6460TIP3   OH240870   1.095   2.806  16.461  0.5402 -0.1804 -0.4362
 6460TIP3    H140871   1.135   2.889  16.489  0.3925  0.1267 -1.1138
 6460TIP3    H240872   1.014   2.833  16.416 -1.5974 -0.8829  2.7924
 6461TIP3   OH240873   0.077   0.208   1.182 -0.2750  0.6818 -0.4370
 6461TIP3    H140874   0.133   0.131   1.174 -1.2910 -0.0697 -0.4355
 6461TIP3    H240875   0.028   0.194   1.263 -0.6691  1.1938 -0.5778
 6462TIP3   OH240876   4.713   3.215   5.822 -0.6755  0.4463  0.1673
 6462TIP3    H140877   4.783   3.171   5.773 -2.6910 -1.4511 -1.1486
 6462TIP3    H240878   4.699   3.160   5.899  1.3603  2.5307  2.0919
 6463TIP3   OH240879   6.120   4.752   0.020  0.4775  0.2650  0.4704
 6463TIP3    H140880   6.105   4.713   0.107  0.6669 -0.1942  0.2987
 6463TIP3    H240881   6.108   4.679  -0.041  0.4715  0.5616  0.1199
 6464TIP3   OH240882   1.190   3.640  11.408  0.5855  0.2559 -0.0031
 6464TIP3    H140883   1.223   3.702  11.343  2.4540  0.5803  1.2010
 6464TIP3    H240884   1.117   3.686  11.450  1.2119  1.1847  0.0813
 6465TIP3   OH240885   0.070   0.814  12.749  0.6355 -0.1834 -0.8515
 6465TIP3    H140886   0.083   0.818  12.844  0.2238 -0.6948 -0.7750
 6465TIP3    H240887   0.096   0.901  12.719  3.5672 -0.9424 -0.6276
 6466TIP3   OH240888   0.183   2.546  16.086 -0.1509 -0.0592 -0.1323
 6466TIP3    H140889   0.234   2.511  16.159  0.2994  2.9580  1.0456
 6466TIP3    H240890   0.225   2.629  16.065 -3.6039  1.7464 -0.2147
 6467TIP3   OH240891   0.171   5.541   1.721 -0.3884  0.6731  0.3614
 6467TIP3    H140892   0.110   5.580   1.783  0.0624  0.0638  1.1995
 6467TIP3    H240893   0.185   5.609   1.656  0.2001  1.8454  1.6784
 6468TIP3   OH240894   4.119   4.770   4.195  0.7329  0.6097  0.4672
 6468TIP3    H140895   4.087   4.840   4.251  0.5768  0.6902  0.2776
 6468TIP3    H240896   4.084   4.690   4.235 -0.1893  0.7401 -0.0656
 6469TIP3   OH240897   3.533   1.458   6.096 -0.2124 -0.9208 -0.2110
 6469TIP3    H140898   3.441   1.481   6.093  0.1491  0.6438  0.5460
 6469TIP3    H240899   3.550   1.437   6.188  0.5880  0.5010 -0.0248
 6470TIP3   OH240900   3.407   0.262   6.128  0.2962  0.1304  0.2364
 6470TIP3    H140901   3.321   0.220   6.119  0.0943  0.8520 -1.4460
 6470TIP3    H240902   3.401   0.312   6.209 -0.3278 -1.0763  0.9490
 6471TIP3   OH240903   3.571   5.683  17.096 -0.3017  0.2485 -0.2632
 6471TIP3    H140904   3.576   5.694  17.191  0.9402  2.0945 -0.5234
 6471TIP3    H240905   3.644   5.735  17.062 -0.2662 -1.0292 -2.1854
 6472TIP3   OH240906   0.538   3.465  11.475  0.1977  0.1035 -0.1331
 6472TIP3    H140907   0.600   3.529  11.440 -1.2285  0.3143 -2.3583
 6472TIP3    H240908   0.464   3.467  11.414 -1.3085 -1.2967  1.5806
 6473TIP3   OH240909   6.221   6.302   5.598  0.1943  0.6128  0.3280
 6473TIP3    H140910   6.215   6.232   5.664 -1.9799  1.7965  1.4398
 6473TIP3    H240911   6.199   6.259   5.516 -0.4408 -0.1881  0.9043
 6474TIP3   OH240912   1.147   5.917  15.035 -0.0789  0.3196 -0.3608
 6474TIP3    H140913   1.209   5.990  15.047  0.0443  0.1728 -0.1023
 6474TIP3    H240914   1.136   5.911  14.940 -0.3218  0.8712 -0.3675
 6475TIP3   OH240915   0.843   3.658   1.693 -0.2070 -0.0463  0.1432
 6475TIP3    H140916   0.926   3.628   1.731 -1.4291 -0.6775  2.3772
 6475TIP3    H240917   0.795   3.577   1.675 -0.2070  0.3067 -1.4921
 6476TIP3   OH240918   0.582   3.386   4.074  0.3242  0.4600 -0.6648
 6476TIP3    H140919   0.583   3.435   3.991  1.2037  0.6234 -0.5650
 6476TIP3    H240920   0.652   3.425   4.126  0.0708  0.0584 -0.0161
 6477TIP3   OH240921   6.004   5.631   1.186 -0.2268 -0.7412  0.4399
 6477TIP3    H140922   5.939   5.583   1.135 -0.0653 -0.4205 -0.0634
 6477TIP3    H240923   6.004   5.719   1.149 -0.1469 -0.4901  1.0224
 6478TIP3   OH240924   0.242   4.213  14.195  0.9622  1.0254  0.3045
 6478TIP3    H140925   0.286   4.142  14.242 -0.4894 -0.8777 -1.1269
 6478TIP3    H240926   0.206   4.269  14.264  0.2837 -0.8096  1.4757
 6479TIP3   OH240927   3.718   2.695   2.313  0.0637 -0.6465 -0.0642
 6479TIP3    H140928   3.693   2.699   2.221 -1.5573  1.9248  0.4254
 6479TIP3    H240929   3.769   2.614   2.321 -0.8690 -1.5736 -2.9235
 6480TIP3   OH240930   2.008   2.065   5.568  0.2410 -0.0801  0.0462
 6480TIP3    H140931   1.917   2.063   5.598  0.1144 -2.4014 -0.3639
 6480TIP3    H240932   2.058   2.095   5.644 -0.2127 -4.6689  2.3400
 6481TIP3   OH240933   5.351   1.968   5.641  0.0848  0.2381 -0.4182
 6481TIP3    H140934   5.406   2.024   5.587  0.8655 -0.4506 -0.3458
 6481TIP3    H240935   5.394   1.966   5.726 -2.4374  3.3150  1.0495
 6482TIP3   OH240936   5.347   4.646   5.767 -0.0170 -0.1493  0.2859
 6482TIP3    H140937   5.288   4.717   5.739  0.5725  0.8973  1.6377
 6482TIP3    H240938   5.432   4.670   5.729  0.7715  1.2402  2.7976
 6483TIP3   OH240939   2.334   1.244   2.855  0.5232 -0.1597 -0.0496
 6483TIP3    H140940   2.353   1.334   2.830  0.0816  0.3165  1.2861
 6483TIP3    H240941   2.374   1.191   2.786 -0.0585  1.0806 -1.3615
 6484TIP3   OH240942   4.263   3.784   5.472  0.2691  0.8127  0.3266
 6484TIP3    H140943   4.299   3.758   5.387 -0.0091  0.3115  0.3626
 6484TIP3    H240944   4.315   3.860   5.498  0.5460  0.7871 -0.1570
 6485TIP3   OH240945   5.869   5.505   3.776 -0.5699  0.2422 -0.3041
 6485TIP3    H140946   5.871   5.468   3.864  0.1352 -0.9920 -0.8327
 6485TIP3    H240947   5.961   5.514   3.751 -0.7507  1.5300 -0.5313
 6486TIP3   OH240948   6.088   0.191  12.916  0.4405 -0.1286 -0.6006
 6486TIP3    H140949   6.175   0.180  12.877  0.6443 -0.0216 -0.1721
 6486TIP3    H240950   6.028   0.159  12.849  0.8625 -1.0834 -0.5208
 6487TIP3   OH240951   2.635   2.275  16.960 -0.1239  0.0938  0.1029
 6487TIP3    H140952   2.665   2.204  16.903  0.7455  0.9800 -0.5589
 6487TIP3    H240953   2.691   2.349  16.938 -0.8763  0.9312  0.9428
 6488TIP3   OH240954   3.061   3.195  10.691 -0.4449  0.3245  0.2121
 6488TIP3    H140955   3.009   3.239  10.624 -1.3922 -1.4348 -0.2540
 6488TIP3    H240956   3.076   3.107  10.655  0.9463  0.0828  1.3387
 6489TIP3   OH240957   2.399   4.139  16.160  0.0386 -0.6213  0.0462
 6489TIP3    H140958   2.418   4.121  16.067  1.1896 -0.1371  0.1764
 6489TIP3    H240959   2.426   4.230  16.172  0.3820 -0.8420  0.9828
 6490TIP3   OH240960   2.092   1.464   1.702  0.5376  0.0574 -0.0555
 6490TIP3    H140961   2.011   1.482   1.749  0.4265 -0.5560 -0.0150
 6490TIP3    H240962   2.106   1.543   1.649 -0.5616 -0.1909 -0.7459
 6491TIP3   OH240963   3.714   1.176  13.775  0.5078  0.5299 -0.2696
 6491TIP3    H140964   3.642   1.227  13.736 -0.6556 -1.0899 -0.2730
 6491TIP3    H240965   3.767   1.242  13.819 -0.1834  1.9447 -1.4626
 6492TIP3   OH240966   5.262   5.916  14.824 -0.1492  1.2003  0.6959
 6492TIP3    H140967   5.231   5.998  14.863 -0.1370  0.6607  1.8611
 6492TIP3    H240968   5.249   5.851  14.892 -0.4992  0.1557 -0.3517
 6493TIP3   OH240969   2.042   6.770  14.442 -0.5156  0.1817  1.0611
 6493TIP3    H140970   2.107   6.835  14.417 -1.2167 -0.0167 -1.3352
 6493TIP3    H240971   2.083   6.686  14.420 -1.0288 -0.0134  0.8396
 6494TIP3   OH240972   6.106   5.465  16.211 -0.0480 -0.0157 -0.6627
 6494TIP3    H140973   6.123   5.548  16.168 -0.1175  0.1060 -0.4567
 6494TIP3    H240974   6.021   5.437  16.176 -0.1402  0.1203 -0.5464
 6495TIP3   OH240975   4.491   6.566   5.185 -0.1278  0.0191  0.0057
 6495TIP3    H140976   4.490   6.516   5.267  1.2539 -1.6502 -0.9747
 6495TIP3    H240977   4.401   6.561   5.153 -0.6868  0.6926  1.3903
 6496TIP3   OH240978   5.896   3.609  13.880  0.4498  0.2055 -0.3281
 6496TIP3    H140979   5.907   3.529  13.931 -1.1614  2.1603  3.2967
 6496TIP3    H240980   5.822   3.590  13.822 -0.3748 -0.7052  0.9976
 6497TIP3   OH240981   2.490   5.161   4.443 -0.0621  0.0936 -0.0850
 6497TIP3    H140982   2.499   5.066   4.448 -0.3887  0.0781  0.2731
 6497TIP3    H240983   2.515   5.191   4.531 -1.8916  0.1742  0.4326
 6498TIP3   OH240984   1.780   5.834   1.056 -0.2579 -0.6289  0.3191
 6498TIP3    H140985   1.836   5.858   0.982 -0.9986 -0.5276 -0.2143
 6498TIP3    H240986   1.800   5.742   1.074  1.0377 -0.2237  0.9872
 6499TIP3   OH240987   2.076   6.573  16.618  0.3743 -0.1973  0.0136
 6499TIP3    H140988   2.043   6.484  16.607 -3.2339  0.9575  0.7321
 6499TIP3    H240989   2.081   6.608  16.530  2.8439 -1.4140 -0.3655
 6500TIP3   OH240990   6.707   2.467  11.698  0.1526  0.0350 -0.9653
 6500TIP3    H140991   6.738   2.476  11.608  1.6257  0.3452 -0.4368
 6500TIP3    H240992   6.652   2.544  11.712  1.0252  0.7026 -1.1644
 6501TIP3   OH240993   2.684   3.216  14.573 -0.2167  0.2249  0.9353
 6501TIP3    H140994   2.730   3.132  14.571 -0.1972  0.2395  0.7126
 6501TIP3    H240995   2.691   3.249  14.484 -0.3278  0.4075  0.9936
 6502TIP3   OH240996   5.987   4.536   6.151 -0.5852  0.1811  0.4117
 6502TIP3    H140997   6.067   4.564   6.107 -0.2201 -0.0191  0.9417
 6502TIP3    H240998   5.919   4.541   6.083 -0.2559  0.9874  0.1330
 6503TIP3   OH240999   3.221   3.801  11.794 -0.7206  0.0065  0.0589
 6503TIP3    H141000   3.299   3.801  11.850 -1.2115 -0.4747  0.7445
 6503TIP3    H241001   3.223   3.886  11.751 -0.3300  0.3754  0.7953
 6504TIP3   OH241002   5.019   5.249  15.234 -0.0302 -0.1169  0.1368
 6504TIP3    H141003   4.989   5.340  15.228 -1.7786 -0.7844 -1.5600
 6504TIP3    H241004   4.956   5.208  15.294  0.7386 -0.2355  0.8720
 6505TIP3   OH241005   5.534   5.906  14.815 -0.6137  0.0565  0.2649
 6505TIP3    H141006   5.582   5.981  14.780 -0.9342  0.0986 -0.0797
 6505TIP3    H241007   5.442   5.930  14.806 -0.7061 -0.1598  0.6319
 6506TIP3   OH241008   3.824   1.133  11.547  0.5724 -0.5733 -0.0147
 6506TIP3    H141009   3.836   1.049  11.591 -1.5488 -0.3531  1.0042
 6506TIP3    H241010   3.834   1.198  11.616 -1.2304 -0.1592 -0.1294
 6507TIP3   OH241011   3.748   1.148   2.131  0.0637  0.0681 -0.0186
 6507TIP3    H141012   3.834   1.110   2.147  0.7253  1.4897 -0.1531
 6507TIP3    H241013   3.749   1.173   2.039  0.0490  1.4126  0.3286
 6508TIP3   OH241014   5.043   0.109  11.322  0.1725 -0.5558 -0.1217
 6508TIP3    H141015   5.014   0.055  11.249 -1.7492  1.4724 -0.9356
 6508TIP3    H241016   4.962   0.148  11.356  1.3666  0.8499  1.1835
 6509TIP3   OH241017   3.010   2.172   1.726  0.0263  0.9782 -0.3306
 6509TIP3    H141018   3.081   2.235   1.721 -0.4619  1.6923  1.2228
 6509TIP3    H241019   2.931   2.226   1.728 -0.4461  0.2760  0.0373
 6510TIP3   OH241020   0.787   0.001   1.223 -0.6516 -0.4520  0.6278
 6510TIP3    H141021   0.850  -0.024   1.156  0.7695 -0.6604  2.0059
 6510TIP3    H241022   0.775   0.095   1.211  1.0367 -0.1387  1.2627
 6511TIP3   OH241023   3.700   5.025  11.641 -0.3032  0.2350 -0.2248
 6511TIP3    H141024   3.653   5.020  11.724 -0.6465  0.4832 -0.4020
 6511TIP3    H241025   3.655   5.094  11.592 -0.6875 -0.5345 -0.9725
 6512TIP3   OH241026   2.380   6.431  14.105 -0.2742  0.0787  0.3684
 6512TIP3    H141027   2.394   6.349  14.153  2.0405 -0.1835 -0.6652
 6512TIP3    H241028   2.338   6.405  14.023 -0.9385  0.1129  0.6949
 6513TIP3   OH241029   2.880   0.505  13.750 -0.1526  0.2867 -0.0087
 6513TIP3    H141030   2.956   0.448  13.762 -1.3976 -1.3840  0.1301
 6513TIP3    H241031   2.917   0.593  13.740  1.6216  0.0940  3.8408
 6514TIP3   OH241032   4.719   6.131  12.405  0.2539 -0.1532  0.1164
 6514TIP3    H141033   4.769   6.060  12.364  2.2835  1.0065  0.5060
 6514TIP3    H241034   4.774   6.209  12.392 -1.1616  1.0365  1.1458
 6515TIP3   OH241035   3.663   6.558  11.969 -0.3811 -0.0437 -0.2212
 6515TIP3    H141036   3.614   6.494  12.021 -0.2595  0.5969  0.7119
 6515TIP3    H241037   3.633   6.545  11.879 -1.6049 -0.2641  0.2068
 6516TIP3   OH241038   1.284   1.116   1.366 -0.4381 -0.7061 -0.2557
 6516TIP3    H141039   1.278   1.210   1.384  1.2586 -0.6694  0.2159
 6516TIP3    H241040   1.373   1.104   1.332  0.3108 -2.5353  2.2534
 6517TIP3   OH241041   2.494   6.499   0.194 -0.0317 -0.3673 -0.0726
 6517TIP3    H141042   2.521   6.579   0.149 -0.4187 -0.2763 -0.1495
 6517TIP3    H241043   2.521   6.512   0.285 -0.0337 -0.1772 -0.0992
 6518TIP3   OH241044   1.999   2.222  16.765 -0.1051  0.2227  0.1890
 6518TIP3    H141045   1.915   2.177  16.765  0.3660 -0.6710 -0.3304
 6518TIP3    H241046   2.003   2.266  16.850 -0.6876 -0.5012  0.5978
 6519TIP3   OH241047   3.134   3.711  15.821 -0.1934  0.4806 -0.1468
 6519TIP3    H141048   3.154   3.805  15.814 -1.4788  0.8615  1.1688
 6519TIP3    H241049   3.127   3.681  15.730 -1.1594  1.9519 -0.5656
 6520TIP3   OH241050   4.683   3.602  15.602 -0.3107 -0.5075  0.1043
 6520TIP3    H141051   4.749   3.602  15.533  1.6674  1.4801  1.9213
 6520TIP3    H241052   4.613   3.657  15.568 -0.7999 -2.1280 -1.5897
 6521TIP3   OH241053   6.155   6.443  10.877 -0.5940 -0.0218 -0.1373
 6521TIP3    H141054   6.215   6.415  10.808  1.5720 -0.7508  1.9619
 6521TIP3    H241055   6.127   6.530  10.851  1.0282  0.1425 -1.4173
 6522TIP3   OH241056   5.222   3.014   2.064  0.1538  0.7024  0.6406
 6522TIP3    H141057   5.136   3.033   2.027  0.0696 -0.3271  0.2745
 6522TIP3    H241058   5.275   2.987   1.989  0.5638  0.5757  0.9759
 6523TIP3   OH241059   6.067   5.645  13.442 -0.3447  0.1169  0.3335
 6523TIP3    H141060   6.008   5.660  13.368 -0.0645  0.3712  0.1576
 6523TIP3    H241061   6.154   5.642  13.402 -0.1427  0.7781  0.7220
 6524TIP3   OH241062   0.630   5.638   6.102 -0.0583 -0.2330 -0.1931
 6524TIP3    H141063   0.643   5.707   6.168  0.5586 -0.9719  0.4587
 6524TIP3    H241064   0.707   5.644   6.046  0.1249 -0.5792  0.0249
 6525TIP3   OH241065   6.815   0.480   2.401  0.2124  0.5005  0.1855
 6525TIP3    H141066   6.769   0.538   2.461 -0.4732  1.5756 -1.3432
 6525TIP3    H241067   6.841   0.537   2.328  0.2783 -0.9247 -0.9304
 6526TIP3   OH241068   4.178   1.144  13.965 -0.2675 -0.0592 -0.2820
 6526TIP3    H141069   4.186   1.052  13.989 -1.8533 -0.1090  0.1129
 6526TIP3    H241070   4.268   1.176  13.963  0.2966 -1.6063 -0.4118
 6527TIP3   OH241071   2.459   0.518  16.696  0.6331  0.4026 -0.7088
 6527TIP3    H141072   2.437   0.552  16.783  2.6586 -2.0358  0.8584
 6527TIP3    H241073   2.555   0.524  16.692  0.7081 -1.3000 -1.9913
 6528TIP3   OH241074   0.878   2.292   2.192  0.1627 -0.4338  0.7725
 6528TIP3    H141075   0.946   2.360   2.191 -0.2199 -0.0524 -0.5670
 6528TIP3    H241076   0.854   2.282   2.100  0.1476 -2.3207  0.9736
 6529TIP3   OH241077   5.930   2.273  13.665 -0.7663 -0.0384  0.2658
 6529TIP3    H141078   5.875   2.230  13.600 -0.4832  0.0227 -0.0113
 6529TIP3    H241079   5.869   2.304  13.732 -0.9091 -1.5818  0.8726
 6530TIP3   OH241080   3.922   0.033  14.863  0.1799 -0.1304  0.2791
 6530TIP3    H141081   3.940   0.088  14.787 -3.8629  0.2574 -0.5299
 6530TIP3    H241082   3.954  -0.054  14.838  0.4406  0.3697 -1.1924
 6531TIP3   OH241083   1.320   6.539   4.420  0.1072 -0.6357 -0.1021
 6531TIP3    H141084   1.374   6.615   4.440 -2.6306  0.4308  3.9407
 6531TIP3    H241085   1.363   6.467   4.465  0.0242 -0.4807  0.2273
 6532TIP3   OH241086   2.686   5.619   3.692  0.5351  0.2098 -0.2452
 6532TIP3    H141087   2.701   5.593   3.783  1.0208 -3.1076 -1.1812
 6532TIP3    H241088   2.590   5.621   3.684  0.4633 -1.8744 -0.2301
 6533TIP3   OH241089   3.073   2.519  14.945  0.1778  0.2077 -0.4399
 6533TIP3    H141090   3.040   2.451  15.003 -0.8990 -1.0062 -2.4248
 6533TIP3    H241091   3.032   2.599  14.975  0.3216 -0.2460  1.0070
 6534TIP3   OH241092   2.151   5.629  12.809 -0.4546  0.4750 -0.3440
 6534TIP3    H141093   2.121   5.588  12.890  2.3100  2.1515  1.5949
 6534TIP3    H241094   2.200   5.560  12.764 -0.7830 -0.0526  0.1012
 6535TIP3   OH241095   6.695   1.002  13.063 -0.2090 -0.1803  0.3553
 6535TIP3    H141096   6.632   0.982  12.993 -0.0661  0.6986 -0.0259
 6535TIP3    H241097   6.759   0.931  13.058 -0.4968 -0.4132 -0.0564
 6536TIP3   OH241098   5.275   3.323   5.674  0.4552  0.8283 -0.5216
 6536TIP3    H141099   5.227   3.309   5.756 -0.2351 -2.3944 -1.3933
 6536TIP3    H241100   5.314   3.238   5.655  1.2096  1.7296 -3.1843
 6537TIP3   OH241101   1.967   3.798   5.893  0.3511  0.4458 -0.4101
 6537TIP3    H141102   1.884   3.750   5.896  0.9211 -0.4695  2.4807
 6537TIP3    H241103   2.022   3.747   5.834  0.7669 -2.2928  2.1999
 6538TIP3   OH241104   0.862   5.232   5.087 -0.1968  0.2765  0.2061
 6538TIP3    H141105   0.850   5.181   5.167  0.7523 -0.6889 -0.2505
 6538TIP3    H241106   0.948   5.205   5.055  0.1236  1.8372 -0.2877
 6539TIP3   OH241107   5.347   5.566  12.723  0.0023 -0.3044  0.2611
 6539TIP3    H141108   5.377   5.617  12.798 -1.1949 -0.2164  0.6935
 6539TIP3    H241109   5.307   5.630  12.664 -1.6478 -0.7476  0.8779
 6540TIP3   OH241110   6.515   5.103   3.201 -0.0118  0.6403  0.3806
 6540TIP3    H141111   6.518   5.107   3.106  0.1881 -0.7974  0.3117
 6540TIP3    H241112   6.607   5.091   3.227 -0.1240  0.5257  0.7194
 6541TIP3   OH241113   4.508   0.476   2.773  0.0097 -0.2053 -0.7138
 6541TIP3    H141114   4.552   0.432   2.701  0.8878 -1.4090  0.5352
 6541TIP3    H241115   4.428   0.512   2.734  0.9803  0.0787 -2.5070
 6542TIP3   OH241116   1.260   0.904   5.328 -0.2854  0.8651  0.2758
 6542TIP3    H141117   1.248   0.925   5.421 -0.8137 -0.7618  0.5942
 6542TIP3    H241118   1.176   0.925   5.288 -0.1886  1.1824  0.2380
 6543TIP3   OH241119   2.763   0.747   1.338 -0.0174  0.3292  0.4633
 6543TIP3    H141120   2.772   0.831   1.294  0.0201  1.3907  2.4363
 6543TIP3    H241121   2.842   0.739   1.391  0.7627 -1.7194 -0.9268
 6544TIP3   OH241122   0.806   3.537  16.381 -0.4153 -0.0739  0.0837
 6544TIP3    H141123   0.749   3.597  16.333 -0.9201 -1.0979 -0.6013
 6544TIP3    H241124   0.747   3.468  16.412  0.3464 -0.7912 -0.0722
 6545TIP3   OH241125   2.271   1.929  17.018 -0.0803  0.2519 -0.3471
 6545TIP3    H141126   2.259   1.984  16.941  1.7351 -0.0695 -0.8828
 6545TIP3    H241127   2.356   1.956  17.054 -1.5126  1.3697  2.3661
 6546TIP3   OH241128   2.448   1.288  17.223  0.0640 -0.1759 -0.5567
 6546TIP3    H141129   2.429   1.308  17.315 -0.8340 -2.0118 -0.3118
 6546TIP3    H241130   2.374   1.234  17.195  1.2650 -1.2304 -1.7899
 6547TIP3   OH241131   6.749   5.973   0.990 -0.2131  0.4458 -0.4079
 6547TIP3    H141132   6.741   5.941   0.900  1.0887  0.5209 -0.5713
 6547TIP3    H241133   6.754   5.894   1.043 -0.5924  0.3993 -0.4396
 6548TIP3   OH241134   3.279   0.192   2.815 -0.2544  0.6692 -0.5200
 6548TIP3    H141135   3.251   0.276   2.851  1.3756  1.0760 -0.1642
 6548TIP3    H241136   3.367   0.208   2.782  0.6247 -1.2450  0.7933
 6549TIP3   OH241137   2.291   1.586   6.257 -0.0761 -0.1871 -0.1411
 6549TIP3    H141138   2.216   1.527   6.270 -0.2061  0.0732  0.3162
 6549TIP3    H241139   2.329   1.595   6.344  1.1221 -1.1450 -0.5423
 6550TIP3   OH241140   1.963   0.488   2.580  0.2757 -0.0336 -0.5918
 6550TIP3    H141141   1.967   0.548   2.506 -0.1854  1.7490  0.8097
 6550TIP3    H241142   1.872   0.492   2.610  1.1461  1.6946  2.0117
 6551TIP3   OH241143   4.800   1.771  12.561  0.3975 -0.3000  0.4574
 6551TIP3    H141144   4.818   1.694  12.507  0.9090 -0.0939  0.3354
 6551TIP3    H241145   4.774   1.735  12.646 -1.2730 -0.6559 -0.1711
 6552TIP3   OH241146   5.137   6.191   0.596 -0.5636  0.3478 -0.1492
 6552TIP3    H141147   5.082   6.237   0.660 -0.9273 -0.7174  0.3089
 6552TIP3    H241148   5.075   6.143   0.541 -0.1049 -0.7834  0.3056
 6553TIP3   OH241149   1.144   0.112   3.015 -0.3901 -0.2648  0.3769
 6553TIP3    H141150   1.100   0.028   3.003  0.4760 -0.6267 -0.3444
 6553TIP3    H241151   1.134   0.132   3.108  0.6214 -1.8625  0.8478
 6554TIP3   OH241152   3.507   0.666   4.353 -0.1998  0.1963  0.5783
 6554TIP3    H141153   3.451   0.720   4.408 -0.2511  1.7566 -0.9573
 6554TIP3    H241154   3.465   0.667   4.267  0.9169 -0.5818  0.0028
 6555TIP3   OH241155   2.755   6.412   5.702 -0.2909  0.0968 -0.1479
 6555TIP3    H141156   2.822   6.355   5.665 -0.2265  0.2147 -0.2124
 6555TIP3    H241157   2.746   6.484   5.639  1.6389  1.6659  1.2774
 6556TIP3   OH241158   5.214   3.174   1.229 -0.4595  0.3709 -0.1312
 6556TIP3    H141159   5.307   3.186   1.207 -0.4911 -0.9636 -1.0552
 6556TIP3    H241160   5.177   3.262   1.227  0.7057  0.8648 -0.1442
 6557TIP3   OH241161   1.090   6.200  16.166  0.2204 -0.5687  0.2146
 6557TIP3    H141162   1.159   6.133  16.169  0.3033 -0.4492  1.0280
 6557TIP3    H241163   1.109   6.257  16.240  0.4140  0.6342 -0.7369
 6558TIP3   OH241164   3.650   6.028  12.053  0.2085 -0.7441 -0.0032
 6558TIP3    H141165   3.738   5.991  12.066  0.1429 -0.3779  1.6239
 6558TIP3    H241166   3.645   6.047  11.959  1.8451 -0.8422 -0.1237
 6559TIP3   OH241167   4.196   2.321  10.743  0.3883 -0.1545  0.1373
 6559TIP3    H141168   4.233   2.234  10.758  0.3046 -0.3500 -0.7573
 6559TIP3    H241169   4.142   2.311  10.664  0.8612  0.8490 -0.3225
 6560TIP3   OH241170   0.555   0.839  16.088 -0.5103  0.0336 -0.1175
 6560TIP3    H141171   0.506   0.870  16.165 -1.3057 -0.9445 -0.2196
 6560TIP3    H241172   0.632   0.895  16.085 -0.5994  0.2517  1.2548
 6561TIP3   OH241173   2.864   2.146  14.628 -0.3888 -0.3353  0.3043
 6561TIP3    H141174   2.943   2.160  14.681 -1.1815 -1.4749  1.8142
 6561TIP3    H241175   2.857   2.051  14.621  0.6831 -0.2103 -3.3676
 6562TIP3   OH241176   4.634   4.478  12.649 -0.4070 -0.4681  0.1799
 6562TIP3    H141177   4.607   4.570  12.644 -1.6300 -0.8926 -2.1636
 6562TIP3    H241178   4.600   4.440  12.568 -0.1455 -3.0563  1.2592
 6563TIP3   OH241179   0.504   6.059   3.066  0.2953 -0.3551 -0.2381
 6563TIP3    H141180   0.480   5.983   3.013  1.8237 -0.4950 -0.7333
 6563TIP3    H241181   0.566   6.026   3.131  0.2065  0.2815  0.1825
 6564TIP3   OH241182   5.860   2.828  12.081  0.3311 -0.1708  0.7051
 6564TIP3    H141183   5.817   2.912  12.063  0.1701 -0.6386 -1.2181
 6564TIP3    H241184   5.933   2.824  12.018  0.3210 -1.4819  0.7549
 6565TIP3   OH241185   2.258   3.680   5.292 -0.0671  0.3689  0.3942
 6565TIP3    H141186   2.297   3.763   5.265  1.6885 -0.3141  0.7572
 6565TIP3    H241187   2.289   3.667   5.382 -1.4375 -0.0307  0.8248
 6566TIP3   OH241188   2.325   4.633  16.902 -0.0050 -0.3073 -0.2763
 6566TIP3    H141189   2.336   4.700  16.968  0.0725 -0.0662 -0.5322
 6566TIP3    H241190   2.248   4.583  16.931  0.6403 -0.8444  0.5265
 6567TIP3   OH241191   3.541   1.727  15.259 -0.2714 -0.2357 -0.1082
 6567TIP3    H141192   3.476   1.673  15.214  1.3180 -0.8215 -1.7183
 6567TIP3    H241193   3.580   1.781  15.191  0.6538  0.4270  0.9232
 6568TIP3   OH241194   2.377   2.270   3.990 -0.3851  0.2102  0.0707
 6568TIP3    H141195   2.397   2.256   3.898  0.1935  2.7305 -0.2276
 6568TIP3    H241196   2.284   2.289   3.992 -0.4205  0.0408  0.0248
 6569TIP3   OH241197   2.529   1.650   0.871  0.4131  0.2666  0.1792
 6569TIP3    H141198   2.534   1.623   0.779 -0.9548 -2.0084  0.7246
 6569TIP3    H241199   2.435   1.653   0.890  0.7048 -0.3750  1.7949
 6570TIP3   OH241200   2.489   0.886  15.047  0.2406 -0.0063  0.0764
 6570TIP3    H141201   2.481   0.980  15.064 -1.7226 -0.1474  0.0817
 6570TIP3    H241202   2.452   0.845  15.125  0.4114 -0.7630 -0.2409
 6571TIP3   OH241203   3.144   5.598   3.757 -0.1497 -0.7871  0.5275
 6571TIP3    H141204   3.218   5.538   3.768  0.3760 -1.2664 -4.6629
 6571TIP3    H241205   3.183   5.679   3.725 -1.5263  0.2091  1.3246
 6572TIP3   OH241206   0.644   3.543  13.523  0.3098  0.7573  0.3768
 6572TIP3    H141207   0.588   3.617  13.547  0.4387  0.8934  0.2579
 6572TIP3    H241208   0.704   3.534  13.598 -1.2345 -0.7448  1.4770
 6573TIP3   OH241209   5.798   0.367   0.329 -0.1700  0.2936  0.2336
 6573TIP3    H141210   5.792   0.404   0.241 -2.3767  0.3208  0.3568
 6573TIP3    H241211   5.867   0.301   0.323 -0.2643  0.3244 -1.4993
 6574TIP3   OH241212   4.734   2.504  15.657 -0.0132  0.2488  0.2432
 6574TIP3    H141213   4.796   2.541  15.594  0.1507  0.3017  0.4355
 6574TIP3    H241214   4.682   2.442  15.606  0.0122  0.4117  0.0195
 6575TIP3   OH241215   5.669   6.310   5.743  0.1731  0.0688  0.5651
 6575TIP3    H141216   5.755   6.268   5.739  1.5279  2.6278  1.5775
 6575TIP3    H241217   5.688   6.403   5.749 -2.6458  0.6022  2.4058
 6576TIP3   OH241218   0.085   3.170  11.621  0.5730 -0.5906 -0.0570
 6576TIP3    H141219   0.173   3.167  11.658  1.2603 -0.0217 -1.6127
 6576TIP3    H241220   0.027   3.174  11.697  1.9664  0.8070  0.9507
 6577TIP3   OH241221   5.279   1.953   0.348 -0.3545  0.2287 -0.0510
 6577TIP3    H141222   5.244   1.965   0.436  1.6217 -2.0352  1.1216
 6577TIP3    H241223   5.374   1.963   0.358  0.0663 -1.6837 -1.5768
 6578TIP3   OH241224   4.655   1.569   2.561 -0.4051  0.6298  0.0779
 6578TIP3    H141225   4.621   1.534   2.643  1.7338 -0.5575  0.4918
 6578TIP3    H241226   4.722   1.633   2.588  0.3730  0.1680 -0.7251
 6579TIP3   OH241227   4.277   2.559   5.654  0.0345 -0.0342 -0.2133
 6579TIP3    H141228   4.333   2.632   5.681 -0.0631 -0.0030 -0.0927
 6579TIP3    H241229   4.208   2.599   5.601 -1.2396  0.2632  1.6111
 6580TIP3   OH241230   4.128   3.501  17.253 -0.0623 -0.6455 -0.4223
 6580TIP3    H141231   4.185   3.424  17.246  0.2359 -0.3366 -1.4941
 6580TIP3    H241232   4.148   3.552  17.174  0.1272  0.7901  0.5421
 6581TIP3   OH241233   4.422   3.520  10.941  0.2577 -1.1658 -0.6333
 6581TIP3    H141234   4.477   3.597  10.923 -0.2914 -0.0251  2.2985
 6581TIP3    H241235   4.484   3.447  10.941  1.1829 -0.3989 -1.0559
 6582TIP3   OH241236   3.964   2.274   0.184  0.2384  0.5008  0.1441
 6582TIP3    H141237   4.033   2.281   0.250  0.2354  1.4342  0.0510
 6582TIP3    H241238   3.892   2.229   0.229  0.7627 -0.1543  0.3436
 6583TIP3   OH241239   5.165   2.449  11.198 -0.4053  0.1655  0.0504
 6583TIP3    H141240   5.092   2.410  11.246 -0.6345  0.5322  0.0027
 6583TIP3    H241241   5.222   2.484  11.267  0.3924 -1.2879  0.1416
 6584TIP3   OH241242   6.438   5.715  14.256  0.4686  0.3550 -0.7177
 6584TIP3    H141243   6.422   5.810  14.252 -1.8294  0.0446  0.3662
 6584TIP3    H241244   6.352   5.677  14.269  1.4344 -1.8911 -0.6955
 6585TIP3   OH241245   5.293   4.482   4.757  0.1406 -0.0883 -0.2852
 6585TIP3    H141246   5.201   4.460   4.744  0.5860 -1.3280 -1.3924
 6585TIP3    H241247   5.315   4.541   4.684  0.3438 -0.1269 -0.2564
 6586TIP3   OH241248   6.761   3.998   2.831 -0.1313  0.7382  0.3710
 6586TIP3    H141249   6.709   4.075   2.813 -0.4044  0.7247  1.0808
 6586TIP3    H241250   6.697   3.928   2.845  0.1051  0.4561  0.0606
 6587TIP3   OH241251   0.998   1.931  13.022  0.1055 -0.2153  0.0013
 6587TIP3    H141252   0.914   1.972  13.043 -0.2226 -0.1703 -1.3451
 6587TIP3    H241253   1.009   1.946  12.929  1.3975 -0.6319  0.0845
 6588TIP3   OH241254   3.084   3.804   5.527  0.8173 -0.8135 -0.2379
 6588TIP3    H141255   3.173   3.835   5.541  1.1061 -0.7876 -1.9848
 6588TIP3    H241256   3.035   3.882   5.502  0.3158 -0.8427  0.6457
 6589TIP3   OH241257   4.955   3.005   5.980  0.3344  0.6441 -0.1947
 6589TIP3    H141258   4.990   2.916   5.976  2.8814  1.4712  1.9980
 6589TIP3    H241259   4.948   3.024   6.074 -0.2032  2.7188 -0.6327
 6590TIP3   OH241260   4.506   1.626   6.479 -0.1147 -0.4764 -1.0833
 6590TIP3    H141261   4.541   1.688   6.543 -1.3497  0.0377 -0.9136
 6590TIP3    H241262   4.425   1.594   6.518  0.9286 -2.8516 -0.7612
 6591TIP3   OH241263   6.176   3.825   6.035 -0.2063  0.0507  0.1765
 6591TIP3    H141264   6.194   3.863   6.121 -0.5303 -1.3789  0.8770
 6591TIP3    H241265   6.085   3.849   6.017  0.2515  1.4624 -0.3648
 6592TIP3   OH241266   4.246   0.089   3.844 -0.2198 -0.2286  0.5180
 6592TIP3    H141267   4.229   0.158   3.908  2.4744  0.0183  1.0380
 6592TIP3    H241268   4.237   0.007   3.893  2.2215 -0.0291  1.3610
 6593TIP3   OH241269   4.616   4.127  14.956  0.1593  0.2939 -0.1327
 6593TIP3    H141270   4.633   4.079  15.037  3.0068  1.5150  0.0441
 6593TIP3    H241271   4.674   4.087  14.892 -0.4806  0.7776 -1.0236
 6594TIP3   OH241272   2.581   1.567  14.871 -0.2074  0.4453  0.0672
 6594TIP3    H141273   2.532   1.648  14.881  0.2022  0.9643 -1.8157
 6594TIP3    H241274   2.672   1.591  14.888 -0.0852  0.3932 -0.4959
 6595TIP3   OH241275   0.563   5.029  16.780  0.0640 -0.1018 -0.2915
 6595TIP3    H141276   0.630   4.996  16.719  0.3864 -0.6346  0.3429
 6595TIP3    H241277   0.604   5.022  16.866 -0.7402 -0.2505  0.0818
 6596TIP3   OH241278   4.496   6.101  11.305  0.2307  0.2847 -0.3687
 6596TIP3    H141279   4.538   6.143  11.230  0.1455 -0.1611 -0.6733
 6596TIP3    H241280   4.539   6.138  11.382  3.5283 -2.5789 -0.7195
 6597TIP3   OH241281   1.686   6.200   3.649 -0.6436 -0.1149  0.5397
 6597TIP3    H141282   1.716   6.182   3.560 -2.7199 -0.6742 -0.0727
 6597TIP3    H241283   1.767   6.206   3.700  0.5474 -0.5820 -1.2209
 6598TIP3   OH241284   6.593   0.826   1.370 -0.0594 -0.2110  0.6846
 6598TIP3    H141285   6.507   0.860   1.394 -0.6951 -1.4805  0.2359
 6598TIP3    H241286   6.655   0.894   1.399 -1.2442  0.9941  0.4387
 6599TIP3   OH241287   3.031   6.252  12.578  0.0096 -0.1563 -0.4763
 6599TIP3    H141288   2.941   6.259  12.545  0.1761 -0.3555 -0.9729
 6599TIP3    H241289   3.083   6.307  12.520 -0.4358  3.5243  2.4252
 6600TIP3   OH241290   1.251   2.586   0.476  0.2034 -0.7239  0.1872
 6600TIP3    H141291   1.276   2.657   0.535 -1.4350 -1.5439  1.9076
 6600TIP3    H241292   1.220   2.517   0.534 -0.8787 -1.7719 -1.6105
 6601TIP3   OH241293   5.358   5.933  15.587 -0.3823 -0.3073  0.1911
 6601TIP3    H141294   5.285   5.911  15.644 -0.4481  0.0021  0.2232
 6601TIP3    H241295   5.341   6.022  15.558 -0.2411 -0.3883 -0.1457
 6602TIP3   OH241296   0.201   3.740  13.980 -0.3817 -0.2787 -0.1343
 6602TIP3    H141297   0.284   3.766  13.940 -0.1178  0.1744  0.7013
 6602TIP3    H241298   0.205   3.775  14.069 -1.9866  0.8173 -0.4654
 6603TIP3   OH241299   3.154   5.680  11.310 -0.2503 -0.3950  0.2015
 6603TIP3    H141300   3.132   5.731  11.232 -1.0391  2.2856  2.0676
 6603TIP3    H241301   3.072   5.674  11.359  1.0875  1.8833  2.9180
 6604TIP3   OH241302   6.338   4.216  15.557 -0.4141 -0.2581  0.4081
 6604TIP3    H141303   6.388   4.297  15.566  0.9792 -0.8958 -1.1835
 6604TIP3    H241304   6.378   4.157  15.621 -0.0916 -0.2947  0.1793
 6605TIP3   OH241305   2.209   4.047  15.209 -0.6830  0.1047  0.7343
 6605TIP3    H141306   2.278   4.101  15.169 -1.1223 -0.3628 -0.7084
 6605TIP3    H241307   2.208   3.968  15.155 -1.4588 -0.4490  1.5642
 6606TIP3   OH241308   3.216   0.612  12.830 -0.0960  0.6625 -0.2492
 6606TIP3    H141309   3.239   0.703  12.809  1.0062  0.4567  0.0632
 6606TIP3    H241310   3.175   0.579  12.750  2.6234  0.3861 -1.5829
 6607TIP3   OH241311   6.237   4.161   4.127 -0.2874 -0.1129 -0.6932
 6607TIP3    H141312   6.242   4.216   4.205  0.6882  1.1026 -1.5789
 6607TIP3    H241313   6.240   4.072   4.160  0.4056  0.3846  0.6431
 6608TIP3   OH241314   2.286   3.869   3.728  0.2404  0.6131  0.1725
 6608TIP3    H141315   2.345   3.944   3.730 -0.6967  1.3306  1.0933
 6608TIP3    H241316   2.200   3.905   3.750 -0.3367 -0.6129 -0.0324
 6609TIP3   OH241317   2.125   6.352  11.881 -0.1914 -0.4168 -0.3348
 6609TIP3    H141318   2.157   6.313  11.962 -0.4269  0.3568  0.1404
 6609TIP3    H241319   2.062   6.418  11.910  0.0639  0.1848 -1.1254
 6610TIP3   OH241320   3.672   1.574   1.696 -0.7832 -0.2527  0.2071
 6610TIP3    H141321   3.660   1.666   1.674 -0.8990 -0.3568 -0.1631
 6610TIP3    H241322   3.599   1.554   1.755 -0.2803  0.1142  0.9691
 6611TIP3   OH241323   0.304   5.390  16.081 -0.1673  0.3157 -0.3828
 6611TIP3    H141324   0.254   5.458  16.034  0.1997  0.6791 -0.2484
 6611TIP3    H241325   0.367   5.439  16.133 -1.6477 -0.0023  1.7780
 6612TIP3   OH241326   3.319   1.210   1.288 -0.0852  0.3051 -0.7778
 6612TIP3    H141327   3.402   1.238   1.325  0.5790 -1.2348 -1.0796
 6612TIP3    H241328   3.264   1.191   1.365  0.5743 -0.8096 -0.5847
 6613TIP3   OH241329   5.928   5.701  12.824  0.2701  0.6551 -0.4396
 6613TIP3    H141330   5.946   5.674  12.734  1.9088  1.6162 -0.4331
 6613TIP3    H241331   5.886   5.786  12.815  0.0792  0.5726 -0.3137
 6614TIP3   OH241332   4.149   1.941   3.377  0.2290 -0.2103 -0.9469
 6614TIP3    H141333   4.211   1.974   3.442  0.0165 -1.2622 -0.1931
 6614TIP3    H241334   4.178   1.980   3.294  1.2739  0.1301 -0.4313
 6615TIP3   OH241335   6.739   0.445  13.968  0.2150 -0.2711 -0.2254
 6615TIP3    H141336   6.793   0.389  14.024 -0.8727 -1.2631 -0.1685
 6615TIP3    H241337   6.798   0.517  13.944  0.8019  0.0257  1.9363
 6616TIP3   OH241338   0.098   2.002  15.688  0.4934  0.2876 -0.2321
 6616TIP3    H141339   0.096   2.031  15.597 -0.4406  2.5845  0.4747
 6616TIP3    H241340   0.008   1.979  15.708  0.5719  0.4305  0.2961
 6617TIP3   OH241341   2.585   3.623   4.709 -0.3006 -0.2743 -0.2138
 6617TIP3    H141342   2.603   3.543   4.660  0.9050 -1.3278  1.8777
 6617TIP3    H241343   2.491   3.619   4.729 -0.3775 -0.8355 -0.6882
 6618TIP3   OH241344   6.608   6.819  15.275 -0.5281 -0.6552 -0.1233
 6618TIP3    H141345   6.650   6.734  15.272  0.8873 -0.0587  1.7666
 6618TIP3    H241346   6.652   6.871  15.208 -2.1553 -1.7062 -2.0541
 6619TIP3   OH241347   5.228   2.083  13.064 -0.1450  0.2512 -0.8049
 6619TIP3    H141348   5.190   2.027  12.997 -0.1843 -2.2059  1.2184
 6619TIP3    H241349   5.305   2.122  13.022 -0.4587 -0.8409 -2.4271
 6620TIP3   OH241350   0.626   4.482   4.289  0.3562  0.0004  0.0653
 6620TIP3    H141351   0.573   4.418   4.336  0.5238  0.1788  0.5011
 6620TIP3    H241352   0.574   4.562   4.291  0.2371 -0.0685 -0.3030
 6621TIP3   OH241353   0.124   1.914   4.758 -0.0295 -0.3233  0.5704
 6621TIP3    H141354   0.186   1.932   4.828  1.2015 -0.1494 -0.5376
 6621TIP3    H241355   0.159   1.836   4.714 -0.3307  0.0544 -0.3634
 6622TIP3   OH241356   3.134   2.607  14.507  0.1353 -0.3384 -0.1241
 6622TIP3    H141357   3.121   2.583  14.415 -0.6641  0.3256 -0.1933
 6622TIP3    H241358   3.228   2.618  14.516  0.1758  0.0873 -1.0055
 6623TIP3   OH241359   4.511   0.427   5.674 -0.3282  0.3965 -0.6255
 6623TIP3    H141360   4.450   0.359   5.645 -0.1652  0.0057 -0.0606
 6623TIP3    H241361   4.550   0.392   5.754  1.4522  0.1615 -1.5787
 6624TIP3   OH241362   1.649   3.882  16.565  0.4026 -0.2723  0.2554
 6624TIP3    H141363   1.722   3.938  16.537 -0.9855  1.4857  0.0209
 6624TIP3    H241364   1.679   3.844  16.648  0.9740  1.6761  0.9750
 6625TIP3   OH241365   3.365   0.195  14.488 -0.1939  0.0423  0.2814
 6625TIP3    H141366   3.363   0.288  14.463 -1.7409  0.2916  1.2563
 6625TIP3    H241367   3.457   0.172  14.488  0.1472  1.3312 -0.9179
 6626TIP3   OH241368   5.790   0.922  11.161 -0.2772 -0.7420  0.2876
 6626TIP3    H141369   5.829   0.902  11.076  0.6126 -0.2338  0.5710
 6626TIP3    H241370   5.823   1.009  11.182 -1.7276 -0.2118  0.4468
 6627TIP3   OH241371   5.943   3.272  11.687  0.0376  0.2509 -0.2506
 6627TIP3    H141372   5.914   3.331  11.757 -1.2755 -1.0807  0.3518
 6627TIP3    H241373   6.005   3.213  11.730 -0.5708 -0.4014 -0.2553
 6628TIP3   OH241374   1.163   4.354  14.946  0.4588 -0.1810 -0.0025
 6628TIP3    H141375   1.080   4.360  14.994  1.1856 -0.5331  1.3330
 6628TIP3    H241376   1.206   4.438  14.963  1.4770 -0.9688  1.4293
 6629TIP3   OH241377   4.364   4.506  13.809 -0.0424  0.5725  0.2558
 6629TIP3    H141378   4.284   4.462  13.781  0.8775 -0.7809 -0.3222
 6629TIP3    H241379   4.412   4.439  13.858  1.6064  0.7561 -1.0459
 6630TIP3   OH241380   3.615   1.764  12.928 -0.5102  0.2497 -0.5468
 6630TIP3    H141381   3.671   1.750  12.852  2.7604 -1.0572  1.9881
 6630TIP3    H241382   3.550   1.694  12.924 -0.6434  0.4366 -2.2716
 6631TIP3   OH241383   0.092   1.465   2.882 -0.0995  0.2000  0.4443
 6631TIP3    H141384   0.093   1.502   2.971 -2.3745  1.4375 -0.0022
 6631TIP3    H241385   0.019   1.403   2.884  0.2348 -0.2135 -0.3751
 6632TIP3   OH241386   2.616   0.576   1.934  0.2102 -0.8583 -0.3662
 6632TIP3    H141387   2.680   0.507   1.955 -0.1277 -0.7531  1.0559
 6632TIP3    H241388   2.647   0.612   1.851  0.7962 -2.2459 -0.7602
 6633TIP3   OH241389   3.066   5.437   4.267 -0.3072  0.5726 -0.3324
 6633TIP3    H141390   3.138   5.374   4.260 -0.3760  0.2563  1.5125
 6633TIP3    H241391   3.108   5.522   4.271  0.0204  0.3338  1.5382
 6634TIP3   OH241392   4.627   0.605   0.571 -0.9118  0.3881  0.2315
 6634TIP3    H141393   4.604   0.696   0.553 -2.7250 -0.3918 -1.5513
 6634TIP3    H241394   4.685   0.580   0.498 -0.0885  0.2272  0.9317
 6635TIP3   OH241395   3.544   1.069   4.322 -0.0907  0.1153 -0.5012
 6635TIP3    H141396   3.530   1.027   4.407 -1.6300 -0.5544 -1.0631
 6635TIP3    H241397   3.584   1.002   4.267  0.5116  0.4144 -0.4286
 6636TIP3   OH241398   4.114   1.052   6.162 -0.0770  0.4823  0.5390
 6636TIP3    H141399   4.191   0.996   6.159 -0.3051  0.1977 -0.0022
 6636TIP3    H241400   4.146   1.139   6.137  0.4665  0.8128  2.3278
 6637TIP3   OH241401   0.608   0.303  11.640 -0.0081 -0.2069  0.2237
 6637TIP3    H141402   0.609   0.368  11.570  0.1426  0.2103  0.6045
 6637TIP3    H241403   0.698   0.269  11.643 -0.4885 -1.6287 -1.0607
 6638TIP3   OH241404   1.495   4.395  16.451  0.0536  0.2044  0.0368
 6638TIP3    H141405   1.584   4.360  16.457 -0.2171 -0.3090  1.3856
 6638TIP3    H241406   1.490   4.459  16.522 -0.3591  0.9360 -0.6458
 6639TIP3   OH241407   4.266   3.125   2.357  0.3932  0.0974 -0.0719
 6639TIP3    H141408   4.188   3.082   2.325  0.3043  1.0271 -1.1412
 6639TIP3    H241409   4.336   3.060   2.348  0.0305 -0.2269 -0.5322
 6640TIP3   OH241410   0.707   5.233  15.114 -0.3638  0.2158  0.1401
 6640TIP3    H141411   0.767   5.244  15.188 -0.8791  0.6029  0.5097
 6640TIP3    H241412   0.625   5.203  15.154 -0.3987 -0.3713 -0.3659
 6641TIP3   OH241413   2.454   4.336  10.763 -0.1299 -0.0254 -0.4758
 6641TIP3    H141414   2.540   4.377  10.748  0.7562 -1.8963 -0.5953
 6641TIP3    H241415   2.391   4.401  10.733  1.0844  3.0718  3.2408
 6642TIP3   OH241416   6.657   3.662   1.273  0.3248  0.2418 -0.1427
 6642TIP3    H141417   6.692   3.675   1.361 -1.7363  0.1573  0.7271
 6642TIP3    H241418   6.700   3.582   1.242  0.7695  0.0468  0.9520
 6643TIP3   OH241419   3.267   3.427  17.041 -0.4059 -0.4390 -0.0829
 6643TIP3    H141420   3.351   3.441  16.998 -0.5306  2.8283  0.5754
 6643TIP3    H241421   3.287   3.367  17.113  1.2784 -0.0656 -0.2125
 6644TIP3   OH241422   3.786   3.499   5.130  0.1647  0.6279  0.0711
 6644TIP3    H141423   3.821   3.560   5.195 -2.7301  1.8190  0.6070
 6644TIP3    H241424   3.801   3.542   5.046 -0.1593  1.2039  0.3044
 6645TIP3   OH241425   3.680   1.210   1.196  0.1309  0.3001  0.1816
 6645TIP3    H141426   3.687   1.264   1.275 -1.9563  1.9207 -0.7020
 6645TIP3    H241427   3.630   1.264   1.135 -0.8332 -2.1398 -1.2190
 6646TIP3   OH241428   1.605   6.133  13.272  0.0636  0.8233  0.2745
 6646TIP3    H141429   1.597   6.226  13.295  2.5159  0.6634  1.8623
 6646TIP3    H241430   1.532   6.091  13.317  0.1032  1.6956  1.1611
 6647TIP3   OH241431   0.277   6.156  14.032 -0.3428 -0.0323 -0.0625
 6647TIP3    H141432   0.263   6.245  14.065 -1.2714  0.4904 -1.7876
 6647TIP3    H241433   0.372   6.148  14.023 -0.1937  0.4035  1.1147
 6648TIP3   OH241434   5.115   6.430  16.604 -0.2629 -0.3258 -0.2162
 6648TIP3    H141435   5.154   6.433  16.516  3.6076  1.3624  1.4681
 6648TIP3    H241436   5.073   6.343  16.608  0.4476 -0.8726 -3.3096
 6649TIP3   OH241437   5.157   2.743   4.429  0.7313 -0.2406 -0.1047
 6649TIP3    H141438   5.144   2.800   4.353 -0.0037  0.8722  0.8508
 6649TIP3    H241439   5.252   2.731   4.434  0.8327  0.2496 -0.7825
 6650TIP3   OH241440   2.227   2.205  16.504 -0.1344  0.6053  0.1310
 6650TIP3    H141441   2.211   2.129  16.448 -0.9186 -0.0801  1.2641
 6650TIP3    H241442   2.270   2.268  16.447 -0.4062 -0.2961 -1.0927
 6651TIP3   OH241443   1.933   6.405  16.820 -0.1293  0.5900  0.3766
 6651TIP3    H141444   1.851   6.419  16.867  0.7261  1.2390  1.7108
 6651TIP3    H241445   1.985   6.483  16.839  0.8140  0.1637 -0.4269
 6652TIP3   OH241446   4.170   5.201  11.897  0.4075 -0.5632  0.1043
 6652TIP3    H141447   4.262   5.216  11.874  0.1264  0.0846 -0.6046
 6652TIP3    H241448   4.121   5.248  11.830 -0.4340 -0.4866  0.7720
 6653TIP3   OH241449   2.534   0.114  13.973  0.2561  0.9224 -0.0748
 6653TIP3    H141450   2.522   0.123  13.878 -0.4229 -1.2298 -0.2044
 6653TIP3    H241451   2.531   0.020  13.989 -0.8508  1.3171  2.2362
 6654TIP3   OH241452   6.395   4.796   2.446  0.1504 -0.1458  0.3136
 6654TIP3    H141453   6.482   4.821   2.417  0.0865 -0.6541 -0.3151
 6654TIP3    H241454   6.408   4.719   2.501 -0.0477 -1.1989 -1.0843
 6655TIP3   OH241455   3.096   0.948  16.454  0.2989 -0.2094 -0.4046
 6655TIP3    H141456   3.068   0.933  16.544 -0.7427  0.8334 -0.5366
 6655TIP3    H241457   3.080   1.042  16.439  0.7982 -0.2911 -1.5562
 6656TIP3   OH241458   3.355   3.702   0.199  0.2908 -0.0838 -0.1052
 6656TIP3    H141459   3.435   3.657   0.173 -0.5748  0.2641 -3.7309
 6656TIP3    H241460   3.284   3.648   0.164 -0.9094  1.4959 -0.1957
 6657TIP3   OH241461   6.311   6.819  13.868 -0.2332 -0.1812 -0.2210
 6657TIP3    H141462   6.257   6.754  13.912 -1.2548  0.7661 -0.0679
 6657TIP3    H241463   6.316   6.788  13.777  0.3594 -1.1519  0.1308
 6658TIP3   OH241464   1.284   0.407  11.635  0.0463  0.2599 -0.2923
 6658TIP3    H141465   1.352   0.422  11.701 -0.8813  2.7018  0.1762
 6658TIP3    H241466   1.230   0.486  11.639 -1.9351 -0.9902 -1.7158
 6659TIP3   OH241467   6.601   2.603  15.143 -0.4506 -0.4348  0.7131
 6659TIP3    H141468   6.533   2.646  15.091  0.3247  0.5991  0.5340
 6659TIP3    H241469   6.632   2.531  15.089 -1.1375 -0.6786  0.6399
 6660TIP3   OH241470   2.562   3.345   1.628  0.1417 -0.5240  0.5706
 6660TIP3    H141471   2.501   3.354   1.701 -0.2108 -1.4332  0.3933
 6660TIP3    H241472   2.624   3.279   1.657 -0.2374 -1.1846 -0.1027
 6661TIP3   OH241473   3.798   5.862   5.960  0.4106 -0.1137 -0.7039
 6661TIP3    H141474   3.757   5.776   5.947  0.2963 -0.5143  2.1815
 6661TIP3    H241475   3.765   5.914   5.887 -0.8531 -2.0177 -1.5554
 6662TIP3   OH241476   5.636   4.754   2.863 -0.0027  0.2503 -0.4811
 6662TIP3    H141477   5.605   4.725   2.778 -0.8359 -0.7040  0.1502
 6662TIP3    H241478   5.715   4.702   2.879  0.1749  0.4553 -0.6736
 6663TIP3   OH241479   5.105   0.333   3.942  0.5327  0.2905 -0.0866
 6663TIP3    H141480   5.153   0.336   3.859  0.6585 -2.4391 -0.1496
 6663TIP3    H241481   5.016   0.359   3.920  0.5062 -0.6676 -1.1312
 6664TIP3   OH241482   1.253   3.115   2.086  0.3446  0.1050 -0.1089
 6664TIP3    H141483   1.162   3.124   2.060  0.1193 -1.1663  0.1640
 6664TIP3    H241484   1.273   3.194   2.135 -0.5165  0.5285 -0.4445
 6665TIP3   OH241485   2.877   3.040  15.187 -0.0650  0.2386 -0.2976
 6665TIP3    H141486   2.879   3.020  15.281  0.6438 -4.4722 -1.1885
 6665TIP3    H241487   2.957   3.091  15.172  0.6524 -0.3340  1.4221
 6666TIP3   OH241488   0.769   4.355   2.669  0.6032 -0.0840 -0.5378
 6666TIP3    H141489   0.800   4.440   2.701 -4.3131  1.4335  0.6280
 6666TIP3    H241490   0.726   4.375   2.586 -0.7206 -1.3906 -0.1800
 6667TIP3   OH241491   5.922   3.961   4.175  0.2954 -0.0394  0.1355
 6667TIP3    H141492   5.996   3.916   4.215  0.5401  0.5863  0.3973
 6667TIP3    H241493   5.943   4.054   4.185 -0.1529  0.1303 -0.4884
 6668TIP3   OH241494   0.507   4.373  12.616  0.0529  0.8111  0.1560
 6668TIP3    H141495   0.592   4.415  12.636 -0.2173  1.0247  0.8642
 6668TIP3    H241496   0.456   4.443  12.575  0.6368  0.3502 -1.3946
 6669TIP3   OH241497   3.538   0.353  12.582  0.6177 -0.3363  0.2521
 6669TIP3    H141498   3.477   0.370  12.510  0.1182  0.6705  0.9023
 6669TIP3    H241499   3.488   0.371  12.661  1.6487  0.1754  0.8058
 6670TIP3   OH241500   4.393   5.819  11.532  0.9856  0.6787 -0.8416
 6670TIP3    H141501   4.381   5.735  11.577 -1.1819  1.3594 -0.0718
 6670TIP3    H241502   4.352   5.806  11.447  2.3939  0.3613 -1.4890
 6671TIP3   OH241503   2.777   2.079   5.929  0.0597 -0.8573 -0.4279
 6671TIP3    H141504   2.872   2.091   5.925 -0.3930  2.8113 -1.5638
 6671TIP3    H241505   2.752   2.108   6.016 -0.0274 -1.9438 -0.0829
 6672TIP3   OH241506   3.293   2.050   3.657 -0.3479  0.4829  0.1201
 6672TIP3    H141507   3.278   2.022   3.567  0.0788  1.2487 -0.1937
 6672TIP3    H241508   3.214   2.025   3.704  0.2945 -1.8728  0.0018
 6673TIP3   OH241509   1.030   5.267  12.151  0.8785  0.1670 -0.9472
 6673TIP3    H141510   1.097   5.275  12.219 -0.0183  2.4637 -0.2733
 6673TIP3    H241511   1.078   5.270  12.069  1.6388  1.5623 -0.4695
 6674TIP3   OH241512   5.418   3.399  12.276  0.2105  0.2225  0.6819
 6674TIP3    H141513   5.443   3.357  12.359  0.5630  0.8062  0.8733
 6674TIP3    H241514   5.328   3.371  12.262  0.6460 -1.0890  0.4938
 6675TIP3   OH241515   2.737   5.301   5.643 -0.8378 -0.1960  0.3311
 6675TIP3    H141516   2.706   5.281   5.555  0.8950  0.5135 -0.4785
 6675TIP3    H241517   2.786   5.383   5.632 -2.2112  0.9184  2.3139
 6676TIP3   OH241518   3.192   6.379   5.267 -0.1149  0.3800  0.1756
 6676TIP3    H141519   3.105   6.413   5.247 -0.2180  0.4877  0.8110
 6676TIP3    H241520   3.188   6.352   5.358  0.0911 -0.9498 -0.1866
 6677TIP3   OH241521   0.782   0.404  13.772  0.2710  0.5259 -0.1783
 6677TIP3    H141522   0.773   0.342  13.845  0.8661 -0.0449 -0.5824
 6677TIP3    H241523   0.768   0.350  13.694 -0.0138  1.0634 -0.4994
 6678TIP3   OH241524   1.078   4.581   0.063 -0.0976  0.2839  0.0281
 6678TIP3    H141525   1.156   4.613   0.109 -0.0271 -0.8019  0.6701
 6678TIP3    H241526   1.060   4.495   0.102 -0.9548  0.0345 -0.8942
 6679TIP3   OH241527   5.670   3.144  13.224 -0.7547  0.2895  0.6594
 6679TIP3    H141528   5.638   3.070  13.275 -1.9709  0.6216  0.4055
 6679TIP3    H241529   5.590   3.184  13.188  0.1101 -0.0663 -1.6722
 6680TIP3   OH241530   5.033   5.489  11.145 -0.2874  0.1660 -0.2372
 6680TIP3    H141531   5.075   5.530  11.070  1.7828  0.1232  0.8600
 6680TIP3    H241532   5.080   5.407  11.157 -0.8123  0.0221  0.9086
 6681TIP3   OH241533   1.312   3.429  15.100 -0.6401 -0.3650  0.4667
 6681TIP3    H141534   1.401   3.460  15.118  0.1433 -0.1578 -3.2667
 6681TIP3    H241535   1.266   3.506  15.068 -1.0776 -1.2396 -1.0755
 6682TIP3   OH241536   1.645   5.449   1.528 -0.5511 -0.7193 -0.1916
 6682TIP3    H141537   1.612   5.380   1.471  0.1470 -2.0814  1.0142
 6682TIP3    H241538   1.575   5.513   1.531 -1.7824 -2.0348 -0.2552
 6683TIP3   OH241539   5.438   5.565  13.551  0.2731 -0.1015  0.3607
 6683TIP3    H141540   5.518   5.616  13.536  0.9436 -1.1736  0.2137
 6683TIP3    H241541   5.367   5.626  13.534  1.0450  0.1432 -2.0916
 6684TIP3   OH241542   4.213   5.518  17.165  0.5000 -0.0848  0.5664
 6684TIP3    H141543   4.208   5.509  17.069  1.7225  0.0607  0.4739
 6684TIP3    H241544   4.262   5.441  17.193  1.4214  0.6063  0.9080
 6685TIP3   OH241545   0.932   0.903   5.376  0.8607  0.3838 -0.1526
 6685TIP3    H141546   0.916   0.987   5.333  0.3800  0.2993 -0.1433
 6685TIP3    H241547   0.963   0.845   5.306 -1.9540 -0.3527 -0.8279
 6686TIP3   OH241548   0.159   6.670   3.691 -0.4216  0.2637  0.5707
 6686TIP3    H141549   0.134   6.724   3.616 -0.1627 -1.8189 -1.0487
 6686TIP3    H241550   0.193   6.733   3.755  1.5885  1.8760 -1.9532
 6687TIP3   OH241551   3.182   1.651  13.413  0.0017  0.4249  0.1377
 6687TIP3    H141552   3.107   1.698  13.450 -1.5472 -0.5275 -1.6741
 6687TIP3    H241553   3.179   1.564  13.453 -0.3887  0.1073 -0.5635
 6688TIP3   OH241554   5.970   5.495  11.263  0.1034  0.2165  0.0583
 6688TIP3    H141555   6.001   5.464  11.178  0.9820 -0.2420  0.5343
 6688TIP3    H241556   6.044   5.544  11.299  0.0600 -0.3555  0.9423
 6689TIP3   OH241557   5.065   3.512  13.209 -0.6784 -0.3614  0.0160
 6689TIP3    H141558   5.093   3.578  13.273 -0.0562  0.1052 -0.7422
 6689TIP3    H241559   5.066   3.429  13.258 -0.0877 -0.0246  0.5771
 6690TIP3   OH241560   4.005   2.836   4.594  0.2618  0.7897  0.1492
 6690TIP3    H141561   3.933   2.842   4.532  0.1041  0.2726  0.2764
 6690TIP3    H241562   3.972   2.780   4.665  0.9585  0.1140 -0.0459
 6691TIP3   OH241563   3.093   1.316  12.291 -0.2098 -1.0582 -0.5159
 6691TIP3    H141564   3.183   1.340  12.272 -0.9875  0.7583 -2.0372
 6691TIP3    H241565   3.062   1.382  12.352 -1.5008  0.3015 -2.5606
 6692TIP3   OH241566   5.421   3.590  12.812  0.1392  0.0019 -0.0828
 6692TIP3    H141567   5.379   3.553  12.734  0.8724 -0.2909 -0.3359
 6692TIP3    H241568   5.502   3.541  12.822  0.3751  0.4973  0.4721
 6693TIP3   OH241569   2.647   1.235   5.797  0.6153  0.0021 -0.1000
 6693TIP3    H141570   2.611   1.323   5.790 -0.4183 -0.2131  2.0665
 6693TIP3    H241571   2.710   1.240   5.869  2.3608 -0.4826 -1.5479
 6694TIP3   OH241572   1.925   6.415  13.959  0.1481 -0.1589  0.0115
 6694TIP3    H141573   1.849   6.456  14.000 -0.6354 -2.1825  0.6205
 6694TIP3    H241574   1.987   6.401  14.031  0.5839  0.3296 -0.2645
 6695TIP3   OH241575   3.707   6.380  11.085  0.5802 -0.1422 -0.2030
 6695TIP3    H141576   3.611   6.380  11.087  0.5895  0.9734  1.4918
 6695TIP3    H241577   3.731   6.466  11.119  2.1946 -1.3866  1.9292
 6696TIP3   OH241578   5.469   3.633   2.291  0.2026 -0.4318  0.3366
 6696TIP3    H141579   5.498   3.607   2.204 -1.1135 -0.0099 -0.2395
 6696TIP3    H241580   5.414   3.711   2.276 -0.2926 -0.5410  1.5026
 6697TIP3   OH241581   2.514   4.693   0.635 -0.2722 -0.1820 -0.1048
 6697TIP3    H141582   2.463   4.611   0.640  2.3451 -1.9303 -1.0178
 6697TIP3    H241583   2.557   4.699   0.721  1.0054 -0.7741 -0.6960
 6698TIP3   OH241584   2.082   5.009   3.715 -0.0347  0.1224  0.1716
 6698TIP3    H141585   2.103   4.927   3.671 -0.6694  0.7231 -1.2877
 6698TIP3    H241586   2.166   5.040   3.749  0.7048  0.2553 -1.7173
 6699TIP3   OH241587   5.002   3.152  10.796  0.3127  0.5450  0.1948
 6699TIP3    H141588   5.003   3.247  10.806 -0.0559  0.7320 -1.4687
 6699TIP3    H241589   5.088   3.124  10.830 -0.2334  1.2739  2.2702
 6700TIP3   OH241590   1.764   5.030   1.556 -0.2329 -0.7176 -0.0342
 6700TIP3    H141591   1.778   5.026   1.651 -0.4184  0.1421  0.0366
 6700TIP3    H241592   1.826   4.967   1.519  0.2328 -0.6441  0.6201
 6701TIP3   OH241593   2.929   1.325   1.112  0.3106 -0.2774  0.2706
 6701TIP3    H141594   2.921   1.244   1.061 -0.6335 -1.4272  2.1869
 6701TIP3    H241595   2.863   1.383   1.074  0.4422 -0.6992 -0.6134
 6702TIP3   OH241596   5.950   0.104  11.266  0.5640 -0.4734 -0.0524
 6702TIP3    H141597   5.942   0.132  11.357 -0.3085  1.6602 -0.7645
 6702TIP3    H241598   6.044   0.105  11.249  0.6952 -0.3627  0.6496
 6703TIP3   OH241599   0.107   6.635   0.064  0.0323 -0.3388 -0.1777
 6703TIP3    H141600   0.132   6.724   0.089 -2.5046  1.1139 -2.5474
 6703TIP3    H241601   0.179   6.605   0.008 -0.0134  0.9911 -0.9675
 6704TIP3   OH241602   4.238   6.574   2.606 -0.1263 -0.7767 -0.0158
 6704TIP3    H141603   4.172   6.629   2.564  0.3077  0.6366  1.1089
 6704TIP3    H241604   4.189   6.524   2.672 -0.1082  0.2451  0.7958
 6705TIP3   OH241605   2.949   0.699   0.488 -0.1402  0.4109 -0.1082
 6705TIP3    H141606   2.995   0.621   0.457 -2.5087 -0.1492 -2.4269
 6705TIP3    H241607   2.869   0.666   0.530 -0.7096  1.5143 -0.2775
 6706TIP3   OH241608   2.889   4.834  10.553 -0.0254 -0.7030 -0.1114
 6706TIP3    H141609   2.955   4.902  10.539  0.2201 -0.9510 -0.1565
 6706TIP3    H241610   2.928   4.774  10.616 -0.2093 -0.8452 -0.1313
 6707TIP3   OH241611   4.503   0.981   3.149  0.1977 -0.6315 -0.1250
 6707TIP3    H141612   4.454   0.943   3.221  0.1755  0.5665  0.5037
 6707TIP3    H241613   4.594   0.979   3.178  0.0545  1.0306  0.4951
 6708TIP3   OH241614   6.309   4.335   6.102 -0.0432  0.1263  0.0946
 6708TIP3    H141615   6.291   4.268   6.169  2.2789 -0.6479  0.0103
 6708TIP3    H241616   6.381   4.386   6.139 -0.5042  1.3789 -0.7019
 6709TIP3   OH241617   1.447   1.952  13.697 -0.0428  0.2689  0.2616
 6709TIP3    H141618   1.415   2.037  13.666 -0.1152  0.7207  1.5593
 6709TIP3    H241619   1.368   1.900  13.710  0.0273 -0.1724 -1.0030
 6710TIP3   OH241620   6.338   4.442   3.908  0.6155 -0.3747  0.1692
 6710TIP3    H141621   6.310   4.427   3.818 -0.1302  0.2426  0.2911
 6710TIP3    H241622   6.264   4.411   3.961  1.0387 -0.7060  0.5736
 6711TIP3   OH241623   0.926   5.865   0.725  0.3975  0.1929 -0.0569
 6711TIP3    H141624   0.918   5.960   0.713 -0.7918  0.4316  2.3655
 6711TIP3    H241625   0.841   5.830   0.701  1.6815 -0.6666 -3.7881
 6712TIP3   OH241626   6.787   0.428  15.085 -0.3293 -0.0985 -0.5110
 6712TIP3    H141627   6.873   0.470  15.091 -0.7853  0.9772 -1.3127
 6712TIP3    H241628   6.750   0.461  15.003 -1.8709  0.1557  0.2693
 6713TIP3   OH241629   5.887   5.481   1.434  0.0155 -0.3684 -0.1474
 6713TIP3    H141630   5.962   5.504   1.379 -0.2430 -0.6110 -0.6038
 6713TIP3    H241631   5.831   5.559   1.433  0.1943 -0.2373  0.0824
 6714TIP3   OH241632   4.915   6.031   4.199  0.5400  0.5340 -0.4145
 6714TIP3    H141633   4.939   5.942   4.226  0.2101  0.6701  0.3426
 6714TIP3    H241634   4.984   6.057   4.138  0.6234 -0.2527 -0.6643
 6715TIP3   OH241635   0.261   3.008   4.136  0.6137 -0.2628 -0.0989
 6715TIP3    H141636   0.285   3.038   4.048  0.5446  1.5598  0.4786
 6715TIP3    H241637   0.202   2.934   4.121  0.6877 -0.0418 -1.5833
 6716TIP3   OH241638   5.454   2.344   3.753 -0.2207  0.1337 -0.7459
 6716TIP3    H141639   5.365   2.356   3.720 -0.6601 -1.0562 -0.0381
 6716TIP3    H241640   5.457   2.252   3.780  1.3703  0.0459 -1.2005
 6717TIP3   OH241641   3.021   2.787  12.787  0.1799  0.2584  0.2340
 6717TIP3    H141642   2.937   2.748  12.809  0.0590 -0.0242 -0.6942
 6717TIP3    H241643   3.033   2.856  12.853 -1.3948  1.1698 -0.3767
 6718TIP3   OH241644   4.060   3.741   4.824 -0.2741 -0.1642  0.2827
 6718TIP3    H141645   4.111   3.791   4.888  0.0333 -1.1659  0.8287
 6718TIP3    H241646   3.972   3.739   4.861 -0.3972  0.3926  0.0194
 6719TIP3   OH241647   1.504   4.975   5.645 -0.2824  0.1033 -0.1156
 6719TIP3    H141648   1.411   4.996   5.649  0.1662  2.1101  0.2763
 6719TIP3    H241649   1.507   4.883   5.619 -2.3928 -0.2824  0.9237
 6720TIP3   OH241650   1.101   5.646   5.399 -0.3393 -0.3604 -0.0871
 6720TIP3    H141651   1.039   5.576   5.420  0.2061 -2.4076 -4.6901
 6720TIP3    H241652   1.187   5.609   5.420 -0.1565 -0.5126 -1.0953
 6721TIP3   OH241653   1.306   2.761   3.288 -0.6377 -0.0787 -0.7314
 6721TIP3    H141654   1.289   2.752   3.382 -1.2425  1.9769 -0.6282
 6721TIP3    H241655   1.291   2.854   3.269  0.6837 -0.2115 -2.6245
 6722TIP3   OH241656   3.589   2.777   1.365  0.7158  0.1359 -0.3552
 6722TIP3    H141657   3.636   2.729   1.434 -0.3423  1.6473  1.4814
 6722TIP3    H241658   3.551   2.708   1.310  2.8472 -1.0953 -0.3435
 6723TIP3   OH241659   1.240   0.780   4.090 -0.2267  0.3596 -0.0762
 6723TIP3    H141660   1.185   0.732   4.027 -0.0923 -0.4089  0.3922
 6723TIP3    H241661   1.214   0.871   4.079 -1.3187  0.0481 -0.1495
 6724TIP3   OH241662   0.630   5.978  16.359 -0.8489 -0.2666  0.5742
 6724TIP3    H141663   0.658   6.035  16.288 -0.3903 -0.7867  0.3357
 6724TIP3    H241664   0.642   5.890  16.326 -0.1279 -0.5241  1.4749
 6725TIP3   OH241665   0.057   3.183  15.890 -0.6207 -0.1496 -0.3556
 6725TIP3    H141666  -0.024   3.140  15.864  0.4909 -1.9206 -1.0532
 6725TIP3    H241667   0.125   3.116  15.875  1.4170  2.3830 -3.0911
 6726TIP3   OH241668   1.020   2.214  11.945 -0.0832  0.3243  0.2978
 6726TIP3    H141669   1.066   2.131  11.941 -1.3706 -0.3924  0.1484
 6726TIP3    H241670   1.003   2.237  11.853 -3.5704 -1.4379  0.4403
 6727TIP3   OH241671   2.267   4.575  14.618  0.2185  0.0939  0.0250
 6727TIP3    H141672   2.220   4.651  14.584  0.3522  0.2398  0.1671
 6727TIP3    H241673   2.211   4.500  14.595 -0.1874  0.2843  0.3743
 6728TIP3   OH241674   4.387   3.740   5.237  0.0357  0.4935 -0.3580
 6728TIP3    H141675   4.448   3.728   5.164 -0.4583  1.9624 -1.0310
 6728TIP3    H241676   4.384   3.834   5.251 -2.8582  0.5418 -1.0232
 6729TIP3   OH241677   1.179   2.920   4.729 -0.6032  0.1437 -0.2023
 6729TIP3    H141678   1.122   2.976   4.676 -0.5776  1.1115  0.7654
 6729TIP3    H241679   1.229   2.981   4.782 -1.4018 -0.8205  1.7152
 6730TIP3   OH241680   5.196   1.230   1.710  0.2205 -1.2771  0.0900
 6730TIP3    H141681   5.111   1.236   1.666  0.3279 -0.2590  0.0005
 6730TIP3    H241682   5.247   1.303   1.674  0.9347 -1.5252  0.5766
 6731TIP3   OH241683   1.470   4.504   5.294  0.5372  0.0341  0.3326
 6731TIP3    H141684   1.543   4.446   5.314  0.1188 -0.3784  0.6543
 6731TIP3    H241685   1.501   4.591   5.320  2.2740  0.4326 -2.7897
 6732TIP3   OH241686   6.474   2.293   5.277  0.2799  0.3082  0.3568
 6732TIP3    H141687   6.502   2.203   5.256  0.8605  0.5455  0.0970
 6732TIP3    H241688   6.444   2.329   5.193 -0.8911  0.0319  0.6478
 6733TIP3   OH241689   1.574   3.095  14.768 -0.3186 -0.2954 -0.6258
 6733TIP3    H141690   1.613   3.182  14.759  0.7822 -0.6827  0.2696
 6733TIP3    H241691   1.568   3.081  14.863  0.1009 -1.4455 -0.7579
 6734TIP3   OH241692   1.806   0.505   4.252  0.3446 -0.1021  0.4757
 6734TIP3    H141693   1.792   0.413   4.277  0.4757 -0.4136 -0.5781
 6734TIP3    H241694   1.795   0.506   4.157 -0.3215  1.1116  0.5633
 6735TIP3   OH241695   2.750   5.191  10.639  0.3966 -0.6380 -0.0754
 6735TIP3    H141696   2.753   5.177  10.544  0.0795  0.4138 -0.2474
 6735TIP3    H241697   2.802   5.120  10.675  1.8757 -0.1318 -1.1396
 6736TIP3   OH241698   2.874   6.331  12.916 -0.2900  0.0025 -0.1725
 6736TIP3    H141699   2.863   6.255  12.857 -1.1816 -0.8627  1.0800
 6736TIP3    H241700   2.894   6.404  12.857 -0.5817 -0.9671 -1.5085
 6737TIP3   OH241701   5.679   0.290   6.653  0.1528  0.2094 -0.1490
 6737TIP3    H141702   5.696   0.379   6.683 -1.8693  0.6673 -0.2619
 6737TIP3    H241703   5.615   0.300   6.583 -0.4083 -1.3634  0.1143
 6738TIP3   OH241704   6.366   3.132  17.199  0.6746  0.1266 -0.4806
 6738TIP3    H141705   6.306   3.184  17.251  1.7624  1.9781 -1.0377
 6738TIP3    H241706   6.342   3.151  17.108 -0.0284 -1.6700 -0.6841
 6739TIP3   OH241707   6.446   0.790   5.260 -0.2608 -1.1021  0.7730
 6739TIP3    H141708   6.483   0.820   5.343  2.0684  1.3372 -1.0642
 6739TIP3    H241709   6.394   0.864   5.229  0.2765 -1.3202 -0.7117
 6740TIP3   OH241710   6.295   1.428   1.353 -0.2570 -0.3669  0.1712
 6740TIP3    H141711   6.379   1.462   1.322 -0.2034  0.1039  0.8042
 6740TIP3    H241712   6.261   1.376   1.280  0.0138  0.4459 -0.5483
 6741TIP3   OH241713   5.537   1.539  15.825 -0.1513 -0.0395  0.2953
 6741TIP3    H141714   5.456   1.556  15.778  0.4910  2.4195 -0.0134
 6741TIP3    H241715   5.606   1.546  15.758  0.5436  0.8119  1.0816
 6742TIP3   OH241716   5.821   3.805   3.630 -0.1141  0.6018 -0.5024
 6742TIP3    H141717   5.881   3.876   3.609 -0.2040  0.2504 -2.0514
 6742TIP3    H241718   5.878   3.732   3.656  0.0762  0.6192 -0.8686
 6743TIP3   OH241719   3.510   6.234   1.773  0.9178  0.4130 -0.0821
 6743TIP3    H141720   3.578   6.239   1.839  0.1674 -0.1929  0.7484
 6743TIP3    H241721   3.443   6.296   1.801 -0.0445 -0.8629  0.4933
 6744TIP3   OH241722   4.952   2.407  12.713 -0.1955  0.1480 -0.0048
 6744TIP3    H141723   4.974   2.325  12.668 -0.6505 -0.2295  0.4533
 6744TIP3    H241724   4.863   2.427  12.684 -0.1851  0.3360  0.0900
 6745TIP3   OH241725   3.245   4.696  15.744  0.2999 -0.0942 -0.4440
 6745TIP3    H141726   3.201   4.736  15.819 -0.6514 -0.2742 -0.8951
 6745TIP3    H241727   3.247   4.766  15.678 -0.3752 -0.4380 -0.8402
 6746TIP3   OH241728   6.606   3.648  14.429  0.5662 -0.2951 -0.5387
 6746TIP3    H141729   6.564   3.730  14.404 -0.9255 -1.4993 -2.1313
 6746TIP3    H241730   6.545   3.607  14.489  1.4193 -0.1345  0.4436
 6747TIP3   OH241731   4.980   3.933   2.637 -0.8859  0.4528  0.2421
 6747TIP3    H141732   4.943   3.989   2.568 -0.1619  2.9625  1.8311
 6747TIP3    H241733   5.009   3.994   2.704 -0.1638 -1.8772  2.1048
 6748TIP3   OH241734   3.477   1.750  16.248  0.0080  0.0679  0.1934
 6748TIP3    H141735   3.409   1.803  16.206 -1.3458 -2.1222 -0.5405
 6748TIP3    H241736   3.558   1.775  16.205 -0.8519  0.3989 -1.2692
 6749TIP3   OH241737   5.745   2.457  12.841  0.1734 -0.3679 -0.0870
 6749TIP3    H141738   5.833   2.479  12.873  1.1514 -2.6505 -1.1126
 6749TIP3    H241739   5.749   2.475  12.747 -0.2062 -1.2646 -0.2723
 6750TIP3   OH241740   2.578   1.225  10.930  0.0909 -0.5343 -0.6180
 6750TIP3    H141741   2.585   1.164  11.004  1.3467  0.0280 -0.2526
 6750TIP3    H241742   2.606   1.174  10.854 -0.3903 -0.8717 -0.5690
 6751TIP3   OH241743   4.869   3.856  11.409  0.1074  1.0882  0.4374
 6751TIP3    H141744   4.815   3.861  11.330  0.7661  0.7185 -0.0432
 6751TIP3    H241745   4.889   3.947  11.431  1.5070  1.1320 -0.9278
 6752TIP3   OH241746   1.606   5.551  12.036 -0.6675 -0.3787 -0.4533
 6752TIP3    H141747   1.675   5.506  12.084  0.1320  1.7084  0.4106
 6752TIP3    H241748   1.644   5.569  11.950  0.2656  1.5947  0.3271
 6753TIP3   OH241749   5.608   0.320   2.644 -0.2768 -0.1247  0.0652
 6753TIP3    H141750   5.556   0.401   2.648 -0.5794 -0.1755 -2.2265
 6753TIP3    H241751   5.698   0.348   2.660 -0.2927  0.7704 -1.3630
 6754TIP3   OH241752   6.420   2.328   4.745  0.1414 -0.6839  0.3995
 6754TIP3    H141753   6.472   2.321   4.825  1.5092  1.0577 -0.3111
 6754TIP3    H241754   6.402   2.422   4.735  0.0413 -0.8587 -1.3557
 6755TIP3   OH241755   4.956   2.482   5.784  0.3367  0.7797 -0.0517
 6755TIP3    H141756   4.989   2.431   5.710 -0.5542 -0.2235  0.2349
 6755TIP3    H241757   5.001   2.446   5.860 -1.7010 -0.8862  0.3978
 6756TIP3   OH241758   6.534   3.103  14.388  0.6882  0.1515 -0.4641
 6756TIP3    H141759   6.577   3.093  14.303  0.9433 -0.9447 -0.2115
 6756TIP3    H241760   6.588   3.166  14.435  0.5831  0.7116 -1.0817
 6757TIP3   OH241761   2.421   6.560  16.979 -0.5382 -0.1359  0.0113
 6757TIP3    H141762   2.384   6.593  16.897  0.8337  0.4182 -0.4034
 6757TIP3    H241763   2.373   6.479  16.995 -1.8720  0.5226 -0.5388
 6758TIP3   OH241764   5.827   1.621   3.009 -0.4564 -0.2951 -0.2828
 6758TIP3    H141765   5.821   1.715   2.997 -0.3774 -0.1146  0.9554
 6758TIP3    H241766   5.740   1.588   2.987  0.5258 -0.4041 -4.3466
 6759TIP3   OH241767   6.424   4.510   2.024  0.0216 -0.1356 -0.4657
 6759TIP3    H141768   6.354   4.449   2.048 -0.0127 -0.0620 -0.3787
 6759TIP3    H241769   6.384   4.597   2.032  0.0194 -0.1086 -0.7533
 6760TIP3   OH241770   0.570   1.403   0.281  0.9846 -0.3158  0.3030
 6760TIP3    H141771   0.541   1.321   0.321  0.5271  0.6427  1.9521
 6760TIP3    H241772   0.657   1.417   0.316  0.6862  0.3943  0.7568
 6761TIP3   OH241773   2.214   6.442   3.055  0.8679 -0.2738  0.6591
 6761TIP3    H141774   2.143   6.466   2.995 -0.0451 -1.5006  1.2157
 6761TIP3    H241775   2.283   6.505   3.037 -0.9229  1.8933  1.1417
 6762TIP3   OH241776   4.140   5.248   4.225 -0.0485  0.2648 -0.3288
 6762TIP3    H141777   4.216   5.272   4.278  0.5444  0.6716 -1.3543
 6762TIP3    H241778   4.130   5.321   4.164  1.3376 -1.7386 -3.0206
 6763TIP3   OH241779   3.443   4.456  13.468  0.2178 -0.1468  0.3664
 6763TIP3    H141780   3.462   4.371  13.427 -0.1743 -0.4211  0.7455
 6763TIP3    H241781   3.475   4.520  13.405 -0.8828 -0.5608 -0.6459
 6764TIP3   OH241782   5.586   0.339  16.876 -0.2663 -0.0736  0.5775
 6764TIP3    H141783   5.534   0.262  16.902 -1.1854  0.4861  0.4194
 6764TIP3    H241784   5.566   0.351  16.784  1.1728 -0.6298  0.1705
 6765TIP3   OH241785   4.829   2.113   0.400  0.2021 -0.5089  0.3324
 6765TIP3    H141786   4.845   2.094   0.308 -0.0657  2.0526 -0.2798
 6765TIP3    H241787   4.899   2.067   0.446  0.3778 -1.7555 -1.1428
 6766TIP3   OH241788   6.648   5.273   2.116  0.3011  0.3718 -0.3174
 6766TIP3    H141789   6.589   5.323   2.172 -1.9597 -1.2236 -1.2229
 6766TIP3    H241790   6.696   5.216   2.176 -0.5035  0.2688  0.2324
 6767TIP3   OH241791   4.613   2.388  16.114  0.1845 -0.3663  0.2426
 6767TIP3    H141792   4.687   2.341  16.077  0.5581  0.4123 -0.0188
 6767TIP3    H241793   4.547   2.321  16.130  1.0234 -1.0923  0.6755
 6768TIP3   OH241794   3.201   1.834   3.965 -0.2779  0.0637  0.5945
 6768TIP3    H141795   3.172   1.769   4.029 -0.7405  0.6905  1.0284
 6768TIP3    H241796   3.122   1.884   3.944 -0.1475 -0.1745 -0.5189
 6769TIP3   OH241797   4.881   1.951   0.837  0.1139 -0.0219 -0.0813
 6769TIP3    H141798   4.820   1.989   0.773 -0.2217 -0.2687  0.0853
 6769TIP3    H241799   4.894   2.020   0.902 -0.0696 -0.0042 -0.0629
 6770TIP3   OH241800   2.230   5.533  16.714 -0.9227  0.0258 -0.1037
 6770TIP3    H141801   2.167   5.498  16.652 -0.7240  1.2786 -1.0194
 6770TIP3    H241802   2.289   5.586  16.662  1.6575 -2.0805  0.5394
 6771TIP3   OH241803   6.754   1.634   4.461  0.0760  0.1303 -0.0546
 6771TIP3    H141804   6.693   1.704   4.439  0.7953  0.9687  0.5474
 6771TIP3    H241805   6.754   1.631   4.556  0.2757 -0.4883 -0.0727
 6772TIP3   OH241806   4.648   6.127  15.334 -0.1108 -0.3797  0.2784
 6772TIP3    H141807   4.707   6.202  15.329  1.5364 -1.4723  2.4669
 6772TIP3    H241808   4.687   6.061  15.276 -1.3888  0.2797 -1.3981
 6773TIP3   OH241809   5.069   6.591   0.390  0.1933 -0.9216 -0.1065
 6773TIP3    H141810   4.981   6.592   0.352  0.5888  0.9321 -1.0328
 6773TIP3    H241811   5.061   6.536   0.468 -1.7021 -1.0554 -0.3723
 6774TIP3   OH241812   4.578   1.096  13.663  0.7382 -0.0283  0.6360
 6774TIP3    H141813   4.581   1.164  13.730 -0.1352  0.7977 -0.1443
 6774TIP3    H241814   4.666   1.095  13.626  0.3374  1.8369 -0.4567
 6775TIP3   OH241815   6.223   1.907   6.522  0.3729 -0.2411 -0.0225
 6775TIP3    H141816   6.202   1.911   6.429  2.0141 -0.5026 -0.4181
 6775TIP3    H241817   6.316   1.884   6.525  0.3857 -0.0504  1.6775
 6776TIP3   OH241818   4.822   3.372   1.540 -0.3738  0.1351 -0.1043
 6776TIP3    H141819   4.785   3.444   1.488  0.2261  1.6398  1.4749
 6776TIP3    H241820   4.895   3.412   1.587  1.2761 -2.0341 -0.7755
 6777TIP3   OH241821   0.144   4.071  15.149  0.3396 -0.2647  1.0612
 6777TIP3    H141822   0.166   4.089  15.241 -0.2632 -1.2481  1.3938
 6777TIP3    H241823   0.214   4.114  15.100  1.1761 -0.5141  2.0147
 6778TIP3   OH241824   4.100   3.419  12.506 -0.8381  0.9647 -0.0855
 6778TIP3    H141825   4.133   3.331  12.525 -1.2453  1.0192  0.9128
 6778TIP3    H241826   4.110   3.429  12.412  0.9018  0.5199  0.0353
 6779TIP3   OH241827   5.589   3.873  16.243  0.3383  0.9009 -0.3206
 6779TIP3    H141828   5.596   3.958  16.198  0.5892  0.3818 -1.2640
 6779TIP3    H241829   5.673   3.831  16.229 -0.6650 -0.5762 -2.0319
 6780TIP3   OH241830   1.167   3.215  12.823  0.2795  0.4733 -0.3728
 6780TIP3    H141831   1.093   3.158  12.799  1.6680 -1.0509 -1.1997
 6780TIP3    H241832   1.200   3.247  12.739  2.2230 -1.0467 -0.2186
 6781TIP3   OH241833   5.644   1.204   0.248  0.3718 -0.0430 -0.1792
 6781TIP3    H141834   5.594   1.201   0.329  0.0257  0.2051 -0.3805
 6781TIP3    H241835   5.665   1.297   0.237 -0.8040  0.1140 -1.1138
 6782TIP3   OH241836   5.726   4.843  11.278  0.5056  0.2702 -0.0194
 6782TIP3    H141837   5.750   4.933  11.258 -1.7913  0.8622 -0.1774
 6782TIP3    H241838   5.682   4.812  11.199  0.4658 -0.6862  0.3758
 6783TIP3   OH241839   0.572   3.648   0.604  0.3585 -0.2513  0.0396
 6783TIP3    H141840   0.591   3.724   0.659  0.8907 -0.7724  0.5695
 6783TIP3    H241841   0.655   3.627   0.561  0.6463 -1.5852  1.2024
 6784TIP3   OH241842   0.219   0.326  12.428  0.3954 -0.4534 -0.6740
 6784TIP3    H141843   0.261   0.241  12.411  0.7613 -0.2449 -0.8193
 6784TIP3    H241844   0.282   0.391  12.396 -0.0549 -0.1357 -0.9227
 6785TIP3   OH241845   4.829   1.800   1.347  0.5971 -0.1502  0.4574
 6785TIP3    H141846   4.734   1.807   1.357  0.3853  0.7847 -1.9275
 6785TIP3    H241847   4.843   1.714   1.308  0.4762  0.7159 -1.5912
 6786TIP3   OH241848   0.944   3.610   5.878  0.1063 -0.6310 -0.5997
 6786TIP3    H141849   0.872   3.549   5.896 -0.2792 -0.2602 -0.8914
 6786TIP3    H241850   0.902   3.689   5.846  0.5300  0.1645  0.7468
 6787TIP3   OH241851   0.845   0.249  14.322 -0.3533  0.1260 -0.1173
 6787TIP3    H141852   0.904   0.199  14.265  0.4933  0.1261  0.7351
 6787TIP3    H241853   0.781   0.185  14.353  1.4738 -0.7605  1.9753
 6788TIP3   OH241854   0.127   5.680   0.260 -0.2905 -0.7954 -0.3137
 6788TIP3    H141855   0.109   5.682   0.354 -0.8987 -0.3577 -0.4332
 6788TIP3    H241856   0.103   5.591   0.233  0.4474 -1.1051  0.0501
 6789TIP3   OH241857   1.889   6.183  12.785  0.2056  0.6834  0.2159
 6789TIP3    H141858   1.936   6.169  12.703 -0.5970  0.2963 -0.1910
 6789TIP3    H241859   1.907   6.106  12.838 -1.6145 -0.4500 -0.7525
 6790TIP3   OH241860   4.384   3.175  16.473  0.3552  0.2787 -0.3742
 6790TIP3    H141861   4.308   3.230  16.453 -0.2918 -0.4036  0.2127
 6790TIP3    H241862   4.457   3.237  16.476 -0.0226  0.8251 -1.7780
 6791TIP3   OH241863   6.791   0.163  16.840 -0.3390 -0.0831  0.0100
 6791TIP3    H141864   6.870   0.201  16.801  0.4122 -1.2391  0.3952
 6791TIP3    H241865   6.719   0.218  16.807  0.7415  1.7893  0.7194
 6792TIP3   OH241866   3.137   6.593  12.366 -0.0656  0.0403 -0.1220
 6792TIP3    H141867   3.202   6.550  12.310 -1.4100 -1.6108 -0.4335
 6792TIP3    H241868   3.103   6.665  12.312  0.5968  0.1571 -0.3992
 6793TIP3   OH241869   1.735   0.091   5.585 -0.7266 -0.4928  0.2155
 6793TIP3    H141870   1.754   0.153   5.514  0.1960  0.2459  1.0891
 6793TIP3    H241871   1.818   0.046   5.600 -1.2792 -1.6144 -0.0916
 6794TIP3   OH241872   3.284   5.989  14.401 -0.7851  0.2129  0.1292
 6794TIP3    H141873   3.325   6.014  14.318  0.3822 -0.8607  0.3544
 6794TIP3    H241874   3.353   6.002  14.466 -0.8112 -1.5290  0.5303
 6795TIP3   OH241875   1.478   2.450  14.923 -0.2112  0.5733 -0.1921
 6795TIP3    H141876   1.431   2.424  15.002  0.0229 -2.2634 -0.9126
 6795TIP3    H241877   1.558   2.492  14.955 -1.5819  2.3382  1.0342
 6796TIP3   OH241878   3.782   2.883  16.535 -0.4380 -0.0961  0.0748
 6796TIP3    H141879   3.779   2.843  16.622  0.3139 -1.1678 -0.3804
 6796TIP3    H241880   3.725   2.827  16.481 -1.1351  0.7353 -0.0531
 6797TIP3   OH241881   5.385   4.436  16.530 -0.2160 -0.0670 -0.2840
 6797TIP3    H141882   5.444   4.498  16.572 -0.5236  0.5361 -0.7361
 6797TIP3    H241883   5.382   4.464  16.438  0.4593 -1.3676 -0.7195
 6798TIP3   OH241884   5.208   3.708  12.941  0.0512  0.3561  0.4265
 6798TIP3    H141885   5.288   3.687  12.893  0.0615  0.8995  0.1949
 6798TIP3    H241886   5.175   3.624  12.972 -0.7291 -0.1558 -1.7510
 6799TIP3   OH241887   3.943   2.096   1.204 -0.2944  0.5454 -0.0477
 6799TIP3    H141888   3.903   2.151   1.271 -0.8057 -0.3595  0.4007
 6799TIP3    H241889   3.965   2.156   1.133 -0.0424  1.4615  0.7959
 6800TIP3   OH241890   5.967   0.950   3.313 -0.0826 -0.2825 -0.0266
 6800TIP3    H141891   5.944   0.903   3.233  0.2442 -0.6752  0.1111
 6800TIP3    H241892   6.040   0.901   3.350  2.2618  1.9882 -1.4532
 6801TIP3   OH241893   4.138   4.747   2.583 -0.1865 -0.5190 -0.2231
 6801TIP3    H141894   4.177   4.661   2.599 -1.4495 -1.1957 -0.7619
 6801TIP3    H241895   4.145   4.793   2.667 -1.3169 -1.8779  0.6321
 6802TIP3   OH241896   0.021   0.715   0.166 -0.4207 -0.0915  0.1994
 6802TIP3    H141897   0.048   0.729   0.076 -0.7731  0.0506  0.1201
 6802TIP3    H241898   0.096   0.669   0.206 -0.0287  0.3644 -0.0067
 6803TIP3   OH241899   1.336   0.167   0.734 -0.1253  0.8325 -0.2066
 6803TIP3    H141900   1.397   0.224   0.688  0.3569 -1.1503 -2.1065
 6803TIP3    H241901   1.282   0.227   0.786  1.2501  2.8857 -1.0705
 6804TIP3   OH241902   0.924   2.688  11.923 -0.3816 -0.4684 -0.1727
 6804TIP3    H141903   0.947   2.635  11.999 -1.7628  0.9253  1.2333
 6804TIP3    H241904   0.990   2.758  11.922 -1.5088  0.6120  0.8729
 6805TIP3   OH241905   3.467   0.810  14.443  0.5269  0.4383 -0.4495
 6805TIP3    H141906   3.527   0.818  14.368  0.3528  0.2670 -0.6081
 6805TIP3    H241907   3.464   0.898  14.480  0.4573  0.5691 -0.7654
 6806TIP3   OH241908   5.814   3.234   1.641 -0.6691  0.1841  0.7506
 6806TIP3    H141909   5.810   3.267   1.551 -2.4578 -0.7824  0.4561
 6806TIP3    H241910   5.821   3.139   1.631  0.8289  0.1913  1.6279
 6807TIP3   OH241911   0.969   4.896   2.783 -0.5273  0.0272 -0.7558
 6807TIP3    H141912   0.914   4.967   2.750 -1.5896 -0.1799  0.5082
 6807TIP3    H241913   1.050   4.938   2.809 -1.0915  0.7623 -0.1736
 6808TIP3   OH241914   6.009   0.729  15.578 -1.0472  0.5463  0.2598
 6808TIP3    H141915   6.023   0.713  15.672 -0.2295 -0.3835  0.0003
 6808TIP3    H241916   6.003   0.824  15.570  2.7061  0.9126  0.7912
 6809TIP3   OH241917   3.382   1.094   3.139 -0.3183  0.5578 -0.1879
 6809TIP3    H141918   3.306   1.144   3.109  0.4562  2.5009  1.0173
 6809TIP3    H241919   3.349   1.041   3.211 -0.6858  0.8756 -0.1214
 6810TIP3   OH241920   5.474   5.085   4.773  0.6995 -0.1432 -0.1626
 6810TIP3    H141921   5.537   5.134   4.825  1.1623  0.5965 -1.4244
 6810TIP3    H241922   5.398   5.074   4.831  1.6751 -0.3625  1.0760
 6811TIP3   OH241923   1.138   2.529   0.235 -0.1285 -0.2549  0.3912
 6811TIP3    H141924   1.044   2.527   0.254  0.0610 -1.1000  1.2739
 6811TIP3    H241925   1.178   2.565   0.315  0.4097 -1.0685  0.4908
 6812TIP3   OH241926   6.571   4.996  12.680  0.2415  0.4047 -0.6206
 6812TIP3    H141927   6.501   5.021  12.621  0.1392  0.1862 -0.5947
 6812TIP3    H241928   6.651   5.018  12.633  0.1717 -0.6786 -1.2566
 6813TIP3   OH241929   4.976   2.693   5.020  0.3414  0.3422 -0.6405
 6813TIP3    H141930   4.943   2.652   4.940  0.4588  0.9761 -1.0218
 6813TIP3    H241931   4.990   2.620   5.081 -2.1872  0.0960 -0.2942
 6814TIP3   OH241932   6.670   2.657   3.159 -0.1458  0.4253 -0.0181
 6814TIP3    H141933   6.615   2.594   3.113  0.7027 -0.6616  0.4359
 6814TIP3    H241934   6.689   2.725   3.094 -0.0472 -0.4206 -0.8751
 6815TIP3   OH241935   2.847   4.224  12.183  0.1362  0.1096 -0.4872
 6815TIP3    H141936   2.816   4.312  12.161  0.4633  0.2900 -0.2382
 6815TIP3    H241937   2.886   4.191  12.101 -1.6319 -0.5279 -1.0860
 6816TIP3   OH241938   6.082   2.024   2.874  0.4099 -0.5819 -0.2173
 6816TIP3    H141939   6.110   2.053   2.787 -1.3688  0.9233 -0.3210
 6816TIP3    H241940   6.125   2.086   2.934 -1.1327  0.5595 -0.2628
 6817TIP3   OH241941   5.843   2.379   2.370  0.0677 -0.3651 -0.1096
 6817TIP3    H141942   5.792   2.447   2.414 -0.2035 -0.7307  0.1514
 6817TIP3    H241943   5.925   2.421   2.345 -0.0446  0.0174  0.1746
 6818TIP3   OH241944   3.507   2.896   6.407 -0.0029 -0.1195  0.7892
 6818TIP3    H141945   3.579   2.858   6.458  0.8399  1.4398  0.7626
 6818TIP3    H241946   3.513   2.990   6.421  0.1108  0.3380 -2.0302
 6819TIP3   OH241947   5.537   4.031   4.625  0.3446  0.0583  0.2347
 6819TIP3    H141948   5.607   4.048   4.561  0.2864  1.9679  0.6484
 6819TIP3    H241949   5.529   4.113   4.673  1.3503 -1.7534  3.6626
 6820TIP3   OH241950   2.400   4.331   2.774  0.0909  0.2297  0.0971
 6820TIP3    H141951   2.396   4.275   2.852  0.9118  0.7406  0.5091
 6820TIP3    H241952   2.489   4.321   2.741  0.0676  0.8476 -0.1625
 6821TIP3   OH241953   4.829   1.908  12.916 -0.0132  0.1335 -0.1059
 6821TIP3    H141954   4.798   1.823  12.884 -1.5552  0.7612 -0.3509
 6821TIP3    H241955   4.823   1.901  13.011 -1.6423  0.4792 -0.1569
 6822TIP3   OH241956   5.612   1.996   3.964 -0.5567  0.9283 -0.1837
 6822TIP3    H141957   5.527   1.956   3.985 -0.4233  1.0778  0.6478
 6822TIP3    H241958   5.615   1.995   3.868 -0.9685 -0.1834 -0.1987
 6823TIP3   OH241959   3.915   5.644   0.635 -0.5048  0.2773  0.4124
 6823TIP3    H141960   3.935   5.734   0.608 -0.3342 -0.1184 -0.7768
 6823TIP3    H241961   3.820   5.642   0.644 -0.5437  0.4550  0.0344
 6824TIP3   OH241962   6.488   3.222  10.585 -0.3779  0.5279  0.1685
 6824TIP3    H141963   6.468   3.292  10.647  0.2385  0.9557 -0.1205
 6824TIP3    H241964   6.403   3.181  10.567 -0.5672  0.4343  1.2540
 6825TIP3   OH241965   6.331   1.767  11.907 -0.3000 -0.4766  0.2892
 6825TIP3    H141966   6.336   1.732  11.818  2.1327  0.8515 -0.1379
 6825TIP3    H241967   6.263   1.834  11.903  1.1881  0.9956 -1.1114
 6826TIP3   OH241968   5.910   0.944   0.862  0.0290  0.2036 -0.1530
 6826TIP3    H141969   5.900   1.036   0.836 -0.5820 -0.3223 -1.8963
 6826TIP3    H241970   5.822   0.907   0.851  0.2530 -0.5650  0.6197
 6827TIP3   OH241971   0.739   5.735  12.111 -0.8927  0.2571 -0.2322
 6827TIP3    H141972   0.811   5.761  12.053 -1.3365 -0.9276 -1.3490
 6827TIP3    H241973   0.771   5.655  12.154 -1.6567 -0.4931 -1.0211
 6828TIP3   OH241974   6.762   3.125   4.998 -0.0170  0.1163 -0.6204
 6828TIP3    H141975   6.707   3.048   5.012 -0.1390  0.1986 -0.6406
 6828TIP3    H241976   6.700   3.195   4.976  0.0229  0.4240  0.2387
 6829TIP3   OH241977   4.568   1.484   2.790  0.2117 -0.0251  0.0263
 6829TIP3    H141978   4.613   1.539   2.855  0.3824 -1.7535  1.3918
 6829TIP3    H241979   4.476   1.487   2.815 -0.2293  1.9964 -1.6658
 6830TIP3   OH241980   4.256   4.670   5.025 -0.3899 -0.2318 -0.0434
 6830TIP3    H141981   4.293   4.666   5.113 -1.4803 -0.4056  0.4143
 6830TIP3    H241982   4.296   4.597   4.978 -0.8331 -0.9625  0.7087
 6831TIP3   OH241983   1.067   4.390   2.551 -0.0874 -0.3769  0.3576
 6831TIP3    H141984   1.154   4.395   2.510 -0.8438 -2.1448 -1.6247
 6831TIP3    H241985   1.082   4.344   2.633  0.9549 -0.0679  0.3511
 6832TIP3   OH241986   4.974   3.143   0.536  0.2268 -0.2377 -0.2465
 6832TIP3    H141987   4.962   3.123   0.443  1.9398 -2.2558 -0.0630
 6832TIP3    H241988   4.886   3.140   0.573 -0.0401 -3.3572 -1.0517
 6833TIP3   OH241989   6.405   3.308   3.705 -0.3968  0.2317 -0.5241
 6833TIP3    H141990   6.317   3.290   3.672 -0.9877 -0.0283  1.1493
 6833TIP3    H241991   6.392   3.364   3.782  0.9827  1.2742 -0.9999
 6834TIP3   OH241992   3.504   1.180   0.508  0.9379  0.3087  0.1127
 6834TIP3    H141993   3.564   1.249   0.537  0.9942  0.8443 -1.2051
 6834TIP3    H241994   3.553   1.099   0.521  0.3875  0.3809  2.8865
 6835TIP3   OH241995   3.009   3.080   0.588  0.9699  0.0283  0.4000
 6835TIP3    H141996   3.032   3.015   0.655 -2.0529  0.1975  1.6530
 6835TIP3    H241997   2.944   3.136   0.629 -1.4111 -0.2057 -2.8229
 6836TIP3   OH241998   2.015   4.379  15.759  0.2229  0.2129 -0.0432
 6836TIP3    H141999   2.004   4.404  15.667 -0.7867  0.5843  0.1805
 6836TIP3    H242000   1.927   4.376  15.795  0.7069  1.7253  1.3399
 6837TIP3   OH242001   1.760   5.483  16.770 -0.7778  0.2297 -0.2647
 6837TIP3    H142002   1.743   5.567  16.813 -2.1514  0.2570 -0.8113
 6837TIP3    H242003   1.673   5.449  16.751 -0.2503 -1.8725  0.9856
 6838TIP3   OH242004   3.168   6.357   4.993 -0.3013  0.5848 -0.3069
 6838TIP3    H142005   3.182   6.263   4.988  1.6304  0.8920 -1.1430
 6838TIP3    H242006   3.154   6.374   5.086  0.7067 -0.3569  0.0297
 6839TIP3   OH242007   2.190   5.050   1.516 -0.3081 -0.0185  0.2890
 6839TIP3    H142008   2.277   5.012   1.523 -0.6315 -0.7402  0.3778
 6839TIP3    H242009   2.194   5.106   1.438 -0.1086 -0.9694 -0.3957
 6840TIP3   OH242010   5.441   0.067   5.267 -0.3250 -0.0007 -0.1250
 6840TIP3    H142011   5.430   0.160   5.290 -3.1998 -0.3500  0.1528
 6840TIP3    H242012   5.408   0.020   5.344  3.2309 -1.3440  0.6936
 6841TIP3   OH242013   1.753   3.083  13.809 -0.0620 -0.4547  0.4342
 6841TIP3    H142014   1.699   3.018  13.855 -0.5573 -1.4591 -1.5181
 6841TIP3    H242015   1.692   3.152  13.785 -0.3155 -1.1771 -1.0102
 6842TIP3   OH242016   5.226   6.750  11.541 -0.0433 -0.0985  0.0091
 6842TIP3    H142017   5.190   6.765  11.629 -1.1877 -0.8277 -0.3415
 6842TIP3    H242018   5.218   6.835  11.498  1.1756  0.4561  0.8356
 6843TIP3   OH242019   5.828   2.574  10.510  0.0594 -0.3584  0.6916
 6843TIP3    H142020   5.907   2.582  10.457  0.4195  1.3240  1.4503
 6843TIP3    H242021   5.763   2.535  10.452  0.6451  0.8210 -0.7831
 6844TIP3   OH242022   5.828   3.291  12.268  0.1749  0.0746  0.0045
 6844TIP3    H142023   5.885   3.330  12.201  1.2907 -1.0645  0.2923
 6844TIP3    H242024   5.769   3.363  12.293  1.7804  1.3996  0.0500
 6845TIP3   OH242025   6.781   1.513  12.320  0.1539  0.4906  0.6302
 6845TIP3    H142026   6.801   1.605  12.339 -0.5196  0.6249  0.6906
 6845TIP3    H242027   6.752   1.514  12.229  2.7416 -0.0548 -0.2440
 6846TIP3   OH242028   3.177   5.794  13.131  0.0962 -0.0742 -0.0515
 6846TIP3    H142029   3.101   5.747  13.099  0.3363  1.5907 -3.3387
 6846TIP3    H242030   3.142   5.865  13.185 -0.4519 -1.5846  1.5964
 6847TIP3   OH242031   4.053   6.674  12.101 -0.2426  0.3353  0.6435
 6847TIP3    H142032   4.098   6.689  12.184  0.4303 -0.8774  0.5139
 6847TIP3    H242033   4.079   6.585  12.075 -3.0508 -0.5792  0.7714
 6848TIP3   OH242034   5.923   4.562  15.359  0.7055 -0.3950 -0.3006
 6848TIP3    H142035   6.005   4.575  15.311  1.0482  0.6845  0.5519
 6848TIP3    H242036   5.862   4.624  15.320  0.0240 -1.8471 -1.5486
 6849TIP3   OH242037   4.937   0.256   3.227 -0.5320 -0.3715  0.2116
 6849TIP3    H142038   4.906   0.313   3.157  1.6435  0.2339 -0.2964
 6849TIP3    H242039   4.858   0.235   3.278 -1.6522  1.5954 -0.6608
 6850TIP3   OH242040   1.970   6.667   1.470  0.4625  0.2262 -0.3128
 6850TIP3    H142041   2.061   6.641   1.480  0.4913  0.5156  0.2061
 6850TIP3    H242042   1.951   6.655   1.377  0.4505 -1.7403 -0.0721
 6851TIP3   OH242043   5.850   1.756  14.721  0.8511 -0.0699 -0.0078
 6851TIP3    H142044   5.861   1.674  14.673  0.4872  0.5514 -1.1711
 6851TIP3    H242045   5.759   1.755  14.748  1.5907 -1.4442  2.6222
 6852TIP3   OH242046   4.826   5.800  15.618 -0.7130  0.1626  0.3383
 6852TIP3    H142047   4.894   5.732  15.617  0.0220  0.8479  1.6906
 6852TIP3    H242048   4.853   5.860  15.549 -1.7158 -1.2249 -1.3014
 6853TIP3   OH242049   1.023   1.231  11.169  0.3680  0.2356 -0.8416
 6853TIP3    H142050   0.948   1.232  11.109 -1.1750  0.4936  1.0573
 6853TIP3    H242051   1.092   1.277  11.121 -0.5588 -0.2687 -2.7383
 6854TIP3   OH242052   0.406   5.131   2.733 -0.2985 -0.4700 -0.2337
 6854TIP3    H142053   0.430   5.041   2.709 -0.4295  0.2687 -3.3627
 6854TIP3    H242054   0.462   5.186   2.679 -0.1961  1.3616  1.6829
 6855TIP3   OH242055   6.592   1.466  13.064  0.3107  0.0028 -0.1308
 6855TIP3    H142056   6.526   1.401  13.089 -0.0928 -1.1942 -3.8692
 6855TIP3    H242057   6.662   1.455  13.128 -0.3520 -3.2479  0.1496
 6856TIP3   OH242058   3.742   5.474   4.806 -0.0006 -0.0668  0.6759
 6856TIP3    H142059   3.830   5.443   4.828 -0.0848 -0.1915  0.8407
 6856TIP3    H242060   3.706   5.504   4.889  1.0066  2.8268  0.1004
 6857TIP3   OH242061   0.803   3.312   3.070 -0.2616 -0.2771  0.1923
 6857TIP3    H142062   0.763   3.247   3.127 -0.3395  0.4434  0.9774
 6857TIP3    H242063   0.754   3.393   3.088  0.3622  0.1888 -0.1658
 6858TIP3   OH242064   6.779   0.532   0.625  0.3024 -0.2178  0.3970
 6858TIP3    H142065   6.801   0.616   0.665  0.9048 -1.2000  2.1504
 6858TIP3    H242066   6.695   0.508   0.663  1.0238 -1.3027  1.3384
 6859TIP3   OH242067   6.391   2.183   5.793  0.4080  0.6567  0.2208
 6859TIP3    H142068   6.464   2.163   5.853  1.4007  3.0017 -0.1467
 6859TIP3    H242069   6.411   2.133   5.714  0.0363 -1.0371  1.1626
 6860TIP3   OH242070   5.938   4.654  13.909  0.2900 -0.0519 -0.2344
 6860TIP3    H142071   5.881   4.661  13.832  1.1456  0.5411 -0.8264
 6860TIP3    H242072   5.892   4.702  13.978 -0.1595 -0.0018 -0.5666
 6861TIP3   OH242073   1.297   5.821  16.530  0.2670 -0.3807  0.2082
 6861TIP3    H142074   1.285   5.785  16.442 -0.3702  0.1874  0.0615
 6861TIP3    H242075   1.250   5.760  16.587  0.2071 -0.4465  0.0911
 6862TIP3   OH242076   6.216   4.130  12.054 -1.3344 -0.4659 -0.3695
 6862TIP3    H142077   6.178   4.162  11.972  0.9946  3.5607  0.0012
 6862TIP3    H242078   6.144   4.133  12.116 -1.7413  2.0545 -0.9143
 6863TIP3   OH242079   4.430   2.315   0.097  0.3842  0.1419  0.4274
 6863TIP3    H142080   4.358   2.372   0.122 -0.3981 -0.4792 -0.3770
 6863TIP3    H242081   4.396   2.264   0.023  2.0507  0.7117 -0.7719
 6864TIP3   OH242082   3.927   2.498  16.868  0.1031  0.0140  0.3075
 6864TIP3    H142083   3.846   2.463  16.905 -0.2423  0.0896 -0.3720
 6864TIP3    H242084   3.954   2.566  16.930 -0.8391  0.6132  0.0818
 6865TIP3   OH242085   6.188   2.296   4.966  0.0302  0.7196  0.3450
 6865TIP3    H142086   6.183   2.211   5.010 -0.4260  1.1264  1.0972
 6865TIP3    H242087   6.155   2.280   4.878  2.8193 -0.5341 -0.5319
 6866TIP3   OH242088   2.445   3.408   2.183 -0.2627  0.2596 -0.1528
 6866TIP3    H142089   2.431   3.314   2.188 -0.0790  0.2643  0.4042
 6866TIP3    H242090   2.531   3.423   2.222 -0.8126  0.7917  0.9006
 6867TIP3   OH242091   3.468   3.260  11.106  0.0622 -0.1027  0.3282
 6867TIP3    H142092   3.527   3.191  11.077  0.6186  0.6491 -0.3491
 6867TIP3    H242093   3.488   3.271  11.199 -0.5151 -1.3217  0.6152
 6868TIP3   OH242094   1.190   5.886   1.760  0.6151  0.3717 -0.0946
 6868TIP3    H142095   1.134   5.938   1.817  0.0333 -0.0302 -0.3045
 6868TIP3    H242096   1.138   5.873   1.681 -0.3162 -2.8157  0.9696
 6869TIP3   OH242097   6.646   1.292   4.721 -0.3470 -0.8420  0.0600
 6869TIP3    H142098   6.638   1.266   4.630 -1.3844 -1.5001  0.3434
 6869TIP3    H242099   6.690   1.218   4.764  0.8728 -0.2046 -0.0529
 6870TIP3   OH242100   4.500   5.619  12.533 -0.2605 -0.3089  0.1290
 6870TIP3    H142101   4.536   5.562  12.601 -0.8400 -0.9050 -0.0547
 6870TIP3    H242102   4.440   5.677  12.580  0.2668  0.0929  0.3053
 6871TIP3   OH242103   2.871   3.224   1.975 -0.1655  0.3060  0.1384
 6871TIP3    H142104   2.849   3.192   2.062 -1.1926  0.1458 -0.1779
 6871TIP3    H242105   2.826   3.308   1.967 -0.0335  0.3462 -0.2146
 6872TIP3   OH242106   6.820   2.701  11.083  0.9467 -0.2905  0.2623
 6872TIP3    H142107   6.730   2.675  11.104  0.5431 -0.3697 -1.4290
 6872TIP3    H242108   6.838   2.774  11.141 -0.0557 -0.5687  0.9404
 6873TIP3   OH242109   0.390   5.211   6.847 -0.1469 -0.0604 -0.4038
 6873TIP3    H142110   0.322   5.278   6.855 -0.7619 -0.5213 -1.5862
 6873TIP3    H242111   0.346   5.130   6.873  0.3995 -0.1211  0.3461
 6874TIP3   OH242112   0.880   4.381   2.347 -0.1841 -0.7573 -0.0820
 6874TIP3    H142113   0.861   4.290   2.324 -1.4855 -0.5828  0.2423
 6874TIP3    H242114   0.939   4.375   2.422 -0.9177 -1.3410  0.4567
 6875TIP3   OH242115   5.466   5.110   5.305 -0.1852  0.2836  0.0687
 6875TIP3    H142116   5.420   5.042   5.255  0.3970  0.6611 -0.9953
 6875TIP3    H242117   5.542   5.131   5.251  1.1749 -0.2489  1.7506
 6876TIP3   OH242118   6.468   4.260   1.731  0.9767 -0.4504  0.0062
 6876TIP3    H142119   6.484   4.182   1.679 -1.1687 -0.6038 -0.4626
 6876TIP3    H242120   6.463   4.331   1.668  0.2091 -0.3586  0.1594
 6877TIP3   OH242121   2.012   4.334   5.037  0.3321 -0.5670  0.3981
 6877TIP3    H142122   1.924   4.340   5.001  0.6637  2.9063 -0.0543
 6877TIP3    H242123   2.014   4.398   5.108  1.9379 -1.9335  1.6237
 6878TIP3   OH242124   1.403   5.621   6.490  0.5285 -0.0056  0.2889
 6878TIP3    H142125   1.354   5.689   6.535  2.3699  1.9060 -0.5293
 6878TIP3    H242126   1.463   5.586   6.556 -0.1476 -0.5999  0.6014
 6879TIP3   OH242127   4.112   4.484  15.056 -0.9303 -0.0058 -0.4472
 6879TIP3    H142128   4.112   4.487  15.152 -0.8230 -3.1237 -0.2957
 6879TIP3    H242129   4.021   4.467  15.032 -1.0867  1.5154 -0.9424
 6880TIP3   OH242130   3.891   5.934   0.554 -0.0542 -0.4613  0.1966
 6880TIP3    H142131   3.810   5.983   0.565 -0.4620 -1.3223  1.2064
 6880TIP3    H242132   3.885   5.895   0.467 -0.6538 -0.3946  0.2092
 6881TIP3   OH242133   1.027   4.352   1.460  0.7390 -0.4542  0.5349
 6881TIP3    H142134   1.038   4.420   1.393 -0.2775 -0.5365  0.2816
 6881TIP3    H242135   0.955   4.383   1.515  0.7816 -0.9562  0.8812
 6882TIP3   OH242136   0.951   0.312   2.485  0.1358  0.1887  0.1109
 6882TIP3    H142137   0.989   0.231   2.520  1.9602 -0.3540 -2.9662
 6882TIP3    H242138   0.859   0.290   2.471 -0.6626  0.4094  4.2884
 6883TIP3   OH242139   1.626   6.382  11.504 -0.1439  0.5513  0.0777
 6883TIP3    H142140   1.643   6.356  11.414 -1.8327 -3.3655  0.7615
 6883TIP3    H242141   1.696   6.340  11.554 -0.4240  0.9482  0.8121
 6884TIP3   OH242142   6.214   5.206   1.481 -0.4594 -0.5811  1.1319
 6884TIP3    H142143   6.255   5.284   1.517  0.1447 -0.8775  1.0996
 6884TIP3    H242144   6.269   5.182   1.407 -1.2961 -0.3788  0.4406
 6885TIP3   OH242145   6.078   6.458  14.515 -0.1360  0.3560  0.0438
 6885TIP3    H142146   6.115   6.378  14.550  2.0636  1.2576 -0.1106
 6885TIP3    H242147   6.015   6.429  14.449  0.3877 -1.2433  0.2355
 6886TIP3   OH242148   2.617   1.275   0.289 -0.4955  0.0205 -0.3796
 6886TIP3    H142149   2.680   1.252   0.221  0.2964  1.1575 -0.0323
 6886TIP3    H242150   2.657   1.347   0.337 -0.2362 -1.9372  2.4978
 6887TIP3   OH242151   1.581   3.366   4.684  0.7170 -0.3420  0.9084
 6887TIP3    H142152   1.534   3.283   4.680 -1.2680  0.8074 -0.7982
 6887TIP3    H242153   1.529   3.420   4.743  1.6782 -0.1121  1.5532
 6888TIP3   OH242154   0.215   3.985   6.035  0.7743  0.2018 -0.3087
 6888TIP3    H142155   0.185   4.068   6.071 -1.6855 -1.2760  1.2055
 6888TIP3    H242156   0.183   3.919   6.097  1.1055 -2.0205 -2.4080
 6889TIP3   OH242157   4.887   5.449  14.568  0.1987  0.2716 -0.6350
 6889TIP3    H142158   4.945   5.395  14.514 -0.7922 -1.4397 -0.0141
 6889TIP3    H242159   4.916   5.432  14.657 -1.8885 -1.3983 -0.2410
 6890TIP3   OH242160   4.685   0.242  14.276  0.2872  0.2591  0.3748
 6890TIP3    H142161   4.612   0.269  14.332 -0.0446  0.0234  0.0599
 6890TIP3    H242162   4.663   0.152  14.250  1.4439 -0.3738  1.5275
 6891TIP3   OH242163   2.945   3.404   4.703  0.0095  0.2284 -0.2593
 6891TIP3    H142164   2.965   3.311   4.715  0.5541  0.1138 -2.0226
 6891TIP3    H242165   2.879   3.423   4.770  0.9276 -1.0795  1.0372
 6892TIP3   OH242166   3.816   4.767   0.178  0.0401 -0.2571  0.0391
 6892TIP3    H142167   3.795   4.710   0.252  0.3203 -1.1570 -0.5672
 6892TIP3    H242168   3.900   4.806   0.201 -0.8879  1.1369  1.1668
 6893TIP3   OH242169   2.876   2.127  11.297  0.1084  0.2762 -0.3497
 6893TIP3    H142170   2.938   2.187  11.255  3.3670 -0.8571  2.5433
 6893TIP3    H242171   2.871   2.053  11.237  1.3674  0.5192 -0.7744
 6894TIP3   OH242172   3.546   2.752   0.178  0.3607 -0.3019  0.3351
 6894TIP3    H142173   3.514   2.671   0.139  0.4499  1.0780 -2.7201
 6894TIP3    H242174   3.467   2.795   0.212  0.0132 -0.6383 -0.0392
 6895TIP3   OH242175   1.089   0.244   2.783  0.3776 -0.1681  0.2855
 6895TIP3    H142176   1.170   0.223   2.736 -0.6694 -0.7885 -1.2790
 6895TIP3    H242177   1.091   0.187   2.861  0.9027 -1.0172 -0.3381
 6896TIP3   OH242178   0.422   3.561   5.841  0.6286  0.2518  0.0870
 6896TIP3    H142179   0.467   3.631   5.888 -2.2973  1.7365  0.8040
 6896TIP3    H242180   0.335   3.596   5.822 -0.0596 -2.2708 -1.8035
 6897TIP3   OH242181   3.376   1.222  15.539  0.0392  0.2523  0.1072
 6897TIP3    H142182   3.381   1.215  15.443 -1.1081 -0.9577  0.1280
 6897TIP3    H242183   3.425   1.302  15.559  0.3396  0.4941 -1.4834
 6898TIP3   OH242184   3.153   0.432   2.821 -0.2511  0.2945  0.3781
 6898TIP3    H142185   3.130   0.417   2.729  1.2982 -0.1621  0.0528
 6898TIP3    H242186   3.077   0.399   2.870 -1.9284  2.3441 -0.7802
 6899TIP3   OH242187   4.171   1.451  17.236 -0.1136 -0.0355 -0.2156
 6899TIP3    H142188   4.164   1.499  17.154 -0.5315 -0.4984 -0.4508
 6899TIP3    H242189   4.250   1.398  17.227 -0.3932 -0.4027 -0.4795
 6900TIP3   OH242190   4.618   2.045  15.386  0.1173 -0.4260  0.2555
 6900TIP3    H142191   4.638   2.058  15.293  5.7866 -0.2202  1.3067
 6900TIP3    H242192   4.591   1.953  15.392  0.9513 -0.8036 -1.3992
 6901TIP3   OH242193   0.473   4.873  16.306  0.2267 -0.0941  0.0875
 6901TIP3    H142194   0.530   4.859  16.382 -0.6089  0.8337  0.9045
 6901TIP3    H242195   0.501   4.957  16.271  0.4899 -0.4395 -0.5330
 6902TIP3   OH242196   6.296   6.801   2.063 -0.2208  0.0281  0.1189
 6902TIP3    H142197   6.294   6.726   2.122  0.8366  1.2064  1.6719
 6902TIP3    H242198   6.316   6.876   2.119  0.9730  1.1510 -1.7550
 6903TIP3   OH242199   4.708   1.307  12.649  0.5751 -0.3746 -0.1937
 6903TIP3    H142200   4.652   1.240  12.609 -1.2461 -1.2733  3.6556
 6903TIP3    H242201   4.648   1.379  12.670  1.3837 -0.1266  1.3372
 6904TIP3   OH242202   3.026   0.295  16.924 -0.0064  0.0832  0.3619
 6904TIP3    H142203   3.106   0.275  16.876  0.0463 -1.0682  0.9134
 6904TIP3    H242204   2.998   0.211  16.960 -0.8328  0.6823  1.1332
 6905TIP3   OH242205   4.375   5.648  12.889 -0.2890  0.1456 -0.5941
 6905TIP3    H142206   4.355   5.628  12.981 -0.4801  0.6614 -0.5197
 6905TIP3    H242207   4.469   5.628  12.881  0.0114  1.2580  0.0415
 6906TIP3   OH242208   2.491   3.507  13.180  0.4070  0.1809 -0.0686
 6906TIP3    H142209   2.418   3.559  13.213 -1.6071 -2.2202 -0.6002
 6906TIP3    H242210   2.543   3.568  13.128 -0.9551  2.0449  0.7317
 6907TIP3   OH242211   5.832   0.263  13.201 -0.1824 -0.1672 -0.1051
 6907TIP3    H142212   5.909   0.307  13.237 -0.5312  0.9140 -0.6276
 6907TIP3    H242213   5.825   0.182  13.250  0.2666  0.5465  1.1691
 6908TIP3   OH242214   4.892   3.130  11.111 -0.3600 -0.0923  0.0842
 6908TIP3    H142215   4.963   3.067  11.122  0.4814  1.0254  1.1757
 6908TIP3    H242216   4.933   3.208  11.075 -1.3726 -0.0842 -1.0964
 6909TIP3   OH242217   1.975   4.703  14.066  0.3153  0.2989 -0.2453
 6909TIP3    H142218   1.972   4.734  13.976 -0.8218  3.0623  0.6938
 6909TIP3    H242219   1.917   4.762  14.114  1.1966 -0.8804  2.3673
 6910TIP3   OH242220   6.786   4.069   1.712  0.1531  0.2569 -0.2262
 6910TIP3    H142221   6.867   4.063   1.764  0.6453 -1.2102 -1.1302
 6910TIP3    H242222   6.719   4.031   1.769 -0.0994  2.3096  0.8841
 6911TIP3   OH242223   5.851   2.963  15.645 -0.4156  0.2637  0.2833
 6911TIP3    H142224   5.876   3.028  15.579  0.2612 -2.2910 -2.0609
 6911TIP3    H242225   5.932   2.917  15.666 -1.3897 -1.6947 -0.1913
 6912TIP3   OH242226   4.720   2.439   0.367 -0.4422  0.2124 -0.5943
 6912TIP3    H142227   4.684   2.478   0.447  0.1652  0.0762 -0.2561
 6912TIP3    H242228   4.689   2.349   0.369 -0.0286  0.0796 -0.2748
 6913TIP3   OH242229   0.245   1.278  14.832  0.1858  0.9504 -0.6297
 6913TIP3    H142230   0.255   1.308  14.922  1.5503  0.5936 -0.6504
 6913TIP3    H242231   0.333   1.285  14.794  0.3271 -1.8753 -0.9892
 6914TIP3   OH242232   1.156   1.588  10.465  0.4952  0.2970 -0.1140
 6914TIP3    H142233   1.152   1.572  10.370  1.9429 -0.7776 -0.0138
 6914TIP3    H242234   1.249   1.602  10.483  0.6263 -2.3825  1.5864
 6915TIP3   OH242235   1.729   2.786  11.365 -0.3350  0.5277  0.2731
 6915TIP3    H142236   1.774   2.710  11.403  0.5858  0.6230 -0.5791
 6915TIP3    H242237   1.637   2.774  11.389 -0.0338 -0.2928  1.0655
 6916TIP3   OH242238   6.583   0.733  15.017  0.0421 -0.1789 -0.4212
 6916TIP3    H142239   6.655   0.775  15.065  0.5691 -0.8519 -0.6165
 6916TIP3    H242240   6.541   0.676  15.081  0.3823 -0.6349 -0.6013
 6917TIP3   OH242241   2.413   5.632   0.630  0.1537  0.4058 -0.0801
 6917TIP3    H142242   2.489   5.687   0.612 -0.4610  1.8435  1.6495
 6917TIP3    H242243   2.404   5.634   0.725 -1.6425 -0.3322 -0.2261
 6918TIP3   OH242244   1.827   0.012   1.007  0.2892 -0.3049 -0.4899
 6918TIP3    H142245   1.824   0.106   1.020 -0.2966 -0.3333 -0.3799
 6918TIP3    H242246   1.739  -0.010   0.974  0.2970 -0.8592 -0.1481
 6919TIP3   OH242247   3.726   6.443   1.226  0.3874  0.0699  0.1518
 6919TIP3    H142248   3.724   6.439   1.131  2.1440  1.0953  0.0446
 6919TIP3    H242249   3.661   6.379   1.255 -0.3572 -0.0299 -1.7297
 6920TIP3   OH242250   5.065   4.397   2.191 -0.3290  0.8291  0.3696
 6920TIP3    H142251   5.075   4.434   2.279  2.0586  3.0766 -0.7838
 6920TIP3    H242252   5.103   4.310   2.197 -0.9262  0.6421  1.7320
 6921TIP3   OH242253   2.668   0.883  11.696 -0.1942 -0.0136 -0.0582
 6921TIP3    H142254   2.698   0.832  11.621 -1.1240 -3.9218  2.0616
 6921TIP3    H242255   2.748   0.909  11.741  0.2752 -0.3615 -0.6860
 6922TIP3   OH242256   1.862   4.860  12.844  0.1714 -0.2992 -0.2176
 6922TIP3    H142257   1.882   4.824  12.758  0.5371  0.5808 -0.5088
 6922TIP3    H242258   1.872   4.786  12.904 -1.2876 -1.2090 -1.0697
 6923TIP3   OH242259   4.156   4.250   4.315 -0.1729  0.0680  0.8248
 6923TIP3    H142260   4.157   4.345   4.304 -0.3640 -0.0693 -0.5414
 6923TIP3    H242261   4.088   4.220   4.255  1.6715 -1.1480 -0.7187
 6924TIP3   OH242262   2.400   4.683   3.787  0.7402  0.1481 -0.1168
 6924TIP3    H142263   2.375   4.592   3.801 -2.0190  1.0522  1.3094
 6924TIP3    H242264   2.394   4.696   3.692  0.4753 -0.9663 -0.2578
 6925TIP3   OH242265   2.806   5.445  15.361  0.2517 -0.2926  0.7911
 6925TIP3    H142266   2.819   5.526  15.409 -1.5623 -0.2440  1.2297
 6925TIP3    H242267   2.812   5.376  15.427  0.6863 -0.4461  0.5978
 6926TIP3   OH242268   2.922   3.974  16.300 -0.0579 -0.2254  0.0900
 6926TIP3    H142269   3.007   3.959  16.340  0.5535  0.5714 -0.8934
 6926TIP3    H242270   2.933   4.053  16.247 -0.8997 -1.1299 -1.4773
 6927TIP3   OH242271   0.394   1.269  14.437  0.0754 -0.2320  0.5270
 6927TIP3    H142272   0.337   1.345  14.447  1.3107  0.7476  0.1865
 6927TIP3    H242273   0.367   1.231  14.353 -0.0259  0.2679  0.3304
 6928TIP3   OH242274   6.018   3.788  14.388  0.3719 -0.5735  0.3138
 6928TIP3    H142275   6.071   3.830  14.456 -0.3884 -0.7803  1.0509
 6928TIP3    H242276   6.079   3.767  14.318  1.0321  0.3763  0.5937
 6929TIP3   OH242277   1.611   4.779  11.176  0.2161 -0.4402 -0.2768
 6929TIP3    H142278   1.660   4.757  11.096 -0.4523 -1.8243 -0.3247
 6929TIP3    H242279   1.520   4.782  11.147  0.1722  1.1460  0.0148
 6930TIP3   OH242280   0.825   2.647  11.380  0.0571  0.5827  0.8832
 6930TIP3    H142281   0.775   2.566  11.384  0.5119  0.2800  0.4904
 6930TIP3    H242282   0.759   2.716  11.383 -0.6024  0.1822 -2.1662
 6931TIP3   OH242283   1.108   2.514   0.835 -0.5627  0.0618 -0.0239
 6931TIP3    H142284   1.103   2.467   0.752 -2.6431  0.0335  0.0832
 6931TIP3    H242285   1.082   2.449   0.901 -2.4267  1.0298  0.2365
 6932TIP3   OH242286   0.936   3.745  11.359 -0.0494 -0.4889  0.0745
 6932TIP3    H142287   0.946   3.714  11.269 -1.5832 -0.2348 -0.1948
 6932TIP3    H242288   0.848   3.719  11.384  0.7359 -1.5196  1.8985
 6933TIP3   OH242289   1.850   1.571   1.516  0.2554  0.0645  0.3425
 6933TIP3    H142290   1.759   1.564   1.544 -0.6345  0.1560 -2.3127
 6933TIP3    H242291   1.881   1.653   1.553 -1.2170  0.7520  0.1030
 6934TIP3   OH242292   3.280   1.240   0.331 -0.2309  0.0246 -0.2451
 6934TIP3    H142293   3.340   1.266   0.401 -1.6111  0.2281  0.8859
 6934TIP3    H242294   3.268   1.146   0.344 -1.2992  0.2533  0.4329
 6935TIP3   OH242295   2.641   6.376  15.014  0.1568  0.4899 -0.1325
 6935TIP3    H142296   2.695   6.394  14.938  0.9060  0.2773  0.3461
 6935TIP3    H242297   2.630   6.460  15.057  0.1920  0.5137 -0.1712
 6936TIP3   OH242298   5.858   6.105   3.741 -0.0399 -0.5205  0.3826
 6936TIP3    H142299   5.773   6.148   3.749 -0.8333 -1.9683 -0.1266
 6936TIP3    H242300   5.841   6.014   3.762  1.2298 -0.9844 -0.5263
 6937TIP3   OH242301   4.707   5.349   4.240  0.3131 -0.3586 -0.5150
 6937TIP3    H142302   4.628   5.313   4.282 -0.2785  1.5833  0.1407
 6937TIP3    H242303   4.678   5.374   4.152  0.5027 -0.7121 -0.6778
 6938TIP3   OH242304   0.162   3.395   6.820  0.0818 -0.1616  0.7047
 6938TIP3    H142305   0.179   3.303   6.802  1.9567  0.4447 -0.9068
 6938TIP3    H242306   0.110   3.425   6.746  1.0278  0.4877  0.2923
 6939TIP3   OH242307   0.087   4.660  16.706  0.3516 -0.3045 -0.3874
 6939TIP3    H142308   0.137   4.724  16.656 -0.1147  0.4394  0.0894
 6939TIP3    H242309   0.152   4.594  16.731  1.1348  0.7179  0.3398
 6940TIP3   OH242310   3.317   6.685  16.055  0.0174 -0.2965  0.5747
 6940TIP3    H142311   3.290   6.697  16.146  0.3037  2.2934  0.3719
 6940TIP3    H242312   3.405   6.724  16.051  0.0412 -0.4507 -0.7785
 6941TIP3   OH242313   5.914   3.557   3.768 -0.3664  0.6085 -0.2433
 6941TIP3    H142314   6.004   3.542   3.740 -0.9117 -1.8156 -0.8250
 6941TIP3    H242315   5.922   3.606   3.849  1.4568  0.7958 -0.5097
 6942TIP3   OH242316   1.239   4.620   2.264  0.4287 -0.0630  0.8272
 6942TIP3    H142317   1.334   4.627   2.263  0.3040  2.1358  0.5342
 6942TIP3    H242318   1.211   4.684   2.330 -0.8302 -0.9740  1.1982
 6943TIP3   OH242319   4.920   4.212  15.427 -0.2341  0.1491  0.2956
 6943TIP3    H142320   4.937   4.206  15.333  3.0771  0.2181  0.8585
 6943TIP3    H242321   4.826   4.228  15.433 -0.4513  0.3615 -3.0051
 6944TIP3   OH242322   1.440   0.358  17.260 -0.2805  0.4747 -0.3955
 6944TIP3    H142323   1.430   0.434  17.317  0.2345 -0.8447  1.4942
 6944TIP3    H242324   1.535   0.348  17.250 -0.2183 -1.9041  2.1357
 6945TIP3   OH242325   3.672   2.402  11.245  0.1268 -0.6435 -0.0090
 6945TIP3    H142326   3.614   2.417  11.171  0.7924  0.7579 -0.2740
 6945TIP3    H242327   3.614   2.378  11.317 -0.6320 -0.7664 -0.6583
 6946TIP3   OH242328   5.166   4.066  15.110 -0.3147 -0.3879  0.0288
 6946TIP3    H142329   5.142   3.980  15.144 -1.4856  0.0058  0.2321
 6946TIP3    H242330   5.197   4.114  15.187  0.1505 -0.5652 -0.0499
 6947TIP3   OH242331   3.926   4.741   2.066  0.3817 -0.5710  0.0974
 6947TIP3    H142332   3.963   4.739   2.155 -0.6302 -0.4959  0.5347
 6947TIP3    H242333   3.987   4.795   2.016 -0.4781  1.7231  1.4360
 6948TIP3   OH242334   5.020   1.658  14.491 -0.2740 -0.0612  0.4588
 6948TIP3    H142335   5.029   1.711  14.412  1.1786 -0.7427  0.1520
 6948TIP3    H242336   4.982   1.717  14.556 -1.3027  0.5503 -0.6936
 6949TIP3   OH242337   0.050   5.826   5.740  0.2598 -0.1222  0.1339
 6949TIP3    H142338   0.067   5.748   5.793  1.4938  0.2078  0.2510
 6949TIP3    H242339   0.001   5.793   5.664 -2.2229 -0.4546  1.8480
 6950TIP3   OH242340   3.807   1.471  16.271 -0.7915 -0.7343  0.4511
 6950TIP3    H142341   3.863   1.411  16.321 -0.3496  1.7695  3.0565
 6950TIP3    H242342   3.720   1.432  16.278 -0.3808 -1.5293  1.4208
 6951TIP3   OH242343   0.457   4.145  12.447 -0.0312 -0.3526  0.2058
 6951TIP3    H142344   0.467   4.056  12.480 -2.3068 -0.1930  1.4071
 6951TIP3    H242345   0.474   4.200  12.524  0.4012  0.2187 -0.2969
 6952TIP3   OH242346   1.386   3.527  13.193 -0.0039  0.0665  0.2156
 6952TIP3    H142347   1.301   3.550  13.156  0.1691  1.7640  0.7936
 6952TIP3    H242348   1.428   3.612  13.209  1.3956 -0.7325  0.8537
 6953TIP3   OH242349   5.898   1.041   2.020  0.0434 -0.2888 -0.5184
 6953TIP3    H142350   5.974   1.041   2.077  0.0603 -0.3557 -0.5416
 6953TIP3    H242351   5.842   0.972   2.054 -0.6504  0.6883  0.3619
 6954TIP3   OH242352   2.420   4.413  12.781 -0.1366 -0.4734  0.0606
 6954TIP3    H142353   2.431   4.467  12.703  1.4613  1.9046  1.8948
 6954TIP3    H242354   2.352   4.458  12.832 -1.0832 -1.9483  0.1437
 6955TIP3   OH242355   3.533   0.160   3.219 -0.0029 -0.1062 -0.5297
 6955TIP3    H142356   3.486   0.078   3.207 -0.2858  0.0947 -0.8064
 6955TIP3    H242357   3.491   0.221   3.159 -0.9289  0.7000  0.9221
 6956TIP3   OH242358   4.676   5.545  11.719  0.6366 -0.5104  0.7837
 6956TIP3    H142359   4.647   5.504  11.638  0.2794  2.3415 -0.6064
 6956TIP3    H242360   4.758   5.590  11.696 -1.0148  2.8746  1.1330
 6957TIP3   OH242361   6.057   0.554  15.370 -0.4314 -0.3779  0.8231
 6957TIP3    H142362   6.137   0.511  15.398  1.3832  2.0693 -0.4856
 6957TIP3    H242363   6.023   0.596  15.450 -0.1190 -0.9506  1.2592
 6958TIP3   OH242364   3.385   0.533   2.132  0.3719  0.3389 -0.5224
 6958TIP3    H142365   3.421   0.564   2.215  1.0574  0.0539 -0.7038
 6958TIP3    H242366   3.346   0.448   2.153 -0.6925  0.9011 -0.2123
 6959TIP3   OH242367   6.431   4.999  11.770  0.0845  0.2240 -0.0055
 6959TIP3    H142368   6.414   4.975  11.861  0.3895 -1.6976 -0.4488
 6959TIP3    H242369   6.370   5.071  11.753  0.6011  1.1625  1.9622
 6960TIP3   OH242370   5.673   0.018   5.884  0.3924 -0.7457 -0.2185
 6960TIP3    H142371   5.714  -0.009   5.966  0.1922 -0.1000  0.0963
 6960TIP3    H242372   5.607  -0.050   5.867 -0.4481 -0.2083  0.8260
 6961TIP3   OH242373   0.894   4.804   4.607  0.0619  0.2648  0.4682
 6961TIP3    H142374   0.967   4.824   4.549  0.7746  2.6490  2.1163
 6961TIP3    H242375   0.933   4.800   4.694 -1.6932  1.1233  1.3134
 6962TIP3   OH242376   6.187   3.905   0.794  0.2960 -0.5621  0.1699
 6962TIP3    H142377   6.276   3.904   0.829 -0.1689  0.8499  1.4636
 6962TIP3    H242378   6.154   3.992   0.817 -0.3765  0.0541 -2.9256
 6963TIP3   OH242379   5.049   0.703  16.958  0.4772  0.1069  0.0858
 6963TIP3    H142380   5.103   0.712  17.036 -1.0487  0.5511  1.1226
 6963TIP3    H242381   4.980   0.768  16.969 -1.1864 -1.5235 -0.3876
 6964TIP3   OH242382   4.652   0.796   5.403 -0.0268  0.2491 -0.5904
 6964TIP3    H142383   4.575   0.837   5.443 -0.3095 -1.7267  0.9668
 6964TIP3    H242384   4.616   0.735   5.339  0.2659  0.1351 -0.6445
 6965TIP3   OH242385   2.074   5.437   3.090 -0.2143  0.2253  0.0424
 6965TIP3    H142386   2.003   5.410   3.032 -0.9005 -0.9781  1.4278
 6965TIP3    H242387   2.139   5.476   3.031 -2.7579  3.0095 -1.0776
 6966TIP3   OH242388   5.133   0.133   5.759  0.2190 -0.2422 -0.0948
 6966TIP3    H142389   5.074   0.187   5.707  0.0839  0.6625  0.9784
 6966TIP3    H242390   5.096   0.135   5.848  1.0393 -0.8764  0.2677
 6967TIP3   OH242391   2.023   1.747  11.712 -0.1684  0.1802  0.2296
 6967TIP3    H142392   2.018   1.735  11.617  1.0933  2.5703 -0.1946
 6967TIP3    H242393   1.973   1.826  11.729 -0.1048 -0.0454  1.5196
 6968TIP3   OH242394   3.418   2.255   6.498 -0.0976 -0.8934  0.0304
 6968TIP3    H142395   3.379   2.301   6.572 -1.2829 -0.5326 -0.7844
 6968TIP3    H242396   3.343   2.238   6.439  0.8135 -1.1707 -1.0680
 6969TIP3   OH242397   1.866   0.307   3.177 -0.1642 -0.3327  0.0263
 6969TIP3    H142398   1.860   0.345   3.089 -2.7347  0.1512  0.3450
 6969TIP3    H242399   1.959   0.290   3.190  0.3188  0.0772 -2.5830
 6970TIP3   OH242400   6.405   0.108  13.538  0.0870  0.0554  0.1899
 6970TIP3    H142401   6.499   0.122  13.532 -0.0581  0.6126 -0.8869
 6970TIP3    H242402   6.370   0.146  13.457 -1.4816  3.1655  2.2451
 6971TIP3   OH242403   2.465   5.380  17.048  0.8906  0.1431  0.0315
 6971TIP3    H142404   2.488   5.414  17.134  1.4752  0.1041 -0.1112
 6971TIP3    H242405   2.494   5.448  16.987  2.1474 -0.6418 -0.2606
 6972TIP3   OH242406   3.148   3.196   3.922  0.7900 -0.2604 -0.6958
 6972TIP3    H142407   3.157   3.291   3.910  1.8215 -0.2827 -0.1252
 6972TIP3    H242408   3.099   3.187   4.004  2.4931 -0.2412  0.3356
 6973TIP3   OH242409   5.602   6.783  14.462 -0.1754 -0.5574 -0.2690
 6973TIP3    H142410   5.681   6.733  14.444 -1.1082 -1.8361 -0.9537
 6973TIP3    H242411   5.532   6.733  14.419 -0.7808  2.8606 -3.5767
 6974TIP3   OH242412   0.456   5.613   3.714  0.3456  0.4382  0.3372
 6974TIP3    H142413   0.427   5.668   3.787 -3.2083 -2.6059  1.3332
 6974TIP3    H242414   0.375   5.587   3.670  2.2404 -0.4928 -2.7309
 6975TIP3   OH242415   1.969   2.546  14.602  0.1204  0.3756 -0.2379
 6975TIP3    H142416   2.017   2.602  14.664 -1.1891  0.3325  0.8575
 6975TIP3    H242417   1.887   2.526  14.648 -0.8555  0.2941 -1.9834
 6976TIP3   OH242418   5.494   5.146   4.487 -0.1551 -0.7067 -0.2416
 6976TIP3    H142419   5.574   5.127   4.437  0.1441 -1.2235  0.4316
 6976TIP3    H242420   5.514   5.119   4.576 -1.0903 -0.8443 -0.0662
 6977TIP3   OH242421   5.338   4.550  13.587  0.3546  0.3833  0.1337
 6977TIP3    H142422   5.406   4.542  13.520  0.4739  0.9101  0.1869
 6977TIP3    H242423   5.293   4.466  13.585  1.1071 -0.0328  0.2049
 6978TIP3   OH242424   0.894   3.330   1.449 -0.1715  0.1066 -0.2546
 6978TIP3    H142425   0.852   3.298   1.369 -0.0475 -2.4450  0.6766
 6978TIP3    H242426   0.850   3.282   1.520  1.1396  0.8296  1.0693
 6979TIP3   OH242427   0.324   3.103  11.700 -0.3782 -0.7674  0.3852
 6979TIP3    H142428   0.342   3.061  11.784  0.9426 -1.4454 -0.2240
 6979TIP3    H242429   0.402   3.154  11.682 -1.6438  1.3147  0.7114
 6980TIP3   OH242430   0.271   3.722  13.532  0.3447  0.0781  0.2918
 6980TIP3    H142431   0.332   3.795  13.539  1.4630 -0.5778 -1.9329
 6980TIP3    H242432   0.326   3.644  13.546 -0.2870 -0.4488 -0.1345
 6981TIP3   OH242433   4.074   3.321  10.328 -0.1012 -0.1505 -0.6317
 6981TIP3    H142434   4.018   3.387  10.289 -0.0501 -0.0606 -0.5529
 6981TIP3    H242435   4.115   3.365  10.403  0.7907  0.0682 -1.2453
 6982TIP3   OH242436   2.019   4.286  12.873 -0.2212  0.0069  0.1118
 6982TIP3    H142437   1.959   4.307  12.944 -1.2202 -2.7512  0.1482
 6982TIP3    H242438   2.077   4.219  12.909  1.2344  0.7881 -0.7302
 6983TIP3   OH242439   3.405   1.258  15.251  0.0705  1.0057  0.1257
 6983TIP3    H142440   3.471   1.220  15.193 -0.1705 -1.8461  1.6258
 6983TIP3    H242441   3.324   1.213  15.228 -0.2064  0.4948  2.0421
 6984TIP3   OH242442   0.815   2.145  13.889 -0.0977 -0.2927  0.5970
 6984TIP3    H142443   0.732   2.174  13.929  0.7665  0.5556  1.8166
 6984TIP3    H242444   0.851   2.082  13.951 -0.0684 -1.0420 -0.1783
 6985TIP3   OH242445   6.674   2.874   1.609 -0.7261 -0.1384  0.7117
 6985TIP3    H142446   6.682   2.807   1.541  0.2331  0.0340  0.6534
 6985TIP3    H242447   6.617   2.834   1.675  0.4827 -1.3253  1.0460
 6986TIP3   OH242448   4.119   5.454  10.579 -0.1177  0.0681  0.1794
 6986TIP3    H142449   4.097   5.540  10.544  0.4301 -0.2418 -0.9565
 6986TIP3    H242450   4.043   5.400  10.557 -0.1646  0.0945  0.2766
 6987TIP3   OH242451   0.869   0.267  11.581  0.7726  0.2783  0.5140
 6987TIP3    H142452   0.921   0.261  11.661  1.7486  0.9538 -0.0565
 6987TIP3    H242453   0.910   0.203  11.522  1.4442  1.3440 -0.1983
 6988TIP3   OH242454   3.630   4.704  16.230  0.1817 -0.1192 -0.2143
 6988TIP3    H142455   3.658   4.706  16.321  0.3597 -0.2468 -0.2654
 6988TIP3    H242456   3.664   4.621  16.196  1.6515  0.7460 -0.8865
 6989TIP3   OH242457   2.901   1.543  12.157 -0.9858 -0.1362  0.0951
 6989TIP3    H142458   2.828   1.487  12.132  0.4015 -1.7988 -0.2899
 6989TIP3    H242459   2.904   1.538  12.252 -1.0134 -0.5142  0.0761
 6990TIP3   OH242460   3.129   4.933  12.062  0.2280 -0.3757  0.0781
 6990TIP3    H142461   3.096   4.884  12.137 -2.3900 -0.3757 -0.9976
 6990TIP3    H242462   3.218   4.901  12.048 -0.2320 -2.3222  1.5075
 6991TIP3   OH242463   1.351   0.043  11.842 -0.0199  0.1871  0.2074
 6991TIP3    H142464   1.301  -0.003  11.775  0.1956  0.7675 -0.3560
 6991TIP3    H242465   1.331  -0.003  11.923 -1.0332  0.0702 -0.1044
 6992TIP3   OH242466   0.384   1.624   1.648  0.5085  0.0072 -0.0667
 6992TIP3    H142467   0.339   1.691   1.597 -0.1456 -0.6157 -0.2982
 6992TIP3    H242468   0.470   1.616   1.606  0.4355  0.3867 -0.2961
 6993TIP3   OH242469   5.641   5.276   4.930 -0.2005  0.3828 -0.0891
 6993TIP3    H142470   5.713   5.335   4.908 -0.2543  1.0424  1.4419
 6993TIP3    H242471   5.566   5.334   4.947 -0.6403 -0.2010 -0.0004
 6994TIP3   OH242472   2.508   3.278  12.798  0.2563 -0.0201 -0.1964
 6994TIP3    H142473   2.417   3.307  12.801  0.4937  0.6250  1.1222
 6994TIP3    H242474   2.503   3.184  12.777 -0.7092  0.0185 -0.1490
 6995TIP3   OH242475   1.849   4.319   5.641 -0.0194 -0.4158 -0.2219
 6995TIP3    H142476   1.876   4.227   5.653 -1.5849 -0.7737  0.6814
 6995TIP3    H242477   1.860   4.358   5.728  1.7758  0.5854 -0.8662
 6996TIP3   OH242478   3.659   4.471   4.670 -0.4037 -0.4246  0.0937
 6996TIP3    H142479   3.565   4.484   4.656 -0.5624  0.6017  1.9081
 6996TIP3    H242480   3.700   4.509   4.593 -1.3920  1.0252  0.2562
 6997TIP3   OH242481   0.060   5.356   0.656  0.0478 -0.6216  0.4122
 6997TIP3    H142482  -0.023   5.389   0.690  0.8933  0.9133  1.0399
 6997TIP3    H242483   0.045   5.345   0.562 -0.0882  2.2754  0.0407
 6998TIP3   OH242484   0.772   4.411   5.280 -0.7147 -0.3285  0.0929
 6998TIP3    H142485   0.767   4.334   5.223 -1.5395  0.3319 -0.7616
 6998TIP3    H242486   0.684   4.420   5.316 -0.8382  0.6587 -0.4287
 6999TIP3   OH242487   5.511   4.480   5.405  0.4405 -0.1355  0.2104
 6999TIP3    H142488   5.582   4.524   5.360 -1.5114 -0.4452 -3.3677
 6999TIP3    H242489   5.441   4.545   5.409 -0.1784 -0.8335  0.8412
 7000TIP3   OH242490   0.354   2.304   2.243  0.3978  0.0834  0.1113
 7000TIP3    H142491   0.319   2.332   2.158 -0.5027 -1.2442  0.0376
 7000TIP3    H242492   0.442   2.343   2.246  0.4240  0.1866 -1.4107
 7001TIP3   OH242493   1.618   6.691  14.333  0.7292  0.4819 -0.0364
 7001TIP3    H142494   1.625   6.657  14.422  1.4761  1.3027  0.2234
 7001TIP3    H242495   1.527   6.672  14.307  0.6695 -0.2520  0.6874
 7002TIP3   OH242496   0.308   5.731   4.587 -0.3937 -0.4667 -0.4068
 7002TIP3    H142497   0.284   5.694   4.672 -0.5691 -0.3677 -0.4127
 7002TIP3    H242498   0.301   5.825   4.598  1.4490 -0.3756  0.0125
 7003TIP3   OH242499   2.487   6.668  11.921  0.6963  0.3099 -0.2508
 7003TIP3    H142500   2.441   6.590  11.953  1.3637 -0.1868 -0.4972
 7003TIP3    H242501   2.543   6.635  11.850  2.7580  0.6108  1.2031
 7004TIP3   OH242502   0.502   0.635  15.596 -0.1924  0.0187 -0.2073
 7004TIP3    H142503   0.451   0.682  15.662 -0.3565  0.5273 -0.6910
 7004TIP3    H242504   0.438   0.579  15.551  0.1865 -1.4765  1.0658
 7005TIP3   OH242505   0.616   4.824   3.181  0.3004 -0.0839 -0.0583
 7005TIP3    H142506   0.702   4.782   3.176  0.5031  0.2109  0.7964
 7005TIP3    H242507   0.607   4.870   3.097  0.2465 -1.4884 -0.8327
 7006TIP3   OH242508   5.226   1.023   1.533  0.6303 -0.2261  0.1249
 7006TIP3    H142509   5.282   1.083   1.484  2.3782 -1.2430  0.8546
 7006TIP3    H242510   5.198   1.074   1.610  0.8072  0.1664 -0.0698
 7007TIP3   OH242511   3.749   6.698  11.585 -0.9602  0.6973 -0.2163
 7007TIP3    H142512   3.685   6.732  11.646  0.0559 -0.0358  1.2865
 7007TIP3    H242513   3.834   6.714  11.627 -0.3083 -0.8251 -0.8969
 7008TIP3   OH242514   1.606   6.297   2.844 -0.5576 -0.3539 -0.2659
 7008TIP3    H142515   1.556   6.353   2.786 -0.1904 -0.1154 -0.3525
 7008TIP3    H242516   1.666   6.249   2.787 -2.1337 -2.2152 -0.4250
 7009TIP3   OH242517   2.479   4.822   5.005 -0.0398  0.2314 -0.8862
 7009TIP3    H142518   2.562   4.786   4.974 -0.8701 -0.6182 -2.1541
 7009TIP3    H242519   2.418   4.810   4.932 -1.7601 -0.8435  0.6875
 7010TIP3   OH242520   1.718   3.732  15.262  0.0906 -0.0864  0.1132
 7010TIP3    H142521   1.679   3.789  15.196 -0.7653 -0.7983 -0.0107
 7010TIP3    H242522   1.669   3.751  15.342 -0.5634 -1.0145 -0.0528
 7011TIP3   OH242523   1.182   5.842  12.577  0.2184  1.0649  0.2935
 7011TIP3    H142524   1.158   5.764  12.627 -0.3841  0.9791 -0.1167
 7011TIP3    H242525   1.255   5.881  12.625 -1.0886  1.6061  1.8771
 7012TIP3   OH242526   5.790   6.445   1.179 -0.0241 -0.0238 -0.1388
 7012TIP3    H142527   5.811   6.511   1.113 -1.4268  1.9536  1.3181
 7012TIP3    H242528   5.833   6.365   1.148  1.5620  1.5134 -2.0520
 7013TIP3   OH242529   6.765   5.201   2.798  0.3909  0.2538 -0.7468
 7013TIP3    H142530   6.684   5.167   2.837  2.1919 -0.5540  2.5169
 7013TIP3    H242531   6.800   5.128   2.747  0.8153 -0.5791  0.7122
 7014TIP3   OH242532   3.141   6.051  12.720 -0.2728  0.3277  0.1621
 7014TIP3    H142533   3.191   5.990  12.666 -2.4941  0.2384 -1.8817
 7014TIP3    H242534   3.137   6.131  12.668 -0.7600  0.8896  1.0596
 7015TIP3   OH242535   3.560   0.721   5.666  0.5092  0.2895  0.0705
 7015TIP3    H142536   3.643   0.675   5.669 -0.3173 -1.3299 -0.9685
 7015TIP3    H242537   3.583   0.812   5.648  2.0233 -0.2503 -0.8226
 7016TIP3   OH242538   5.785   5.226  11.011 -0.0234 -0.1331  0.6245
 7016TIP3    H142539   5.768   5.319  11.026  0.5562  0.3448 -1.5036
 7016TIP3    H242540   5.785   5.217  10.916 -1.0153 -2.5079  0.8277
 7017TIP3   OH242541   6.754   2.609  13.508  0.4742  0.1643  0.0670
 7017TIP3    H142542   6.776   2.529  13.554 -0.8738  0.4334  1.2232
 7017TIP3    H242543   6.830   2.666  13.519  1.4800 -0.9866 -0.8684
 7018TIP3   OH242544   2.670   1.806   6.624 -0.4652 -0.4014  0.2854
 7018TIP3    H142545   2.756   1.818   6.664 -0.3810  0.9156 -0.2896
 7018TIP3    H242546   2.609   1.814   6.697 -0.0872 -1.8417  0.7846
 7019TIP3   OH242547   1.918   3.331  11.025  0.7319 -0.3388  0.3676
 7019TIP3    H142548   1.888   3.355  10.937 -0.5109  3.0105  1.6053
 7019TIP3    H242549   2.012   3.347  11.024  0.7432 -0.4342 -0.3668
 7020TIP3   OH242550   4.017   1.983  12.286 -0.5515  0.0816  0.1252
 7020TIP3    H142551   4.100   1.943  12.261 -0.8342  0.3440 -1.2448
 7020TIP3    H242552   4.035   2.077  12.284  0.1808  0.0834  3.5589
 7021TIP3   OH242553   4.215   4.196   3.349  0.4775 -0.3162  0.0513
 7021TIP3    H142554   4.301   4.188   3.308  1.4904  0.4772  1.9408
 7021TIP3    H242555   4.217   4.281   3.393 -1.3298 -0.2313 -0.0011
 7022TIP3   OH242556   6.717   6.526   1.285  0.0783 -0.7383 -0.6258
 7022TIP3    H142557   6.663   6.576   1.347  1.9386  1.2028 -0.5131
 7022TIP3    H242558   6.800   6.514   1.331  0.8984 -0.7524 -2.1003
 7023TIP3   OH242559   1.346   3.975  15.697  0.9209  0.8739  0.3256
 7023TIP3    H142560   1.422   4.001  15.644  1.4463 -1.7776 -0.2919
 7023TIP3    H242561   1.383   3.917  15.764 -0.7001 -1.2083 -0.5778
 7024TIP3   OH242562   3.614   3.076   4.474  0.0406 -0.4351 -0.5004
 7024TIP3    H142563   3.622   3.117   4.560  0.6661 -0.9766 -0.2975
 7024TIP3    H242564   3.701   3.041   4.456 -0.7726 -2.6740 -0.1708
 7025TIP3   OH242565   6.803   4.516  17.251 -0.2632 -0.5106 -0.0307
 7025TIP3    H142566   6.808   4.436  17.200  0.2524  0.1085 -0.9585
 7025TIP3    H242567   6.712   4.522  17.279 -0.5326 -0.8597 -0.8565
 7026TIP3   OH242568   6.002   0.769  17.279 -0.1138 -0.0144 -0.1599
 7026TIP3    H142569   6.075   0.788  17.338 -0.3244  3.3454 -0.9146
 7026TIP3    H242570   6.044   0.757  17.193 -0.2700 -0.2398 -0.2042
 7027TIP3   OH242571   1.791   1.970   5.788  0.2836  0.2810  0.9416
 7027TIP3    H142572   1.843   2.019   5.852  1.2603 -0.6767  0.8988
 7027TIP3    H242573   1.850   1.901   5.757 -1.4516 -1.7016  1.8818
 7028TIP3   OH242574   5.050   4.036   3.109  0.5996 -0.0865  0.4830
 7028TIP3    H142575   5.040   4.001   3.197  1.4440  1.5976  1.2715
 7028TIP3    H242576   4.981   3.993   3.058 -0.2768 -0.6292  2.0985
 7029TIP3   OH242577   6.546   3.102   2.413  0.3299  0.3474 -0.4660
 7029TIP3    H142578   6.497   3.104   2.331 -1.5443  0.0983  0.6209
 7029TIP3    H242579   6.515   3.177   2.462 -0.0558 -0.6496  0.8497
 7030TIP3   OH242580   4.469   2.637   2.246  0.8414 -0.1354 -0.0476
 7030TIP3    H142581   4.387   2.655   2.292  0.7279 -0.5914 -0.0674
 7030TIP3    H242582   4.454   2.553   2.203  1.9221 -1.0614  1.3396
 7031TIP3   OH242583   2.888   6.260   5.311  0.3274  0.1893  0.5068
 7031TIP3    H142584   2.950   6.201   5.356  1.0659  0.7302  0.2196
 7031TIP3    H242585   2.816   6.270   5.373  0.8116  0.0322  1.1050
 7032TIP3   OH242586   6.405   4.258   2.937 -0.2291  0.2201  0.2883
 7032TIP3    H142587   6.357   4.340   2.948  1.0572  0.8285  1.4422
 7032TIP3    H242588   6.336   4.191   2.936 -1.1355  1.0776  1.9180
 7033TIP3   OH242589   0.852   0.841   2.047 -0.2360 -0.4802 -0.2038
 7033TIP3    H142590   0.792   0.807   2.112  1.4360 -1.7694  0.6986
 7033TIP3    H242591   0.800   0.847   1.967 -2.1282  0.4906  1.0611
 7034TIP3   OH242592   0.696   1.102   1.783  0.2386  0.4388  0.1662
 7034TIP3    H142593   0.702   1.007   1.795 -0.7578  0.3861  0.2718
 7034TIP3    H242594   0.698   1.137   1.872  1.3414  0.5670  0.0966
 7035TIP3   OH242595   6.109   6.749  17.074 -0.1531  0.8088  0.2785
 7035TIP3    H142596   6.082   6.841  17.080 -0.9731  0.6190 -0.3082
 7035TIP3    H242597   6.061   6.705  17.144 -0.2251  0.7297  0.1805
 7036TIP3   OH242598   5.690   0.256   4.195 -0.3162 -0.6094  0.9230
 7036TIP3    H142599   5.616   0.238   4.137  1.5163  0.3174 -1.7522
 7036TIP3    H242600   5.665   0.337   4.241  0.1465  1.2247 -1.9572
 7037TIP3   OH242601   1.572   1.686  14.294  0.7007 -0.0226 -0.2574
 7037TIP3    H142602   1.568   1.771  14.251  0.5571  0.5926  0.9536
 7037TIP3    H242603   1.483   1.650  14.285  0.6895  0.0770 -0.5317
 7038TIP3   OH242604   0.957   4.014   1.577  0.3748  0.2093 -0.6763
 7038TIP3    H142605   0.911   3.938   1.543  0.9833  0.2202 -1.5471
 7038TIP3    H242606   0.925   4.024   1.667  0.4298 -1.1816 -0.4957
 7039TIP3   OH242607   1.061   6.666   3.245 -0.0472 -0.3204  0.6539
 7039TIP3    H142608   1.016   6.678   3.329  0.9531 -1.8246  1.4257
 7039TIP3    H242609   1.126   6.597   3.262 -0.0638 -0.8858 -1.4425
 7040TIP3   OH242610   2.079   5.946  17.256 -0.5143  0.4369  0.6852
 7040TIP3    H142611   2.161   5.906  17.226 -0.0342  0.5101  1.8987
 7040TIP3    H242612   2.070   6.025  17.201  0.4095  0.6256  0.7938
 7041TIP3   OH242613   3.522   5.014  15.766  0.9944 -0.4163  0.5460
 7041TIP3    H142614   3.454   5.081  15.775  1.3822  0.0480  0.0515
 7041TIP3    H242615   3.592   5.057  15.716  1.7496 -0.8210  1.2396
 7042TIP3   OH242616   5.998   3.342   4.850  0.1811  0.6182 -0.1786
 7042TIP3    H142617   5.964   3.294   4.775  0.7662  1.0513 -0.7277
 7042TIP3    H242618   6.025   3.274   4.912 -0.8288  0.2649 -0.1116
 7043TIP3   OH242619   5.068   4.514   1.962  0.1985 -0.0032 -0.3155
 7043TIP3    H142620   5.115   4.598   1.959  0.7789 -0.3265 -0.3378
 7043TIP3    H242621   5.077   4.485   2.053 -0.8109  0.4128 -0.0775
 7044TIP3   OH242622   0.067   3.149  17.082  0.0089 -0.4998 -0.3651
 7044TIP3    H142623  -0.010   3.201  17.104  0.4064  0.8482 -2.0573
 7044TIP3    H242624   0.052   3.120  16.992  1.1676 -0.7477 -0.4940
 7045TIP3   OH242625   6.006   0.985  13.125 -0.1129 -0.7167  1.3594
 7045TIP3    H142626   6.027   1.075  13.104  0.1621 -0.7760  1.3829
 7045TIP3    H242627   5.944   0.958  13.057  1.3154 -1.1313  0.1948
 7046TIP3   OH242628   2.891   1.117  12.248 -0.1747  0.2009  0.3723
 7046TIP3    H142629   2.946   1.042  12.274  0.1985  0.9934  1.9456
 7046TIP3    H242630   2.952   1.190  12.241 -0.5976  0.4470 -0.7989
 7047TIP3   OH242631   5.753   0.803  12.540  0.0388 -0.1253  0.0213
 7047TIP3    H142632   5.683   0.868  12.545 -1.5706 -1.6878 -1.3417
 7047TIP3    H242633   5.710   0.720  12.563  1.0163 -1.3778 -2.4061
 7048TIP3   OH242634   6.470   3.762   1.469  0.3006  0.0296  0.7249
 7048TIP3    H142635   6.535   3.833   1.466 -0.5121  0.7171 -1.9319
 7048TIP3    H242636   6.484   3.714   1.388 -0.9635 -1.2418  1.2480
 7049TIP3   OH242637   3.764   6.077   4.876  0.2299  0.3146  0.1805
 7049TIP3    H142638   3.788   6.158   4.921  1.9073  0.6679 -1.2893
 7049TIP3    H242639   3.832   6.015   4.901  0.1129 -0.0303 -0.3501
 7050TIP3   OH242640   6.583   6.170   4.837 -0.4933 -0.1061 -0.1804
 7050TIP3    H142641   6.591   6.131   4.750  0.4430  0.0468 -0.1660
 7050TIP3    H242642   6.489   6.169   4.855 -0.8539  1.2121 -1.8295
 7051TIP3   OH242643   0.626   5.463   4.834 -0.0389  0.1932 -0.5095
 7051TIP3    H142644   0.684   5.444   4.760 -1.5251 -3.7815 -0.7645
 7051TIP3    H242645   0.617   5.380   4.879 -1.5684  1.8906  2.4548
 7052TIP3   OH242646   4.972   1.121   3.476 -0.2195  0.4034 -0.6554
 7052TIP3    H142647   4.920   1.134   3.555 -0.2473  1.2170 -0.7960
 7052TIP3    H242648   5.060   1.148   3.501 -0.2357  0.6943 -0.9018
 7053TIP3   OH242649   4.689   0.986   1.835 -0.0336  0.3794  0.0813
 7053TIP3    H142650   4.775   0.953   1.862 -0.4361 -0.4976  0.2998
 7053TIP3    H242651   4.702   1.017   1.746  0.9154  1.7934  0.6843
 7054TIP3   OH242652   0.259   4.189   1.777  0.0260 -0.0957  0.5465
 7054TIP3    H142653   0.315   4.240   1.835  2.1763  0.7993 -2.1708
 7054TIP3    H242654   0.284   4.098   1.792  1.9044  0.2573 -0.2635
 7055TIP3   OH242655   6.033   4.123   3.302  0.5219 -0.4579  0.0378
 7055TIP3    H142656   6.110   4.168   3.335 -0.2629  2.1434 -1.5458
 7055TIP3    H242657   5.965   4.190   3.296 -0.5586 -1.6787 -2.8425
 7056TIP3   OH242658   1.864   6.663   3.616  0.2068 -0.3740 -0.3770
 7056TIP3    H142659   1.873   6.594   3.550 -5.0778 -1.0557 -0.6094
 7056TIP3    H242660   1.875   6.744   3.567  0.2484 -0.9476 -1.3318
 7057TIP3   OH242661   4.383   0.625   6.220  0.2514  0.0548  0.0020
 7057TIP3    H142662   4.430   0.608   6.302  0.3270  0.4540  0.0461
 7057TIP3    H242663   4.450   0.618   6.152  0.8152  2.6117  0.2508
 7058TIP3   OH242664   0.026   5.365  12.901  0.1492  0.0891  0.0529
 7058TIP3    H142665   0.035   5.460  12.896  0.3216  0.1120  0.7798
 7058TIP3    H242666   0.113   5.334  12.923  0.7973 -0.4723 -3.0294
 7059TIP3   OH242667   1.484   5.901   3.036 -0.3262 -0.6255  0.2798
 7059TIP3    H142668   1.530   5.963   3.092  0.7364 -1.4909  0.3828
 7059TIP3    H242669   1.550   5.871   2.974 -1.1602 -0.6796 -0.6079
 7060TIP3   OH242670   4.895   1.230   0.704  0.0901  0.2356 -0.2184
 7060TIP3    H142671   4.911   1.147   0.748 -0.2054  0.1032 -0.3594
 7060TIP3    H242672   4.976   1.246   0.654  0.4931  0.4736  0.4982
 7061TIP3   OH242673   6.499   3.137   4.677 -0.3672 -0.2628 -0.7425
 7061TIP3    H142674   6.557   3.173   4.609 -0.7519 -4.2394 -3.3562
 7061TIP3    H242675   6.413   3.136   4.635 -1.4984  1.2636  1.4588
 7062TIP3   OH242676   2.518   0.754   0.278  0.3185 -0.1742  0.1521
 7062TIP3    H142677   2.517   0.659   0.283 -1.0443 -0.1803  0.0256
 7062TIP3    H242678   2.535   0.782   0.368 -1.0985 -0.5397  0.5612
 7063TIP3   OH242679   1.208   4.977  12.420  0.8281  0.1704 -0.5811
 7063TIP3    H142680   1.234   4.946  12.507  0.3963  1.5660  0.0546
 7063TIP3    H242681   1.254   5.060  12.409  1.5397 -0.3804 -2.0487
 7064TIP3   OH242682   0.904   2.111   6.329 -0.0944  0.1534 -0.3734
 7064TIP3    H142683   0.898   2.017   6.349 -0.0599  0.4589  1.1435
 7064TIP3    H242684   0.835   2.126   6.265 -1.2297 -0.5881  0.6402
 7065TIP3   OH242685   1.174   3.393  15.769 -0.2799 -0.2701 -0.0219
 7065TIP3    H142686   1.141   3.304  15.784  0.0642 -0.8061 -2.2401
 7065TIP3    H242687   1.250   3.400  15.827 -2.7476  0.1144  3.3185
 7066TIP3   OH242688   0.764   3.542   4.209 -0.1179  0.6189  0.3058
 7066TIP3    H142689   0.698   3.610   4.196 -1.3717 -0.8330 -1.0916
 7066TIP3    H242690   0.834   3.586   4.257 -1.4689  2.5559  0.5632
 7067TIP3   OH242691   3.600   1.449   5.458  0.2336 -0.2734 -0.7222
 7067TIP3    H142692   3.533   1.493   5.509  0.7804  0.9830 -1.0811
 7067TIP3    H242693   3.551   1.397   5.394 -0.4259 -1.0921  0.4306
 7068TIP3   OH242694   6.041   6.080  13.568  0.7599 -0.2888  0.5507
 7068TIP3    H142695   6.037   6.171  13.598  1.7148  0.1793 -0.6891
 7068TIP3    H242696   6.134   6.059  13.571  0.6980 -0.7415 -0.5786
 7069TIP3   OH242697   3.310   3.858  16.697 -0.2466  0.1685  0.2795
 7069TIP3    H142698   3.229   3.828  16.740  1.4285 -3.3393  1.1359
 7069TIP3    H242699   3.349   3.918  16.760 -1.2693  0.4918  0.6289
 7070TIP3   OH242700   4.309   0.920  11.177 -0.2867 -0.1358 -0.3825
 7070TIP3    H142701   4.287   0.889  11.089 -0.6007  0.9406 -0.6974
 7070TIP3    H242702   4.226   0.952  11.213 -0.3652 -1.5069  0.7119
 7071TIP3   OH242703   5.949   3.359   0.211 -0.0291 -0.5086 -0.1500
 7071TIP3    H142704   5.893   3.284   0.229 -1.5196  0.6480  0.1912
 7071TIP3    H242705   5.902   3.408   0.143 -0.8245  1.8756  2.0025
 7072TIP3   OH242706   4.172   1.148  10.851 -0.1229  0.7338  0.2250
 7072TIP3    H142707   4.256   1.119  10.887 -1.3985 -1.5551  1.4839
 7072TIP3    H242708   4.190   1.161  10.757  1.4048 -0.7108  0.2826
 7073TIP3   OH242709   3.069   5.763  11.066  0.3353  0.7697 -0.2443
 7073TIP3    H142710   3.094   5.680  11.026 -0.8955 -0.4854  1.5277
 7073TIP3    H242711   3.017   5.807  10.998 -1.2355 -1.0625 -0.2790
 7074TIP3   OH242712   5.308   1.399   2.276 -0.1135 -0.7567  0.2471
 7074TIP3    H142713   5.365   1.447   2.216  0.4362 -2.1363 -0.3557
 7074TIP3    H242714   5.220   1.430   2.255  0.2916  0.5529  0.4091
 7075TIP3   OH242715   4.097   2.598  16.244  0.5809 -0.3064  0.0981
 7075TIP3    H142716   4.021   2.643  16.209  2.5234  1.8408 -1.5381
 7075TIP3    H242717   4.111   2.637  16.330  0.2809 -0.1724  0.0843
 7076TIP3   OH242718   3.615   3.532  12.902 -0.3656 -1.0609  0.1135
 7076TIP3    H142719   3.590   3.569  12.817  1.2018 -1.0703 -0.3733
 7076TIP3    H242720   3.595   3.601  12.965 -0.3025 -0.5423 -0.4236
 7077TIP3   OH242721   4.937   0.963  14.466 -0.3617  0.1528 -0.5268
 7077TIP3    H142722   4.936   1.045  14.516 -0.5551 -0.3063  0.2420
 7077TIP3    H242723   4.869   0.975  14.399 -2.2501 -0.3557  1.2299
 7078TIP3   OH242724   2.999   6.718   0.459  0.1506  0.1108 -0.1473
 7078TIP3    H142725   2.939   6.729   0.385  1.8836  2.3978 -1.3083
 7078TIP3    H242726   3.062   6.653   0.429  0.2192  0.2402 -0.2880
 7079TIP3   OH242727   1.784   2.810  16.042  0.2638  0.3341 -0.3778
 7079TIP3    H142728   1.733   2.761  15.978 -1.0659  0.1713  0.7788
 7079TIP3    H242729   1.872   2.773  16.037 -0.0832 -0.3567 -1.3872
 7080TIP3   OH242730   1.573   2.153   2.257 -0.2297 -0.1171  0.1869
 7080TIP3    H142731   1.501   2.141   2.194 -0.4530  0.2159  0.3766
 7080TIP3    H242732   1.621   2.228   2.224 -0.3471  0.0582  0.4162
 7081TIP3   OH242733   6.131   3.757   5.758  0.4389 -0.5152 -0.2371
 7081TIP3    H142734   6.076   3.681   5.777 -0.0325 -0.4252 -1.1888
 7081TIP3    H242735   6.194   3.760   5.830 -2.1518  0.6663  2.0076
 7082TIP3   OH242736   4.192   4.809   0.613  0.1834  0.0488 -0.6463
 7082TIP3    H142737   4.285   4.788   0.624  0.2349  0.6168  0.0794
 7082TIP3    H242738   4.161   4.750   0.545  1.0130 -0.3392 -0.6862
 7083TIP3   OH242739   3.219   5.332  12.817  0.2484  0.5253 -0.2727
 7083TIP3    H142740   3.161   5.374  12.881 -0.8809  1.7130 -2.0134
 7083TIP3    H242741   3.163   5.268  12.773  1.0886 -0.4741  0.1153
 7084TIP3   OH242742   4.972   4.086   2.253 -0.1300 -0.1375  0.4612
 7084TIP3    H142743   4.924   4.072   2.335 -2.1400 -0.9131 -0.8203
 7084TIP3    H242744   4.990   3.999   2.219 -0.5997  0.1802 -0.6473
 7085TIP3   OH242745   0.680   5.430  12.449  0.1220 -0.4660  0.1841
 7085TIP3    H142746   0.687   5.366  12.378  2.1114 -0.6559  0.5341
 7085TIP3    H242747   0.596   5.474  12.433 -0.4146 -1.9031 -1.0998
 7086TIP3   OH242748   3.003   6.035   0.667  0.0328  0.9499  0.2708
 7086TIP3    H142749   2.958   5.966   0.617  1.5259  0.9266 -1.0929
 7086TIP3    H242750   3.010   6.000   0.756 -1.5205  0.4388  0.2126
 7087TIP3   OH242751   6.736   3.888  17.291 -0.1090  0.0855 -0.4980
 7087TIP3    H142752   6.691   3.945  17.353 -2.9482 -2.9459  0.4167
 7087TIP3    H242753   6.793   3.833  17.346  0.8859  0.4742 -1.1199
 7088TIP3   OH242754   3.117   3.125   2.490  0.4065 -0.2032  0.7047
 7088TIP3    H142755   3.117   3.129   2.585  2.0553  1.0910  0.6776
 7088TIP3    H242756   3.068   3.202   2.463 -1.4283 -1.4206  0.5083
 7089TIP3   OH242757   1.735   2.272   6.147  0.0148 -0.4620 -0.2313
 7089TIP3    H142758   1.753   2.324   6.225 -1.7561 -2.3454  1.4819
 7089TIP3    H242759   1.647   2.301   6.119  0.3043 -0.3640 -1.0667
 7090TIP3   OH242760   6.246   6.435   1.036  0.0981  0.1002  0.4832
 7090TIP3    H142761   6.218   6.392   1.117  2.1652  1.1219  1.7644
 7090TIP3    H242762   6.292   6.367   0.987  0.0559 -0.1381  0.7786
 7091TIP3   OH242763   6.247   0.026   2.848  0.2539  0.2901 -0.2518
 7091TIP3    H142764   6.187   0.008   2.920  0.6292  2.3822  0.6213
 7091TIP3    H242765   6.323  -0.029   2.865  0.8488  1.6476  1.6482
 7092TIP3   OH242766   5.277   3.985  11.436 -0.6535  0.4267 -0.0398
 7092TIP3    H142767   5.271   3.923  11.509  0.1717 -1.6131 -1.6568
 7092TIP3    H242768   5.344   4.048  11.463  0.8299 -1.2504  0.3152
 7093TIP3   OH242769   3.667   0.714  12.248  0.0703  0.0873  0.0923
 7093TIP3    H142770   3.682   0.808  12.259  3.8915 -0.4103 -0.4017
 7093TIP3    H242771   3.716   0.673  12.319 -1.0289 -1.5843 -0.0843
 7094TIP3   OH242772   2.980   2.756  15.118  0.3308  0.1092 -0.1056
 7094TIP3    H142773   2.912   2.815  15.151 -0.6363  0.0846 -1.9985
 7094TIP3    H242774   3.060   2.810  15.119 -0.5540  1.5080 -1.8778
 7095TIP3   OH242775   1.754   4.478   4.528 -0.0853 -0.1766  1.1046
 7095TIP3    H142776   1.733   4.391   4.494  1.6298  1.1609 -3.7013
 7095TIP3    H242777   1.847   4.475   4.548 -0.3551  0.1364  2.5456
 7096TIP3   OH242778   5.239   6.450   4.063  0.0422  0.6607 -0.0036
 7096TIP3    H142779   5.157   6.461   4.111  0.9031  0.7270  1.4759
 7096TIP3    H242780   5.217   6.470   3.972 -2.1792 -1.8606 -0.0862
 7097TIP3   OH242781   1.031   4.437  12.334 -0.1077 -0.0970 -0.2608
 7097TIP3    H142782   1.029   4.515  12.389  1.8320 -0.2162 -0.0112
 7097TIP3    H242783   1.114   4.443  12.286 -0.4416 -1.4558 -1.0471
 7098TIP3   OH242784   3.859   3.580  12.606 -0.3132  0.3585 -0.3453
 7098TIP3    H142785   3.767   3.608  12.614 -0.1621  1.2045 -1.4137
 7098TIP3    H242786   3.858   3.512  12.539 -0.4795 -1.2855  1.2891
 7099TIP3   OH242787   0.855   1.926  13.666 -0.3126  0.2829 -0.3576
 7099TIP3    H142788   0.848   1.846  13.718  2.3581 -0.4437 -1.0361
 7099TIP3    H242789   0.775   1.928  13.614 -0.9657 -1.3188  0.5583
 7100TIP3   OH242790   0.859   4.103   2.679  0.2009 -0.1465  0.2270
 7100TIP3    H142791   0.937   4.132   2.726  1.1600  0.0475 -1.4085
 7100TIP3    H242792   0.805   4.181   2.672 -0.4319 -0.4329  1.9218
 7101TIP3   OH242793   1.184   6.099  12.055 -0.0578  0.3196 -0.3698
 7101TIP3    H142794   1.187   6.188  12.091 -0.9255  0.2701 -0.1681
 7101TIP3    H242795   1.187   6.112  11.960 -1.4009  0.6344 -0.3840
 7102TIP3   OH242796   3.294   5.362  15.579  0.3227  0.3777 -0.4643
 7102TIP3    H142797   3.363   5.397  15.522  0.1948  2.5987  0.6741
 7102TIP3    H242798   3.241   5.438  15.602 -0.7901 -0.8146  1.0202
 7103TIP3   OH242799   1.408   6.298   4.476 -0.0428  0.2616 -0.2046
 7103TIP3    H142800   1.350   6.280   4.551  0.4870  0.6763  0.3095
 7103TIP3    H242801   1.472   6.227   4.477 -0.2904  0.0321 -0.5256
 7104TIP3   OH242802   3.673   5.380  16.468  0.3267  0.0128 -0.2388
 7104TIP3    H142803   3.695   5.366  16.561 -1.6301 -2.6033 -0.1301
 7104TIP3    H242804   3.659   5.475  16.462 -0.6786  0.1044  2.4353
 7105TIP3   OH242805   4.788   3.492  14.853  0.4176  0.6803 -0.6256
 7105TIP3    H142806   4.739   3.522  14.930 -2.0045 -0.5710 -1.6326
 7105TIP3    H242807   4.761   3.552  14.783 -0.2436 -0.4844 -1.3669
 7106TIP3   OH242808   5.058   5.877  16.715  0.4946  0.0715 -0.0833
 7106TIP3    H142809   5.060   5.818  16.791 -1.9394  0.7307  0.5229
 7106TIP3    H242810   5.132   5.935  16.729  0.6971 -0.4700  1.2688
 7107TIP3   OH242811   0.750   1.128  12.690  0.5853  0.1359  0.2256
 7107TIP3    H142812   0.805   1.190  12.643  0.4254  0.2088  0.1317
 7107TIP3    H242813   0.662   1.143  12.655  0.2751  0.9697  1.3438
 7108TIP3   OH242814   6.733   3.792  15.760 -0.2022 -0.6228 -0.5322
 7108TIP3    H142815   6.783   3.801  15.679 -0.7246 -2.2442 -1.0627
 7108TIP3    H242816   6.780   3.845  15.824  2.5448 -2.5614 -0.8728
 7109TIP3   OH242817   0.325   3.068   1.697  0.1310  0.7604 -0.4349
 7109TIP3    H142818   0.279   3.139   1.740 -0.8700  0.0397 -0.2939
 7109TIP3    H242819   0.269   2.991   1.710  1.4755 -0.1796 -0.0592
 7110TIP3   OH242820   1.282   4.111  12.335 -0.2751 -0.2864  0.0633
 7110TIP3    H142821   1.233   4.052  12.278  0.9533 -1.6540  0.3913
 7110TIP3    H242822   1.299   4.188  12.281  1.5151 -1.8691 -1.6704
 7111TIP3   OH242823   1.256   0.100   3.302  0.4891  0.0593  0.4392
 7111TIP3    H142824   1.168   0.103   3.341  0.1482  0.1823 -0.3286
 7111TIP3    H242825   1.286   0.011   3.316 -1.2711 -1.0548 -2.5811
 7112TIP3   OH242826   2.350   5.049   3.777  0.7015  0.1883 -0.2736
 7112TIP3    H142827   2.429   4.994   3.778  0.5493 -0.2126 -3.4164
 7112TIP3    H242828   2.382   5.137   3.798  1.7307 -0.2719  0.1287
 7113TIP3   OH242829   6.476   0.501  13.992  0.5347 -0.0351  0.2717
 7113TIP3    H142830   6.447   0.413  13.971  1.8546 -0.4940  0.3159
 7113TIP3    H242831   6.571   0.499  13.979  0.8299  0.8456  2.0955
 7114TIP3   OH242832   1.081   0.011  12.320  0.0624 -0.2919  0.1586
 7114TIP3    H142833   0.994   0.031  12.285  0.1021 -0.8116 -0.2358
 7114TIP3    H242834   1.071   0.019  12.415 -0.1832  0.5761  0.0690
 7115TIP3   OH242835   4.713   4.420  13.148 -0.5239 -0.0469 -0.0909
 7115TIP3    H142836   4.692   4.413  13.055 -1.3546  0.9345  0.0148
 7115TIP3    H242837   4.662   4.350  13.189 -1.5409  0.6394 -0.1640
 7116TIP3   OH242838   4.076   5.914   2.590 -0.1528 -0.8090 -0.0825
 7116TIP3    H142839   4.057   5.839   2.533  1.2262 -1.2408 -0.0063
 7116TIP3    H242840   4.048   5.886   2.677 -1.5524 -0.4399 -0.4013
 7117TIP3   OH242841   3.547   6.552   6.085  1.3668  0.5832  0.0706
 7117TIP3    H142842   3.583   6.592   6.164  2.2877  1.5749 -0.8494
 7117TIP3    H242843   3.612   6.487   6.059  1.0670  0.2629  0.1047
 7118TIP3   OH242844   6.329   0.242  13.304 -0.1384  0.2559  0.4409
 7118TIP3    H142845   6.255   0.255  13.245 -2.0023 -0.2667  2.6058
 7118TIP3    H242846   6.399   0.208  13.248 -0.9410  2.4704 -1.9612
 7119TIP3   OH242847   5.832   2.590   1.564  0.1772  0.0603  0.2301
 7119TIP3    H142848   5.914   2.617   1.523  2.4204 -1.6532  3.3884
 7119TIP3    H242849   5.820   2.651   1.636 -1.2582  0.2088 -0.1260
 7120TIP3   OH242850   0.821   5.464   4.638 -0.9070  0.3841 -0.2322
 7120TIP3    H142851   0.820   5.401   4.566 -1.1134  0.6408 -0.4570
 7120TIP3    H242852   0.871   5.538   4.605  2.1602 -0.9778  1.1766
 7121TIP3   OH242853   3.958   2.246   0.970  0.1028  0.3075  0.4763
 7121TIP3    H142854   4.052   2.250   0.989  0.0931  0.5989  0.4500
 7121TIP3    H242855   3.952   2.245   0.875  0.1108 -0.3746  0.4798
 7122TIP3   OH242856   3.719   3.173  12.051 -0.4280 -0.1626  0.2110
 7122TIP3    H142857   3.722   3.079  12.067  0.2959 -0.4507 -1.4710
 7122TIP3    H242858   3.717   3.213  12.138 -1.4485 -1.7520  0.9231
 7123TIP3   OH242859   4.177   0.484   0.516 -0.0095 -0.3100  0.3264
 7123TIP3    H142860   4.206   0.454   0.430 -0.1739 -0.4944  0.3348
 7123TIP3    H242861   4.104   0.426   0.538 -0.6631  0.4118  0.1177
 7124TIP3   OH242862   0.338   6.121  16.897 -0.1958 -0.3210 -0.1691
 7124TIP3    H142863   0.288   6.130  16.816 -1.2239 -0.6972  0.4224
 7124TIP3    H242864   0.428   6.144  16.872 -0.4060 -0.9288 -1.5221
 7125TIP3   OH242865   4.641   6.579   6.527 -0.7258  0.6433  0.4919
 7125TIP3    H142866   4.589   6.643   6.575  2.0616  2.7810  0.8035
 7125TIP3    H242867   4.688   6.630   6.461  0.0139 -1.3815 -0.6079
 7126TIP3   OH242868   3.864   3.072   1.011  0.0224  0.0377 -0.1204
 7126TIP3    H142869   3.930   3.095   1.077  0.4654 -3.4837  0.7400
 7126TIP3    H242870   3.905   3.096   0.927  1.7067 -0.4887  0.5277
 7127TIP3   OH242871   5.483   0.102  14.022 -0.0689  0.1295 -0.0918
 7127TIP3    H142872   5.432   0.109  14.103  0.4149 -1.0112  0.3357
 7127TIP3    H242873   5.423   0.061  13.960 -0.2805  0.5456 -0.1637
 7128TIP3   OH242874   5.978   3.874  11.636 -0.3683 -0.0014  0.0221
 7128TIP3    H142875   5.902   3.932  11.638 -0.3313  0.0227  0.6138
 7128TIP3    H242876   5.955   3.809  11.569 -1.0714 -0.2170  0.4673
 7129TIP3   OH242877   5.765   1.050  16.188  0.1979 -0.3660  0.1964
 7129TIP3    H142878   5.773   1.036  16.282  0.6682 -0.7810  0.0976
 7129TIP3    H242879   5.839   1.003  16.150  1.7309  2.2699 -0.1726
 7130TIP3   OH242880   5.903   6.453  13.320 -0.5420 -0.6767  0.9223
 7130TIP3    H142881   5.884   6.421  13.233 -1.3487 -1.0545  1.2414
 7130TIP3    H242882   5.999   6.464  13.321 -0.6482  0.5807 -0.4320
 7131TIP3   OH242883   4.766   6.603   4.609 -0.4719  0.1549  0.1405
 7131TIP3    H142884   4.784   6.540   4.539 -0.6449 -0.7910  0.9450
 7131TIP3    H242885   4.821   6.678   4.587  0.8139 -0.8244 -0.0584
 7132TIP3   OH242886   3.297   2.459   2.585  0.0740  0.2111 -0.0221
 7132TIP3    H142887   3.363   2.406   2.629 -0.8064  0.9544  2.3032
 7132TIP3    H242888   3.263   2.403   2.516  1.0607 -1.2596  0.6550
 7133TIP3   OH242889   6.079   1.536   2.956  0.5065 -0.6761 -0.2671
 7133TIP3    H142890   6.093   1.457   3.008 -1.2263 -0.1701  1.0045
 7133TIP3    H242891   5.985   1.553   2.963  0.7196  0.9875 -1.2702
 7134TIP3   OH242892   2.829   3.147  11.888  0.0754 -0.1113  0.7164
 7134TIP3    H142893   2.884   3.069  11.884  0.4262  0.0237  2.4178
 7134TIP3    H242894   2.788   3.152  11.802  0.5804 -1.7762  0.3581
 7135TIP3   OH242895   0.551   5.353  16.722 -0.2694 -0.0961  0.0659
 7135TIP3    H142896   0.487   5.367  16.791 -0.1066  0.3793  0.1189
 7135TIP3    H242897   0.592   5.269  16.743  0.6935  0.6616  1.2756
 7136TIP3   OH242898   1.639   2.128  10.355 -0.1146  0.1679  0.6239
 7136TIP3    H142899   1.569   2.157  10.295 -0.7857  0.4181  1.5212
 7136TIP3    H242900   1.594   2.073  10.419  0.7296 -0.6856  0.4825
 7137TIP3   OH242901   2.308   1.501   3.581 -0.6255  0.3658 -0.2980
 7137TIP3    H142902   2.241   1.551   3.534 -0.0789  0.4524 -1.0090
 7137TIP3    H242903   2.296   1.411   3.552 -0.2479  0.4292 -0.6788
 7138TIP3   OH242904   2.484   5.350   5.808  0.5581 -0.4741  0.1792
 7138TIP3    H142905   2.526   5.331   5.892  1.2090 -4.1102 -0.8647
 7138TIP3    H242906   2.556   5.351   5.745 -0.1352  0.3939 -0.6134
 7139TIP3   OH242907   5.536   0.760   3.131 -0.1472 -0.4710  0.2236
 7139TIP3    H142908   5.602   0.750   3.200 -0.0173 -0.5587  0.0865
 7139TIP3    H242909   5.586   0.755   3.049 -0.2361  0.1144  0.1326
 7140TIP3   OH242910   4.923   1.480   3.176  0.0285  0.1459  0.4800
 7140TIP3    H142911   4.906   1.386   3.170 -1.0674  0.1047  3.2806
 7140TIP3    H242912   4.966   1.491   3.261  0.7370  2.1018 -0.1050
 7141TIP3   OH242913   5.530   3.214   5.941  0.1338 -0.0224 -0.1627
 7141TIP3    H142914   5.622   3.203   5.966 -0.3385 -0.9810  1.2297
 7141TIP3    H242915   5.481   3.174   6.013 -1.3335 -1.0418 -1.6900
 7142TIP3   OH242916   6.301   2.443   1.496  0.3461 -0.2260 -0.1142
 7142TIP3    H142917   6.306   2.509   1.565 -0.4339 -0.1413 -0.1291
 7142TIP3    H242918   6.293   2.360   1.543  0.5605 -0.2409 -0.1015
 7143TIP3   OH242919   4.979   4.779   4.635 -0.5577  0.0620  0.0932
 7143TIP3    H142920   4.894   4.772   4.593 -0.4932 -0.6596  0.0754
 7143TIP3    H242921   5.011   4.689   4.640 -0.5581  0.1344  1.6583
 7144TIP3   OH242922   6.201   5.416  13.093 -0.9284 -0.1612  0.6673
 7144TIP3    H142923   6.138   5.344  13.101  0.0353 -1.0786  0.2601
 7144TIP3    H242924   6.148   5.494  13.083 -2.0030 -0.8788  0.6993
 7145TIP3   OH242925   0.647   4.153  15.640 -0.9200 -0.0802  0.0405
 7145TIP3    H142926   0.640   4.242  15.677  0.9493  0.5262 -0.9707
 7145TIP3    H242927   0.614   4.162  15.551  1.6202  0.2122 -0.9116
 7146TIP3   OH242928   5.895   2.453   2.920  0.4491  0.2367 -0.3779
 7146TIP3    H142929   5.937   2.430   3.003 -0.1716 -0.0487 -0.1386
 7146TIP3    H242930   5.830   2.385   2.907 -0.4749  1.1069 -0.3434
 7147TIP3   OH242931   0.022   1.238  13.702 -0.0593  0.7269  0.2094
 7147TIP3    H142932  -0.068   1.249  13.670  0.0703  0.3333 -0.3012
 7147TIP3    H242933   0.026   1.147  13.730 -0.1731  1.0757  1.3736
 7148TIP3   OH242934   3.984   5.960   0.095  0.1778  0.1457 -0.0726
 7148TIP3    H142935   3.906   5.983   0.145 -0.2143 -0.7542 -0.2659
 7148TIP3    H242936   3.957   5.887   0.041  0.4390  1.4601 -2.0257
 7149TIP3   OH242937   1.842   5.178  12.277  0.2368  0.4646  0.5216
 7149TIP3    H142938   1.853   5.090  12.314 -1.7715 -0.6083 -1.3482
 7149TIP3    H242939   1.757   5.175  12.233  2.2825  1.7866 -3.8117
 7150TIP3   OH242940   4.898   5.121   3.241  0.8382  0.0803 -0.0520
 7150TIP3    H142941   4.961   5.063   3.284  0.2806  0.3210  1.0937
 7150TIP3    H242942   4.924   5.209   3.268 -0.7101  0.1093  1.4035
 7151TIP3   OH242943   2.089   6.206  14.243 -0.1168  0.9779 -1.1018
 7151TIP3    H142944   2.124   6.117  14.247  0.2008  1.1263 -0.3819
 7151TIP3    H242945   2.164   6.261  14.265 -0.3392  1.4123 -1.4441
 7152TIP3   OH242946   2.256   0.114   4.678  0.0598 -0.7078 -0.3539
 7152TIP3    H142947   2.314   0.073   4.742 -0.5856 -0.9245  0.0943
 7152TIP3    H242948   2.168   0.086   4.704 -0.2725 -0.1118 -0.8337
 7153TIP3   OH242949   3.508   4.408   0.904 -0.7510 -0.0534 -0.3742
 7153TIP3    H142950   3.529   4.343   0.972 -0.2495  1.4766  0.9770
 7153TIP3    H242951   3.466   4.480   0.952  1.4001  1.9327 -1.3875
 7154TIP3   OH242952   1.598   6.400  13.308  0.1144  0.1605 -0.0756
 7154TIP3    H142953   1.600   6.490  13.338 -0.7544 -0.1635  0.9982
 7154TIP3    H242954   1.536   6.400  13.235  0.2676  0.4673 -0.2047
 7155TIP3   OH242955   4.317   5.731  13.434 -0.2069  0.3421  0.5112
 7155TIP3    H142956   4.334   5.785  13.357 -1.3371 -0.9419 -0.6629
 7155TIP3    H242957   4.222   5.739  13.449 -0.3947 -1.3141  0.3106
 7156TIP3   OH242958   1.508   5.475   2.096 -0.3408 -0.3913  0.1132
 7156TIP3    H142959   1.503   5.511   2.185  0.7536 -0.5873  0.2614
 7156TIP3    H242960   1.498   5.550   2.038  2.3854  0.2694  0.4166
 7157TIP3   OH242961   4.453   1.076   2.476  0.2796  0.0139 -0.0919
 7157TIP3    H142962   4.475   0.983   2.474  1.1243  0.2239 -0.9114
 7157TIP3    H242963   4.515   1.117   2.415  1.9921  1.5752  2.5953
 7158TIP3   OH242964   2.126   3.704  15.156  0.3516  0.1043  0.4776
 7158TIP3    H142965   2.123   3.683  15.249  1.2105  0.9245  0.6974
 7158TIP3    H242966   2.101   3.623  15.112 -1.5332  0.1240  1.4562
 7159TIP3   OH242967   6.365   3.807  17.281  0.1022  0.5678  0.3553
 7159TIP3    H142968   6.366   3.836  17.373  1.2671  0.2206  0.4628
 7159TIP3    H242969   6.456   3.784  17.263 -0.3291 -0.4474 -0.5551
 7160TIP3   OH242970   2.138   0.396  13.762  0.3018 -0.4051 -0.0262
 7160TIP3    H142971   2.049   0.387  13.797  1.0323 -0.6364  1.8757
 7160TIP3    H242972   2.194   0.398  13.840  1.9607 -0.1907 -1.1890
 7161TIP3   OH242973   2.771   3.722   3.637 -0.7444 -0.2899  0.3371
 7161TIP3    H142974   2.795   3.688   3.723 -0.6232 -1.0695  0.0036
 7161TIP3    H242975   2.851   3.764   3.605 -0.6813 -0.3191  0.4557
 7162TIP3   OH242976   6.144   6.265  14.027  0.0911  0.0797  0.6531
 7162TIP3    H142977   6.190   6.197  13.979 -1.3094 -0.1631 -0.3748
 7162TIP3    H242978   6.198   6.344  14.015 -0.6533  0.2297 -2.0394
 7163TIP3   OH242979   4.014   1.978   4.896  0.6500  0.4982 -0.2494
 7163TIP3    H142980   4.094   2.027   4.876  1.2854 -0.1077  0.7683
 7163TIP3    H242981   3.978   2.023   4.973  1.1015 -0.4710  0.5338
 7164TIP3   OH242982   0.008   6.510   0.995  0.4476  0.9723  0.4306
 7164TIP3    H142983   0.003   6.520   1.090  0.2004  0.8917  0.4261
 7164TIP3    H242984  -0.050   6.578   0.961 -0.4901  0.1510  0.3716
 7165TIP3   OH242985   4.019   0.832   5.495  0.1443 -0.2889 -0.4791
 7165TIP3    H142986   4.083   0.762   5.508  0.3721 -0.1082 -0.6299
 7165TIP3    H242987   4.006   0.869   5.582 -1.2511 -1.6286 -0.0917
 7166TIP3   OH242988   0.441   1.769   2.754 -0.2856  0.0678  0.1577
 7166TIP3    H142989   0.404   1.850   2.719 -0.1551  0.0647  0.0153
 7166TIP3    H242990   0.375   1.703   2.734 -0.0836  0.0130 -0.3360
 7167TIP3   OH242991   3.287   1.393  16.440  0.2125 -0.6638  0.3596
 7167TIP3    H142992   3.209   1.391  16.384  1.1932  1.5274 -1.1058
 7167TIP3    H242993   3.252   1.405  16.528 -1.1300 -0.0204 -0.2410
 7168TIP3   OH242994   0.531   3.271   4.346 -0.6351 -0.2879  0.1127
 7168TIP3    H142995   0.481   3.328   4.404 -0.8858 -0.8197  0.4253
 7168TIP3    H242996   0.534   3.318   4.263  0.3612  0.8234  0.7564
 7169TIP3   OH242997   4.244   1.488  16.169  0.5342 -0.1155 -0.1835
 7169TIP3    H142998   4.228   1.421  16.102  1.8342  0.4397 -1.0617
 7169TIP3    H242999   4.339   1.488  16.181  0.3848  0.3532  1.0880
 7170TIP3   OH243000   4.411   2.070  12.588  0.1747 -0.0977 -0.1905
 7170TIP3    H143001   4.418   1.974  12.581 -1.1342 -0.2154 -0.0049
 7170TIP3    H243002   4.495   2.097  12.628  0.5564 -1.1612 -0.2531
 7171TIP3   OH243003   2.856   5.020   5.161  0.0189  1.0997  0.3349
 7171TIP3    H143004   2.862   4.959   5.088 -1.2541  1.4652 -0.0883
 7171TIP3    H243005   2.837   4.965   5.237 -0.4574  0.8850  0.0681
 7172TIP3   OH243006   0.702   4.642   4.825 -0.2287  0.3683  0.3910
 7172TIP3    H143007   0.774   4.694   4.861  0.2473  0.4597 -0.6685
 7172TIP3    H243008   0.745   4.579   4.766 -0.9647  0.0179  0.2209
 7173TIP3   OH243009   3.878   3.016   3.780  0.3274  0.2635  0.3657
 7173TIP3    H143010   3.792   2.999   3.817  0.1390  0.9485  0.2472
 7173TIP3    H243011   3.902   2.935   3.736 -0.6332  0.3654 -0.3580
 7174TIP3   OH243012   5.715   2.844  16.957 -0.1245 -0.4310 -0.6258
 7174TIP3    H143013   5.727   2.892  17.039 -1.6215  0.8630 -1.1462
 7174TIP3    H243014   5.769   2.766  16.967  1.7978  1.0117  0.5220
 7175TIP3   OH243015   0.646   5.427   5.372 -0.2077 -0.3909  0.2628
 7175TIP3    H143016   0.733   5.420   5.334 -0.3350 -2.9495  0.3841
 7175TIP3    H243017   0.661   5.430   5.466 -0.2515 -0.9729  0.2897
 7176TIP3   OH243018   5.421   6.447   6.024 -0.3037 -0.2093 -0.1364
 7176TIP3    H143019   5.399   6.355   6.013 -2.2324  0.2607 -0.4250
 7176TIP3    H243020   5.426   6.482   5.935 -0.7021  0.2053 -0.0018
 7177TIP3   OH243021   5.951   0.134   0.342  0.2378  1.1848 -0.0563
 7177TIP3    H143022   5.925   0.070   0.409 -2.3088 -0.2730 -2.3259
 7177TIP3    H243023   6.015   0.087   0.289  0.4417  1.4947 -0.0839
 7178TIP3   OH243024   1.639   4.057   5.961 -0.3237  0.0903 -0.6108
 7178TIP3    H143025   1.586   3.980   5.980 -0.5694  0.5968  0.8159
 7178TIP3    H243026   1.633   4.110   6.040 -1.0840  2.1110 -1.9873
 7179TIP3   OH243027   5.382   3.923  14.699 -0.0262 -0.1612 -0.0092
 7179TIP3    H143028   5.436   3.871  14.639 -1.4508 -0.3142 -1.1863
 7179TIP3    H243029   5.389   4.012  14.666  0.4914  0.0216  0.5817
 7180TIP3   OH243030   4.846   1.580   4.906 -0.5871  0.3176 -0.9916
 7180TIP3    H143031   4.788   1.504   4.901 -1.7560  1.2340 -1.5753
 7180TIP3    H243032   4.808   1.643   4.845  0.0930  1.5635 -0.1429
 7181TIP3   OH243033   0.021   3.009  14.402 -0.1092  0.6618 -0.6962
 7181TIP3    H143034   0.034   2.982  14.493 -1.4931 -0.5605 -0.8515
 7181TIP3    H243035   0.078   3.085  14.392  0.1166  0.7673  1.1649
 7182TIP3   OH243036   3.092   3.628   1.192  0.9615 -0.6873  0.2215
 7182TIP3    H143037   3.157   3.672   1.138 -0.0857  1.8316  0.9423
 7182TIP3    H243038   3.109   3.659   1.280 -0.7290 -0.5585  0.5228
 7183TIP3   OH243039   3.895   1.877  16.275  0.4472 -0.2549 -1.2593
 7183TIP3    H143040   3.975   1.827  16.260  1.3103  1.2573 -1.8367
 7183TIP3    H243041   3.924   1.954  16.323 -0.6654  0.2941 -1.4573
 7184TIP3   OH243042   2.009   3.944   1.227  0.8452 -0.2002  0.1923
 7184TIP3    H143043   1.915   3.954   1.218  0.7261  1.0173  2.4802
 7184TIP3    H243044   2.020   3.868   1.284  1.2221 -0.0033  0.3890
 7185TIP3   OH243045   1.259   3.788   4.091  0.0096  0.3669 -0.9098
 7185TIP3    H143046   1.349   3.822   4.094  0.2476 -0.1610 -1.9268
 7185TIP3    H243047   1.204   3.867   4.091  0.5097  0.7224 -1.2956
 7186TIP3   OH243048   6.548   0.192   5.559 -0.1233 -0.0456  0.2458
 7186TIP3    H143049   6.476   0.229   5.508  0.1646  1.1762  0.7001
 7186TIP3    H243050   6.626   0.214   5.509  0.0564  0.0044  0.5478
 7187TIP3   OH243051   2.917   2.630  16.866 -0.4306  1.0446  0.0123
 7187TIP3    H143052   2.895   2.646  16.958 -0.7300  2.7782 -0.3639
 7187TIP3    H243053   2.847   2.671  16.816 -0.7452 -0.6746 -0.9942
 7188TIP3   OH243054   6.280   5.730  11.834 -0.3460 -0.3097 -0.2469
 7188TIP3    H143055   6.362   5.746  11.789  0.1222  2.1289  1.3998
 7188TIP3    H243056   6.260   5.812  11.878 -1.5275 -2.1087  2.7491
 7189TIP3   OH243057   1.181   5.376   2.329 -0.5247 -0.1714  0.4530
 7189TIP3    H143058   1.162   5.356   2.421 -0.7162 -0.1822  0.4103
 7189TIP3    H243059   1.163   5.294   2.283  0.0758 -0.3196  0.4784
 7190TIP3   OH243060   4.626   1.430   0.061  0.1459 -0.0663  0.3960
 7190TIP3    H143061   4.634   1.340   0.092 -0.0821  0.0483  0.7866
 7190TIP3    H243062   4.716   1.463   0.058  0.7134 -1.6764 -3.8605
 7191TIP3   OH243063   4.694   1.330  11.050  0.2130 -0.2274  0.1900
 7191TIP3    H143064   4.772   1.328  11.105  1.0963 -0.6961 -1.0487
 7191TIP3    H243065   4.661   1.240  11.051 -0.7283  0.1192  1.2779
 7192TIP3   OH243066   2.797   1.884   3.106 -0.3356  0.0772 -0.5838
 7192TIP3    H143067   2.806   1.954   3.170  0.6041 -0.5413 -0.0370
 7192TIP3    H243068   2.721   1.910   3.053 -1.3245  0.4405  0.9660
 7193TIP3   OH243069   1.545   1.332  14.199  0.6802  0.5369  0.4635
 7193TIP3    H143070   1.502   1.322  14.115  0.3210  1.4738  0.5308
 7193TIP3    H243071   1.477   1.314  14.264  1.1012 -0.7517  0.5520
 7194TIP3   OH243072   6.358   6.799   5.370 -0.2582 -0.0563 -0.1531
 7194TIP3    H143073   6.450   6.804   5.342  0.5887 -0.3794  2.4629
 7194TIP3    H243074   6.319   6.880   5.336  0.9418  0.0435 -1.3615
 7195TIP3   OH243075   4.145   5.688  14.395 -0.0725  0.1740 -0.0467
 7195TIP3    H143076   4.071   5.669  14.338  1.8187 -2.2922 -1.7367
 7195TIP3    H243077   4.133   5.629  14.470 -1.0182  1.4285  0.8327
 7196TIP3   OH243078   5.384   3.114  16.483  0.4785 -0.0604 -0.0018
 7196TIP3    H143079   5.325   3.183  16.515 -0.4006 -0.4408 -0.7934
 7196TIP3    H243080   5.406   3.064  16.562  1.1965  1.1692  0.5921
 7197TIP3   OH243081   4.641   4.159   2.640  0.3006  0.3053 -0.3264
 7197TIP3    H143082   4.692   4.155   2.721  1.4280 -0.0678 -1.0541
 7197TIP3    H243083   4.551   4.143   2.668  0.4860  1.5093  1.0471
 7198TIP3   OH243084   4.341   5.911   2.006 -0.5334  0.3098  0.1803
 7198TIP3    H143085   4.293   5.976   1.954  0.5196  1.9929  1.2641
 7198TIP3    H243086   4.341   5.832   1.951 -0.2588  1.7700 -1.9929
 7199TIP3   OH243087   5.944   1.113  11.287 -0.0633 -0.7369 -0.1590
 7199TIP3    H143088   5.904   1.192  11.323 -0.2207 -1.0307  0.3171
 7199TIP3    H243089   6.024   1.144  11.245 -0.2004 -0.3050 -0.1061
 7200TIP3   OH243090   0.616   4.507   1.015 -0.0074  0.2323 -0.4304
 7200TIP3    H143091   0.694   4.529   0.964  1.1371 -0.2825  1.0512
 7200TIP3    H243092   0.617   4.567   1.089  0.0561 -1.0367  0.6221
 7201TIP3   OH243093   6.093   2.044   4.432 -0.0578  0.2416 -0.2327
 7201TIP3    H143094   6.111   2.071   4.342 -0.7597 -0.9590 -0.7411
 7201TIP3    H243095   5.998   2.037   4.436 -0.1178  1.5058  0.9695
 7202TIP3   OH243096   3.040   6.152  12.271 -0.1378  0.2013  0.9851
 7202TIP3    H143097   3.121   6.164  12.321  3.4074 -1.6613 -4.0110
 7202TIP3    H243098   3.030   6.233  12.222 -0.1667 -0.3651  0.0482
 7203TIP3   OH243099   2.000   5.235  12.658  0.1883  0.5647  0.7784
 7203TIP3    H143100   1.928   5.177  12.684  0.3438  0.6993  1.5265
 7203TIP3    H243101   2.038   5.194  12.581 -1.7255  1.3339 -0.6202
 7204TIP3   OH243102   6.738   2.428  12.441 -0.2151  0.2872 -0.3194
 7204TIP3    H143103   6.826   2.392  12.456 -0.5206 -0.4323 -0.2327
 7204TIP3    H243104   6.708   2.384  12.361 -0.7839 -0.0106  0.0563
 7205TIP3   OH243105   5.289   4.789   1.559  0.1778 -0.0466  0.1586
 7205TIP3    H143106   5.258   4.825   1.477 -0.6180  0.1078  0.5232
 7205TIP3    H243107   5.332   4.706   1.535 -0.0174  0.0200 -0.4053
 7206TIP3   OH243108   3.633   0.542  12.028 -0.2055  0.0132 -0.3203
 7206TIP3    H143109   3.645   0.606  12.098 -1.4120  0.9918 -0.9914
 7206TIP3    H243110   3.636   0.594  11.948  2.6063 -1.2740 -1.1343
 7207TIP3   OH243111   0.957   0.178   5.002  0.6415 -0.1531 -0.0973
 7207TIP3    H143112   0.956   0.156   5.095  0.9547 -0.9530 -0.2711
 7207TIP3    H243113   0.865   0.191   4.979  0.6565  1.1064  0.5592
 7208TIP3   OH243114   6.274   5.862  17.133 -0.4326 -0.0458  0.0595
 7208TIP3    H143115   6.301   5.948  17.164 -0.9183  1.4315 -3.4089
 7208TIP3    H243116   6.306   5.858  17.043 -2.4925 -2.5421 -0.6190
 7209TIP3   OH243117   1.639   5.942  14.061 -0.1331 -0.2906  0.2738
 7209TIP3    H143118   1.641   5.861  14.011 -0.9868  0.6511 -1.3342
 7209TIP3    H243119   1.727   5.978  14.054 -0.3495  0.0250 -0.9006
 7210TIP3   OH243120   2.668   0.749  17.116 -0.2969  0.2806 -0.0255
 7210TIP3    H143121   2.750   0.716  17.078 -0.9322 -1.0262 -0.2737
 7210TIP3    H243122   2.672   0.844  17.101  1.1011  0.2147 -0.1613
 7211TIP3   OH243123   3.298   1.100  12.866 -0.3726 -0.8390 -0.2067
 7211TIP3    H143124   3.206   1.122  12.876 -0.1494  0.1679 -0.3222
 7211TIP3    H243125   3.300   1.037  12.793 -0.5585  2.3158 -3.0964
 7212TIP3   OH243126   6.039   3.306   5.503 -0.9703  0.2995  0.0288
 7212TIP3    H143127   5.982   3.375   5.536 -0.5953  0.2066  0.8929
 7212TIP3    H243128   6.084   3.345   5.429 -0.1853  1.2511  0.9929
 7213TIP3   OH243129   2.489   0.137   5.090 -0.4558  0.0744  0.0528
 7213TIP3    H143130   2.529   0.119   5.005  0.8851 -0.3063  0.7546
 7213TIP3    H243131   2.395   0.125   5.075 -0.3162  0.8526 -1.5807
 7214TIP3   OH243132   1.252   4.666  14.796  0.4707  0.4529 -0.5427
 7214TIP3    H143133   1.162   4.646  14.819  1.2324  0.7799  3.0525
 7214TIP3    H243134   1.269   4.615  14.717 -2.3438 -0.8749 -0.3381
 7215TIP3   OH243135   5.180   3.570  12.360  0.0583  0.0009 -0.4694
 7215TIP3    H143136   5.175   3.632  12.287  0.4839  1.0910  0.4152
 7215TIP3    H243137   5.265   3.587  12.400  0.1729 -1.1593 -0.2104
 7216TIP3   OH243138   3.130   4.792  11.429  0.4436 -0.4899 -0.1670
 7216TIP3    H143139   3.096   4.876  11.460  0.4473 -0.6287  0.2124
 7216TIP3    H243140   3.215   4.814  11.390  0.5232 -0.3409  0.0852
 7217TIP3   OH243141   1.926   0.709  14.198  0.1564  0.2068 -0.6661
 7217TIP3    H143142   1.929   0.778  14.265 -0.1768 -0.4633  0.0518
 7217TIP3    H243143   1.850   0.729  14.145 -0.4746 -0.1075  0.1054
 7218TIP3   OH243144   3.981   5.670   2.509  0.1215 -0.3567  0.8471
 7218TIP3    H143145   3.962   5.594   2.563  0.8160  0.2260  1.9344
 7218TIP3    H243146   4.061   5.645   2.461  0.0039 -0.5392  0.7444
 7219TIP3   OH243147   6.804   1.212   3.093  0.1951 -0.6382 -0.4738
 7219TIP3    H143148   6.835   1.230   3.004 -1.0986 -0.6866 -0.9381
 7219TIP3    H243149   6.825   1.120   3.107  1.7219 -0.2607 -0.1775
 7220TIP3   OH243150   6.356   5.389   3.115  0.3332 -0.9054  0.1694
 7220TIP3    H143151   6.327   5.457   3.176  1.5055  0.4203 -0.7261
 7220TIP3    H243152   6.441   5.361   3.149 -0.7222 -2.8601  1.2628
 7221TIP3   OH243153   5.045   5.318  11.980  0.4828  0.7869  0.0589
 7221TIP3    H143154   4.975   5.364  12.025 -0.6528 -0.2120 -0.6198
 7221TIP3    H243155   5.046   5.231  12.020  2.9541  1.5434  1.7004
 7222TIP3   OH243156   6.519   3.364   0.053 -0.4739 -0.2730 -0.1676
 7222TIP3    H143157   6.563   3.445   0.080 -1.2363  0.3159 -0.6746
 7222TIP3    H243158   6.489   3.324   0.135  3.2578 -2.0321  0.4643
 7223TIP3   OH243159   2.726   4.607  14.746 -0.6725  0.3050  0.1152
 7223TIP3    H143160   2.765   4.680  14.793  0.1507  0.2135 -0.4172
 7223TIP3    H243161   2.748   4.530  14.798 -0.8558  0.3468  0.2543
 7224TIP3   OH243162   3.213   0.608  15.117  0.3936  0.0662 -0.0096
 7224TIP3    H143163   3.223   0.571  15.204 -2.1955  2.1630  1.2466
 7224TIP3    H243164   3.254   0.695  15.123 -1.2018  0.8653 -0.3867
 7225TIP3   OH243165   0.158   2.694   2.412  0.7885 -0.6357  0.0718
 7225TIP3    H143166   0.152   2.789   2.413 -0.5585 -0.7163  0.3785
 7225TIP3    H243167   0.215   2.675   2.337 -1.5548  0.2985 -2.0294
 7226TIP3   OH243168   2.507   3.546  11.179  0.2576 -0.2386 -0.5020
 7226TIP3    H143169   2.557   3.571  11.258 -0.2770  3.5581 -1.2381
 7226TIP3    H243170   2.574   3.536  11.111  0.3836  0.7015 -0.5238
 7227TIP3   OH243171   5.059   2.723   5.962  0.1870  0.8105  0.1268
 7227TIP3    H143172   5.131   2.736   6.024 -0.3593 -0.7021  1.1094
 7227TIP3    H243173   5.043   2.629   5.963 -1.6009  1.0861 -0.3164
 7228TIP3   OH243174   5.837   0.590  17.057  0.2972 -0.1031  0.5341
 7228TIP3    H143175   5.911   0.602  16.997  0.2534 -0.9598  0.3137
 7228TIP3    H243176   5.793   0.675  17.057  1.3247  0.4510  0.7318
 7229TIP3   OH243177   1.177   2.497  15.993 -0.1639 -0.2681 -0.1324
 7229TIP3    H143178   1.239   2.448  16.047 -0.9156 -1.4326 -0.3267
 7229TIP3    H243179   1.157   2.576  16.044 -0.0294 -0.8283  0.7869
 7230TIP3   OH243180   0.239   0.353  13.884 -0.6490  0.0280 -0.4190
 7230TIP3    H143181   0.296   0.405  13.827 -0.2131 -1.4652 -1.3694
 7230TIP3    H243182   0.157   0.345  13.834 -1.4218  1.4830  0.5908
 7231TIP3   OH243183   2.180   6.686  14.985 -0.8698 -0.1202  0.1237
 7231TIP3    H143184   2.247   6.749  15.013 -1.5407  1.1055 -0.9907
 7231TIP3    H243185   2.229   6.619  14.937 -0.5141  1.1739 -1.3604
 7232TIP3   OH243186   4.061   5.424   3.975 -0.6920  0.0216 -0.2485
 7232TIP3    H143187   4.131   5.375   3.932  0.2208 -0.4421  1.7272
 7232TIP3    H243188   4.036   5.491   3.911  0.6904 -0.5904 -1.4560
 7233TIP3   OH243189   3.134   1.010   1.468  0.1188 -0.1302 -0.1495
 7233TIP3    H143190   3.166   1.058   1.543  0.6221  0.5690 -0.8047
 7233TIP3    H243191   3.045   1.043   1.453 -0.7540 -1.7023  1.3503
 7234TIP3   OH243192   3.205   6.237   0.857  0.4061 -0.3312  0.5279
 7234TIP3    H143193   3.141   6.307   0.873  0.7450  0.6923 -2.1543
 7234TIP3    H243194   3.157   6.156   0.876 -0.9583  0.5108  0.7975
 7235TIP3   OH243195   6.808   3.848   4.239  0.5294  0.4875 -0.0081
 7235TIP3    H143196   6.739   3.890   4.289 -0.2905 -0.2387 -0.5173
 7235TIP3    H243197   6.792   3.754   4.249  2.5319  0.2463  1.3907
 7236TIP3   OH243198   1.654   2.997   2.402  0.3325  0.7462 -0.2178
 7236TIP3    H143199   1.646   3.080   2.355 -3.2623  0.7231  0.2269
 7236TIP3    H243200   1.568   2.983   2.440  1.5198 -2.1358  1.5472
 7237TIP3   OH243201   1.115   5.319   3.402 -0.8851  0.9138  0.2442
 7237TIP3    H143202   1.019   5.324   3.399 -0.9807 -0.6064  0.5824
 7237TIP3    H243203   1.135   5.226   3.394  0.6865  1.4218 -2.3844
 7238TIP3   OH243204   4.610   2.450   3.334 -0.2952  0.4124 -0.1700
 7238TIP3    H143205   4.562   2.411   3.408  2.2862 -1.0586  0.7972
 7238TIP3    H243206   4.655   2.524   3.372  1.1674 -0.4408 -0.2103
 7239TIP3   OH243207   4.716   5.761   2.040 -0.3490  0.2236  0.7190
 7239TIP3    H143208   4.799   5.792   2.005  0.1440  0.4450  2.0551
 7239TIP3    H243209   4.669   5.726   1.964  0.7798  0.4982 -0.1095
 7240TIP3   OH243210   4.531   3.540   0.024  0.1847  0.1135  0.2410
 7240TIP3    H143211   4.551   3.547  -0.070  0.0049 -0.1337  0.1847
 7240TIP3    H243212   4.552   3.626   0.060 -1.5546  0.7998 -0.3499
 7241TIP3   OH243213   1.213   4.475  15.294 -0.3457 -0.2771  0.1209
 7241TIP3    H143214   1.200   4.550  15.352 -0.5786  0.4939 -0.8974
 7241TIP3    H243215   1.138   4.479  15.234 -0.1993 -1.1527 -0.1200
 7242TIP3   OH243216   0.247   4.095  11.126  0.0874  0.0342  0.3049
 7242TIP3    H143217   0.261   4.012  11.172 -0.2359 -0.3465 -0.2776
 7242TIP3    H243218   0.317   4.099  11.061  0.3628  0.4268  0.6245
 7243TIP3   OH243219   4.307   4.498   4.219  0.2421 -0.3600  0.4233
 7243TIP3    H143220   4.363   4.440   4.168 -0.9862 -1.5763  0.4225
 7243TIP3    H243221   4.258   4.548   4.153 -1.1948 -1.7852  0.3623
 7244TIP3   OH243222   1.896   5.649   2.974 -0.5634 -0.0332 -0.2195
 7244TIP3    H143223   1.900   5.565   2.929 -1.3377  0.6697 -1.6282
 7244TIP3    H243224   1.813   5.647   3.022 -0.8015  0.1160 -0.6267
 7245TIP3   OH243225   2.228   0.790   3.675 -0.2041 -0.1570  0.1074
 7245TIP3    H143226   2.134   0.787   3.659 -0.3031  2.3252  0.0527
 7245TIP3    H243227   2.246   0.712   3.728 -2.2015 -0.8868 -0.2508
 7246TIP3   OH243228   6.560   5.085   6.029 -0.2634  0.0609  0.2732
 7246TIP3    H143229   6.634   5.143   6.049 -2.4405  2.9550  0.1807
 7246TIP3    H243230   6.483   5.132   6.059 -2.1864 -2.5553 -0.3656
 7247TIP3   OH243231   1.411   4.633  12.338 -0.0699 -0.1657  0.7050
 7247TIP3    H143232   1.428   4.689  12.262 -1.2133 -0.4971  0.1980
 7247TIP3    H243233   1.388   4.695  12.408  1.3603  0.1642  0.9076
 7248TIP3   OH243234   2.815   5.756   0.212 -0.4350 -0.0603  0.1870
 7248TIP3    H143235   2.860   5.688   0.163 -1.1653 -0.2194 -0.2701
 7248TIP3    H243236   2.856   5.838   0.184 -1.3275 -0.0840 -1.2263
 7249TIP3   OH243237   1.127   6.664  16.201 -0.1661  0.1088 -0.3533
 7249TIP3    H143238   1.138   6.756  16.226 -0.4477  0.1911 -0.5291
 7249TIP3    H243239   1.204   6.644  16.148 -0.4490  0.4528 -0.9059
 7250TIP3   OH243240   6.613   1.781  15.634  0.1529  0.4240 -0.4691
 7250TIP3    H143241   6.599   1.873  15.656  0.4378  0.2935  0.2790
 7250TIP3    H243242   6.701   1.761  15.668 -0.7471 -0.6893  1.2593
 7251TIP3   OH243243   5.721   1.659  17.056  0.2201  0.4707 -0.0186
 7251TIP3    H143244   5.811   1.645  17.028  0.2859  0.4104  0.2235
 7251TIP3    H243245   5.692   1.572  17.087  0.2353  0.5984  0.3547
 7252TIP3   OH243246   1.287   6.486  14.986 -0.0014  0.0152 -0.7686
 7252TIP3    H143247   1.308   6.526  14.902 -0.7740  0.1127 -0.9112
 7252TIP3    H243248   1.208   6.435  14.971 -1.0603  1.3097  0.2654
 7253TIP3   OH243249   0.589   5.822  15.586  0.3314  0.3523 -0.7693
 7253TIP3    H143250   0.588   5.900  15.531 -1.1137 -1.0478 -2.7934
 7253TIP3    H243251   0.576   5.749  15.525  0.0358 -1.3499  1.2656
 7254TIP3   OH243252   1.348   0.778  13.580 -0.5305 -0.1677 -0.8384
 7254TIP3    H143253   1.418   0.843  13.588  0.1757 -0.6070 -3.0856
 7254TIP3    H243254   1.276   0.815  13.630  0.5617  1.3549 -0.3412
 7255TIP3   OH243255   5.628   2.349   0.061  0.3383  0.2295  0.0657
 7255TIP3    H143256   5.696   2.393   0.011  1.1614 -0.8943  0.1758
 7255TIP3    H243257   5.636   2.384   0.149 -0.9714  2.0536 -0.4999
 7256TIP3   OH243258   6.748   5.295   5.221 -0.4412  0.0125  0.0144
 7256TIP3    H143259   6.732   5.318   5.129 -0.4592  1.1320  0.2946
 7256TIP3    H243260   6.741   5.199   5.223 -0.3277 -0.0267 -1.1714
 7257TIP3   OH243261   3.683   4.398  17.114  0.0034  0.6501 -0.0549
 7257TIP3    H143262   3.634   4.392  17.032 -3.2760  1.0798  1.7364
 7257TIP3    H243263   3.692   4.493  17.130 -1.0808  0.6013  0.9716
 7258TIP3   OH243264   5.833   3.488   5.280  0.1937  0.2761  0.7757
 7258TIP3    H143265   5.860   3.406   5.322 -0.5455  0.0363  0.7973
 7258TIP3    H243266   5.803   3.543   5.352  1.1451  0.7512  0.8130
 7259TIP3   OH243267   4.127   3.323  11.785  0.4261  0.4876  0.7467
 7259TIP3    H143268   4.060   3.267  11.823  0.1808  0.8680  0.8821
 7259TIP3    H243269   4.194   3.263  11.753  1.2093  0.1862  2.8375
 7260TIP3   OH243270   6.032   1.366  15.554 -0.3500  0.4880 -0.0246
 7260TIP3    H143271   6.104   1.429  15.567  0.3677 -0.6123  1.5356
 7260TIP3    H243272   6.051   1.326  15.469 -0.3100  1.7233 -0.6104
 7261TIP3   OH243273   2.395   1.900  12.815  0.4555  0.3743  0.1000
 7261TIP3    H143274   2.317   1.917  12.762  0.8447  0.0531 -0.5859
 7261TIP3    H243275   2.362   1.858  12.894 -0.0530  0.1053 -0.2507
 7262TIP3   OH243276   4.345   2.621  14.140  0.3022  0.5823 -0.5257
 7262TIP3    H143277   4.339   2.536  14.097  0.3475  0.7925 -0.9519
 7262TIP3    H243278   4.321   2.604  14.232  2.2949 -0.2553 -0.1501
 7263TIP3   OH243279   0.215   1.184   2.954 -0.0647  0.3976 -0.2488
 7263TIP3    H143280   0.282   1.230   3.004  0.4348 -1.5871  0.9453
 7263TIP3    H243281   0.260   1.152   2.876  0.4305 -0.9837  0.5800
 7264TIP3   OH243282   4.823   5.215  15.036 -0.4090  0.3865  0.1815
 7264TIP3    H143283   4.866   5.175  14.960 -0.0212 -0.2931  0.7435
 7264TIP3    H243284   4.894   5.232  15.098 -0.5411  2.2116 -0.1496
 7265TIP3   OH243285   5.704   2.113  11.331  0.6961 -0.0554 -0.1821
 7265TIP3    H143286   5.611   2.100  11.352  0.4319 -1.6587 -2.1743
 7265TIP3    H243287   5.732   2.183  11.390 -2.2165  1.6814 -0.7440
 7266TIP3   OH243288   2.538   4.969   2.718  0.2428  0.7532 -0.4438
 7266TIP3    H143289   2.482   4.899   2.683  1.7516 -1.9873  2.3155
 7266TIP3    H243290   2.477   5.029   2.761 -0.6621 -3.1108  4.0906
 7267TIP3   OH243291   2.874   3.170  12.444 -0.1567  0.2285 -0.7866
 7267TIP3    H143292   2.931   3.094  12.459  1.7171  1.5830 -0.8490
 7267TIP3    H243293   2.787   3.133  12.430  1.2562 -2.1036 -3.7884
 7268TIP3   OH243294   0.534   1.981  14.399  0.3044  0.4577 -0.3826
 7268TIP3    H143295   0.469   2.040  14.436 -0.9723 -1.0637 -0.1359
 7268TIP3    H243296   0.536   1.906  14.459 -1.7142 -2.0094 -3.2209
 7269TIP3   OH243297   3.711   4.848  12.649  0.4851  0.6055  0.5789
 7269TIP3    H143298   3.734   4.928  12.696 -0.5877  1.3330 -0.0952
 7269TIP3    H243299   3.615   4.847  12.648  0.4652 -1.2128  1.4495
 7270TIP3   OH243300   0.674   4.157   1.576  0.2989  0.0058 -0.2524
 7270TIP3    H143301   0.763   4.153   1.542  0.5493 -0.4061  0.4522
 7270TIP3    H243302   0.624   4.201   1.507  1.1023  0.5076 -0.5209
 7271TIP3   OH243303   1.469   5.051   3.289 -0.3936 -0.3864 -0.0571
 7271TIP3    H143304   1.469   5.078   3.197 -0.9879 -0.1826  0.0060
 7271TIP3    H243305   1.398   4.988   3.296 -0.3791 -0.3644  0.2742
 7272TIP3   OH243306   2.840   1.966   4.966 -0.7055 -0.0524  0.2042
 7272TIP3    H143307   2.748   1.970   4.939 -0.5155  0.9418 -0.3259
 7272TIP3    H243308   2.886   2.019   4.901  0.2716 -0.7027  0.3633
 7273TIP3   OH243309   4.880   6.735  13.220  0.0145 -0.2337  0.2859
 7273TIP3    H143310   4.912   6.771  13.303  1.3180  1.3264 -0.8489
 7273TIP3    H243311   4.794   6.775  13.208  1.0982  1.9360 -0.5525
 7274TIP3   OH243312   0.829   0.173  15.096  0.0837  0.0928  0.7391
 7274TIP3    H143313   0.911   0.219  15.074  0.4689 -0.4605  0.9998
 7274TIP3    H243314   0.762   0.218  15.046  0.5722  0.4697  0.4176
 7275TIP3   OH243315   3.004   0.253   2.077  0.2919  0.4348 -0.1205
 7275TIP3    H143316   2.927   0.304   2.051  0.2778  0.6609  0.3445
 7275TIP3    H243317   2.979   0.215   2.161  0.8400  0.8532  0.2373
 7276TIP3   OH243318   3.960   6.545   5.120  0.0752  0.2729 -0.3572
 7276TIP3    H143319   3.966   6.592   5.203  2.1045 -1.4160  0.5090
 7276TIP3    H243320   3.877   6.498   5.125 -0.4896  1.2914  0.0866
 7277TIP3   OH243321   0.517   4.349  12.118  0.2004 -0.5066 -0.2091
 7277TIP3    H143322   0.469   4.432  12.113  0.6032 -0.2091  0.8983
 7277TIP3    H243323   0.469   4.297  12.183 -0.0750 -1.1665 -0.9246
 7278TIP3   OH243324   4.889   1.216   4.596  0.0893 -0.4812 -0.1787
 7278TIP3    H143325   4.826   1.144   4.597  1.0737 -1.4122 -2.1561
 7278TIP3    H243326   4.849   1.282   4.539  0.8478 -1.0678 -1.4269
 7279TIP3   OH243327   3.317   4.300   4.749  0.7227  0.6878 -0.1714
 7279TIP3    H143328   3.280   4.368   4.693  0.9826  0.9676 -0.0094
 7279TIP3    H243329   3.365   4.242   4.689 -0.7266 -0.1934 -0.4942
 7280TIP3   OH243330   6.595   5.934   2.431 -0.1538  0.0513 -0.0182
 7280TIP3    H143331   6.500   5.942   2.438 -0.3654 -1.3994 -0.9211
 7280TIP3    H243332   6.623   5.897   2.514 -0.6206 -1.3180 -0.4604
 7281TIP3   OH243333   5.503   6.166  16.553 -0.6972 -0.0670 -0.2645
 7281TIP3    H143334   5.481   6.104  16.483  2.6109 -0.0607 -1.3950
 7281TIP3    H243335   5.541   6.241  16.508 -1.6861  1.4466  1.3396
 7282TIP3   OH243336   6.571   0.762   0.918  0.9729  0.2156 -0.4788
 7282TIP3    H143337   6.500   0.726   0.971  0.2257 -0.8605 -2.1649
 7282TIP3    H243338   6.640   0.695   0.924  0.0445 -0.9690 -2.6316
 7283TIP3   OH243339   5.683   5.916  12.302 -0.6846 -0.1161 -0.1158
 7283TIP3    H143340   5.662   5.866  12.223 -1.6530 -0.5717  0.4160
 7283TIP3    H243341   5.648   5.862  12.374  0.8808 -0.0929  0.6805
 7284TIP3   OH243342   1.060   4.984   5.005 -0.1958 -0.0063  0.5975
 7284TIP3    H143343   1.143   5.003   4.961 -0.4927 -0.6212 -0.2343
 7284TIP3    H243344   1.081   4.915   5.067 -0.0874 -0.1559  0.3943
 7285TIP3   OH243345   0.661   5.282  13.982  0.1159 -0.0187  0.3503
 7285TIP3    H143346   0.740   5.249  14.024  0.4396  1.4994  0.9691
 7285TIP3    H243347   0.592   5.221  14.009  0.8401 -0.6312  0.8242
 7286TIP3   OH243348   3.497   5.696   4.212  0.1147  0.4733  0.6531
 7286TIP3    H143349   3.520   5.639   4.139  0.1805 -0.4036  1.3390
 7286TIP3    H243350   3.570   5.685   4.274 -1.8544 -1.9224  2.6173
 7287TIP3   OH243351   3.713   5.362   2.697  0.0095  0.1953  0.3222
 7287TIP3    H143352   3.718   5.290   2.760 -1.9554 -1.7798 -1.6757
 7287TIP3    H243353   3.665   5.431   2.744 -0.5710 -0.8598  1.3074
 7288TIP3   OH243354   5.750   4.566   6.542  0.6651 -0.2716  0.1640
 7288TIP3    H143355   5.720   4.613   6.465 -1.6921 -0.2776  1.0194
 7288TIP3    H243356   5.820   4.620   6.578 -1.6936  2.4482  0.8851
 7289TIP3   OH243357   1.598   6.329  15.691 -0.0773 -0.2294 -0.0468
 7289TIP3    H143358   1.635   6.319  15.604  0.3873 -1.6323  0.3043
 7289TIP3    H243359   1.658   6.283  15.749 -0.2937  0.8241  1.0490
 7290TIP3   OH243360   4.364   5.806  15.748 -0.0003  0.5192  0.3250
 7290TIP3    H143361   4.439   5.780  15.802 -0.1571  1.3548  0.9517
 7290TIP3    H243362   4.319   5.724  15.729 -0.3832  0.2949  2.1342
 7291TIP3   OH243363   3.884   1.749   1.077 -0.0278  0.0988 -0.1187
 7291TIP3    H143364   3.791   1.773   1.082  0.1960  1.2141 -1.0597
 7291TIP3    H243365   3.884   1.659   1.044 -0.7496  0.4176 -1.0074
 7292TIP3   OH243366   3.844   5.744  15.355 -0.0795  0.2698  0.0317
 7292TIP3    H143367   3.899   5.820  15.372 -1.0939  0.8655  0.6914
 7292TIP3    H243368   3.887   5.672  15.402 -0.1066  0.8373  0.9468
 7293TIP3   OH243369   2.625   5.191   3.962 -0.0237 -0.1282 -0.2274
 7293TIP3    H143370   2.649   5.175   4.054 -1.5461 -0.2329  0.1750
 7293TIP3    H243371   2.581   5.276   3.963 -0.2878 -0.2576 -0.8153
 7294TIP3   OH243372   0.538   6.514   5.372  0.7831 -0.1552  0.0634
 7294TIP3    H143373   0.598   6.442   5.393  0.7747 -0.4432 -0.8606
 7294TIP3    H243374   0.576   6.590   5.415  1.3956 -0.4964  0.1348
 7295TIP3   OH243375   0.082   3.473   5.011  0.0046  0.5733 -0.3749
 7295TIP3    H143376   0.174   3.452   4.999 -0.1178 -0.8454  0.9248
 7295TIP3    H243377   0.047   3.479   4.922  1.8035  3.3975 -0.9477
 7296TIP3   OH243378   2.091   5.042  11.690  0.4102  0.4349 -1.1511
 7296TIP3    H143379   2.137   5.001  11.617 -1.1067 -2.1749 -0.7180
 7296TIP3    H243380   2.156   5.099  11.730  2.6808 -1.5920 -1.7871
 7297TIP3   OH243381   6.060   0.159  10.778 -0.4996 -0.5583  0.0365
 7297TIP3    H143382   6.031   0.248  10.759 -1.0521 -0.5970  0.6849
 7297TIP3    H243383   5.980   0.111  10.798 -0.4397 -1.7295 -2.3571
 7298TIP3   OH243384   4.268   1.347   3.633 -0.4115 -0.1123  0.0627
 7298TIP3    H143385   4.255   1.434   3.595  0.2955 -0.3785 -0.8044
 7298TIP3    H243386   4.182   1.324   3.669 -0.7709  0.6742 -0.2665
 7299TIP3   OH243387   2.140   1.769   3.641 -0.2317 -0.5770 -0.0541
 7299TIP3    H143388   2.129   1.774   3.736  0.1278 -2.3836  0.1016
 7299TIP3    H243389   2.158   1.677   3.624 -1.2676 -0.4349 -1.9948
 7300TIP3   OH243390   1.259   5.873  14.687  0.0143  0.1561 -0.3648
 7300TIP3    H143391   1.343   5.857  14.644  0.4013 -0.0523  0.4714
 7300TIP3    H243392   1.270   5.956  14.732 -0.2286  0.1289 -0.2539
 7301TIP3   OH243393   0.830   6.041   5.867  0.0192  0.6324  0.0010
 7301TIP3    H143394   0.790   6.112   5.918 -0.8099 -0.2385  0.5965
 7301TIP3    H243395   0.805   6.060   5.777 -0.4287  0.9566  0.1894
 7302TIP3   OH243396   6.177   2.937  11.078 -1.0291 -0.4087  0.1405
 7302TIP3    H143397   6.243   2.993  11.121 -1.2208  1.4478 -1.8773
 7302TIP3    H243398   6.093   2.975  11.104 -1.1465  0.8111 -1.8921
 7303TIP3   OH243399   0.757   5.383  14.515 -0.6394 -0.0681  0.3066
 7303TIP3    H143400   0.696   5.403  14.444 -0.4091 -0.0490  0.1129
 7303TIP3    H243401   0.702   5.376  14.593 -0.5627  2.6123  0.6177
 7304TIP3   OH243402   3.490   0.225   3.507  0.5288  0.0711  0.6766
 7304TIP3    H143403   3.532   0.242   3.423 -3.1194 -1.2429 -1.5108
 7304TIP3    H243404   3.549   0.164   3.551  1.2086 -1.3113 -2.0503
 7305TIP3   OH243405   1.308   5.916   3.636  0.5540  0.0899  1.0098
 7305TIP3    H143406   1.306   5.973   3.712 -0.7236 -0.8006  1.6646
 7305TIP3    H243407   1.325   5.829   3.672  1.4727 -0.1127  0.1199
 7306TIP3   OH243408   3.939   1.288  12.485 -0.0032 -0.1143 -0.0251
 7306TIP3    H143409   3.938   1.334  12.569  1.2253 -0.8551  0.4091
 7306TIP3    H243410   3.892   1.346  12.425  0.6537  1.2386  0.7508
 7307TIP3   OH243411   5.170   1.168   5.683 -0.5197 -0.0682 -0.6110
 7307TIP3    H143412   5.184   1.248   5.734 -2.4043 -0.5800  0.7665
 7307TIP3    H243413   5.241   1.109   5.710  0.8063  1.0745 -1.5463
 7308TIP3   OH243414   1.253   1.142  15.407 -0.1264  0.1218 -0.0700
 7308TIP3    H143415   1.202   1.100  15.337 -0.9001 -0.2350  0.6965
 7308TIP3    H243416   1.204   1.221  15.428  0.7269  0.8327 -0.7253
 7309TIP3   OH243417   1.889   4.832  10.335 -0.0884  0.0513 -0.0286
 7309TIP3    H143418   1.970   4.867  10.299  0.1234 -0.5492 -0.1534
 7309TIP3    H243419   1.830   4.907  10.341  0.9645  0.7618  1.4432
 7310TIP3   OH243420   1.516   0.174  16.788  0.9232 -0.1908 -0.2538
 7310TIP3    H143421   1.537   0.130  16.706  1.2133 -0.3173 -0.1129
 7310TIP3    H243422   1.599   0.212  16.817  0.5043  1.1740 -0.8003
 7311TIP3   OH243423   3.664   0.167   1.366  0.2644 -0.0315  0.4218
 7311TIP3    H143424   3.632   0.217   1.441 -0.5401 -0.1762  0.1736
 7311TIP3    H243425   3.742   0.122   1.399 -1.2202 -1.7049  1.7573
 7312TIP3   OH243426   6.307   3.961  13.592  0.2130  0.1941  0.1943
 7312TIP3    H143427   6.381   3.911  13.628 -0.3538  0.2056  1.3834
 7312TIP3    H243428   6.270   3.904  13.525  0.1057 -0.6295  0.9440
 7313TIP3   OH243429   6.369   2.324   3.663  0.4322  0.0265 -0.0002
 7313TIP3    H143430   6.422   2.394   3.624 -0.6580  0.5492 -0.5556
 7313TIP3    H243431   6.371   2.255   3.597  0.8608 -0.1684  0.2126
 7314TIP3   OH243432   0.297   6.438  14.225  0.6010  0.3068 -0.2400
 7314TIP3    H143433   0.205   6.442  14.199  0.3609  0.6619  0.6418
 7314TIP3    H243434   0.301   6.363  14.285  0.6861  0.8773  0.4783
 7315TIP3   OH243435   5.312   5.515   3.059  0.3314 -0.1408 -0.3997
 7315TIP3    H143436   5.243   5.454   3.030  0.3052  0.2442 -1.1639
 7315TIP3    H243437   5.324   5.574   2.985  0.6548  0.5277  0.1807
 7316TIP3   OH243438   4.203   3.300   4.829 -0.1055  0.8307  0.0447
 7316TIP3    H143439   4.272   3.265   4.886  0.4859  0.6326 -0.7741
 7316TIP3    H243440   4.123   3.288   4.879  0.1742 -1.0467  0.1008
 7317TIP3   OH243441   2.911   1.281   1.756  0.4293  0.1390 -0.0795
 7317TIP3    H143442   2.979   1.299   1.691 -0.5396  0.8920 -0.8988
 7317TIP3    H243443   2.832   1.268   1.705 -0.4284  1.1231  0.9703
 7318TIP3   OH243444   0.359   2.365   5.918 -0.0809  0.6482  0.3412
 7318TIP3    H143445   0.393   2.275   5.915  0.2221  0.7789 -0.3454
 7318TIP3    H243446   0.390   2.399   6.002 -2.1658 -0.6410  1.6752
 7319TIP3   OH243447   5.770   1.300   2.972  0.2960  0.2844 -0.1760
 7319TIP3    H143448   5.786   1.232   2.906  1.9700  1.4926 -1.0501
 7319TIP3    H243449   5.733   1.373   2.922  1.1253  1.0280  0.2867
 7320TIP3   OH243450   5.550   4.830   0.290 -0.3495  0.3583  0.2675
 7320TIP3    H143451   5.551   4.860   0.199  1.3434  1.6693  0.7179
 7320TIP3    H243452   5.630   4.865   0.329 -0.7714 -0.6621  2.1270
 7321TIP3   OH243453   3.398   2.911   0.653  0.0675  0.4564  0.0403
 7321TIP3    H143454   3.490   2.932   0.668  0.7629 -1.2023 -1.7149
 7321TIP3    H243455   3.382   2.937   0.562 -0.5626 -1.3279 -0.3826
 7322TIP3   OH243456   3.445   5.484  12.765 -0.2789  0.2276 -0.3684
 7322TIP3    H143457   3.370   5.428  12.784 -0.0489  0.1513  0.3197
 7322TIP3    H243458   3.476   5.513  12.851  1.1808 -0.6738 -0.5695
 7323TIP3   OH243459   3.632   5.350   5.530  1.1649 -0.3096 -0.6967
 7323TIP3    H143460   3.723   5.371   5.549  0.9949 -0.4434  0.3225
 7323TIP3    H243461   3.585   5.368   5.612  0.2723 -0.2124 -1.2148
 7324TIP3   OH243462   1.650   0.471  14.111  0.2077  0.5609  0.4600
 7324TIP3    H143463   1.635   0.515  14.028 -0.5401 -1.9781 -0.8188
 7324TIP3    H243464   1.741   0.443  14.108  0.1664  0.4236  0.4585
 7325TIP3   OH243465   1.836   1.036  14.004 -0.3978  0.1049 -0.4515
 7325TIP3    H143466   1.922   1.011  14.039 -1.1471  2.9366  3.7217
 7325TIP3    H243467   1.856   1.100  13.936  0.8207  1.6067  1.2627
 7326TIP3   OH243468   4.540   5.351   0.938 -0.0661 -0.2708  0.6663
 7326TIP3    H143469   4.511   5.275   0.988 -0.7273 -1.0432 -0.8675
 7326TIP3    H243470   4.634   5.359   0.959 -0.2043 -0.9049  1.5739
 7327TIP3   OH243471   2.440   4.636  13.097  0.1025 -0.6487 -0.1933
 7327TIP3    H143472   2.458   4.721  13.056  1.7579 -0.6948  0.4169
 7327TIP3    H243473   2.345   4.626  13.090 -0.1000  1.2042 -0.3623
 7328TIP3   OH243474   4.096   3.464   0.333  0.1846 -0.1980 -0.5713
 7328TIP3    H143475   4.132   3.437   0.249 -0.9132  1.0920 -1.4856
 7328TIP3    H243476   4.049   3.387   0.365 -1.2776 -0.0232 -2.2225
 7329TIP3   OH243477   0.034   0.658  13.799 -0.3809  0.0075 -0.0662
 7329TIP3    H143478  -0.053   0.696  13.812 -0.7462 -0.5888 -0.6622
 7329TIP3    H243479   0.017   0.581  13.744  0.7152  0.7947 -1.5351
 7330TIP3   OH243480   6.309   5.624   5.489  0.2796 -0.4875  0.4003
 7330TIP3    H143481   6.284   5.532   5.483  1.7709 -0.8923  0.0155
 7330TIP3    H243482   6.375   5.635   5.421 -1.3073  1.3723 -0.8935
 7331TIP3   OH243483   1.418   6.770   6.222 -0.7673 -0.0804 -0.6980
 7331TIP3    H143484   1.347   6.819   6.264  0.1292  0.5024  0.1347
 7331TIP3    H243485   1.412   6.795   6.129 -1.6663 -0.0653 -0.6404
 7332TIP3   OH243486   1.482   5.997   2.654  0.2174 -0.5865 -0.7252
 7332TIP3    H143487   1.486   6.085   2.615 -0.1498 -0.7317 -1.0938
 7332TIP3    H243488   1.388   5.979   2.661  0.2509 -0.1048  1.2602
 7333TIP3   OH243489   0.632   3.597  12.525 -0.1590 -0.2401 -0.5955
 7333TIP3    H143490   0.708   3.648  12.498  1.0041 -0.6172  1.8372
 7333TIP3    H243491   0.580   3.656  12.580  0.4536 -1.1757  1.0356
 7334TIP3   OH243492   4.043   3.449  13.456  0.0079 -0.0140  0.1814
 7334TIP3    H143493   4.028   3.496  13.374  1.9075 -0.2196 -0.3138
 7334TIP3    H243494   4.021   3.512  13.524 -0.1192  0.6644 -0.4842
 7335TIP3   OH243495   5.371   4.607  13.225 -0.3584 -0.2153 -0.8841
 7335TIP3    H143496   5.390   4.637  13.136 -1.0840  1.5431 -0.4782
 7335TIP3    H243497   5.446   4.638  13.276 -1.2074  1.1661 -0.4259
 7336TIP3   OH243498   4.898   2.923   3.649  0.1383 -0.0909  0.2012
 7336TIP3    H143499   4.894   3.014   3.680  0.2507 -0.2296  0.6216
 7336TIP3    H243500   4.827   2.878   3.695  0.8069 -0.4771  0.8681
 7337TIP3   OH243501   0.086   5.316   1.594 -0.6787  0.4892 -0.4977
 7337TIP3    H143502   0.095   5.237   1.648 -1.1300  0.4835 -0.4263
 7337TIP3    H243503   0.099   5.388   1.655  1.2511  0.4674 -0.8434
 7338TIP3   OH243504   2.825   4.520  16.459  0.1926 -0.4926  0.0616
 7338TIP3    H143505   2.871   4.580  16.517 -0.6006 -1.5232  1.8147
 7338TIP3    H243506   2.795   4.574  16.386 -0.5931  1.2709  1.6434
 7339TIP3   OH243507   0.357   1.503  12.908  0.3457 -0.0470 -0.0914
 7339TIP3    H143508   0.360   1.568  12.979 -1.6553  2.3523 -2.0975
 7339TIP3    H243509   0.278   1.526  12.859  0.7211 -2.7835 -2.0500
 7340TIP3   OH243510   3.777   3.163   4.082  0.1228 -0.2232  0.3000
 7340TIP3    H143511   3.835   3.088   4.089 -0.5683 -0.8132 -0.1361
 7340TIP3    H243512   3.689   3.125   4.079 -0.3067  0.6753  1.3221
 7341TIP3   OH243513   5.198   2.356  15.514  0.1885 -0.0836 -0.5227
 7341TIP3    H143514   5.123   2.327  15.463 -0.3646 -1.4911  1.0805
 7341TIP3    H243515   5.168   2.437  15.557 -0.7082 -1.0632  0.7456
 7342TIP3   OH243516   6.194   6.159  10.956  0.2033  0.0907 -0.4574
 7342TIP3    H143517   6.166   6.237  10.908  0.7645 -0.4524 -1.7111
 7342TIP3    H243518   6.132   6.151  11.028 -1.3091  0.3509 -1.7138
 7343TIP3   OH243519   0.181   6.656  12.377 -0.3615  0.2355 -0.1106
 7343TIP3    H143520   0.236   6.581  12.355  0.4039  1.2977 -1.8974
 7343TIP3    H243521   0.136   6.629  12.457  1.1398 -1.4826  0.2015
 7344TIP3   OH243522   4.299   0.387  11.639 -0.2664  0.2752 -0.1285
 7344TIP3    H143523   4.214   0.427  11.625  0.4308  1.3227 -1.5287
 7344TIP3    H243524   4.316   0.339  11.558  1.9334  2.8302 -1.2543
 7345TIP3   OH243525   3.229   2.792   4.687  0.1768  0.4908  0.4627
 7345TIP3    H143526   3.208   2.885   4.697  0.5259  0.6084  0.1352
 7345TIP3    H243527   3.319   2.785   4.720 -0.2685  0.0471  1.6026
 7346TIP3   OH243528   3.216   6.536   6.012 -0.7286 -0.0668 -0.2659
 7346TIP3    H143529   3.308   6.525   5.991 -0.3560 -0.4264  1.5036
 7346TIP3    H243530   3.188   6.610   5.958  0.7716  0.5143 -0.2648
 7347TIP3   OH243531   2.573   6.710   0.400  0.2963 -0.3277  0.7014
 7347TIP3    H143532   2.597   6.782   0.458 -0.5359 -1.3129  2.3385
 7347TIP3    H243533   2.632   6.717   0.325  0.2568  1.9981  0.8713
 7348TIP3   OH243534   3.614   2.704  16.392  0.4288  0.1502 -0.0789
 7348TIP3    H143535   3.540   2.668  16.440  3.0167 -2.7567  1.9279
 7348TIP3    H243536   3.623   2.648  16.315  0.0011  1.0728 -0.8088
 7349TIP3   OH243537   4.181   1.412  13.907 -0.2009 -0.6534 -0.1049
 7349TIP3    H143538   4.157   1.320  13.895 -3.3320  0.2183 -0.9563
 7349TIP3    H243539   4.137   1.438  13.988 -1.4265  0.7749 -1.2198
 7350TIP3   OH243540   6.312   4.865  12.429 -0.0947  0.1611 -0.3592
 7350TIP3    H143541   6.277   4.825  12.509 -0.0835 -2.5801 -1.6713
 7350TIP3    H243542   6.250   4.840  12.361  0.4178  1.6571 -1.3944
 7351TIP3   OH243543   3.550   1.918   2.920  0.1643 -0.5690  0.7418
 7351TIP3    H143544   3.622   1.896   2.977  0.6363 -1.7300 -0.2888
 7351TIP3    H243545   3.522   1.835   2.882 -0.2802  0.1483 -0.5429
 7352TIP3   OH243546   0.930   2.595  14.728 -0.0858 -0.9765 -0.1091
 7352TIP3    H143547   0.847   2.638  14.748  1.0668  1.0387  0.5479
 7352TIP3    H243548   0.954   2.550  14.810  0.4480  0.1363  0.3560
 7353TIP3   OH243549   5.039   3.357   4.497 -0.9539  0.2163  0.4560
 7353TIP3    H143550   5.035   3.264   4.478 -1.2840  0.2291  0.4709
 7353TIP3    H243551   5.036   3.362   4.592  2.2315  0.0638  0.6122
 7354TIP3   OH243552   4.422   1.575   2.122 -0.0563 -0.2750  0.6502
 7354TIP3    H143553   4.509   1.615   2.128  0.6978 -1.8090  0.4920
 7354TIP3    H243554   4.404   1.545   2.212 -0.7108  0.6296  0.8170
 7355TIP3   OH243555   2.206   1.660  13.476 -0.0018 -0.0327  0.0270
 7355TIP3    H143556   2.147   1.590  13.449  0.0571 -0.2964  0.5799
 7355TIP3    H243557   2.157   1.741  13.460 -0.7587 -0.2762  1.0783
 7356TIP3   OH243558   0.241   0.137  17.023 -0.0017 -0.2144 -0.4646
 7356TIP3    H143559   0.160   0.095  16.993 -0.5275 -0.1689  0.8495
 7356TIP3    H243560   0.292   0.151  16.943 -0.3309 -2.2766 -1.0689
 7357TIP3   OH243561   0.530   4.527  17.181  0.1786 -0.1426  0.6192
 7357TIP3    H143562   0.531   4.600  17.119 -1.7816 -0.1815  0.5259
 7357TIP3    H243563   0.596   4.551  17.246  0.1035  1.3416  0.1741
 7358TIP3   OH243564   6.553   3.495  12.916  0.4696 -0.2421  0.1152
 7358TIP3    H143565   6.644   3.476  12.940  0.7574  1.7558  0.7330
 7358TIP3    H243566   6.554   3.504  12.821  0.9484 -0.1033  0.1322
 7359TIP3   OH243567   5.099   6.742   0.109 -0.3453  0.0743  0.2242
 7359TIP3    H143568   5.169   6.725   0.172 -1.6388 -1.1326  1.3515
 7359TIP3    H243569   5.117   6.684   0.035 -0.2212 -0.3072  0.5589
 7360TIP3   OH243570   3.596   4.120   2.243  0.1122 -0.2816  0.2147
 7360TIP3    H143571   3.573   4.135   2.335 -0.3020 -0.1731  0.0903
 7360TIP3    H243572   3.516   4.138   2.194  0.5754  0.5568 -0.2521
 7361TIP3   OH243573   2.123   4.441  16.529  0.0836 -0.1027 -0.1587
 7361TIP3    H143574   2.125   4.350  16.498 -0.3149 -0.5691  1.1283
 7361TIP3    H243575   2.056   4.441  16.597 -1.2813  1.6027 -1.4643
 7362TIP3   OH243576   5.959   1.719   5.172  0.5573 -0.1649 -0.3488
 7362TIP3    H143577   6.003   1.794   5.214  0.1569  0.6688 -1.3791
 7362TIP3    H243578   6.029   1.656   5.157  1.1506  0.5381 -0.6203
 7363TIP3   OH243579   5.643   4.475   1.189 -0.3553 -0.2011 -0.3597
 7363TIP3    H143580   5.630   4.406   1.124  0.3071 -0.1814 -0.5117
 7363TIP3    H243581   5.619   4.434   1.272  0.0207 -0.6136 -0.4517
 7364TIP3   OH243582   0.949   1.824   6.344 -0.0868  0.2356 -0.1839
 7364TIP3    H143583   1.031   1.823   6.392 -0.8815 -1.1832  1.1630
 7364TIP3    H243584   0.881   1.830   6.411 -1.2059 -1.6316 -1.1107
 7365TIP3   OH243585   2.039   3.471  10.442  0.0328  0.4752  0.1420
 7365TIP3    H143586   2.022   3.564  10.431 -0.8758  0.0901 -2.1191
 7365TIP3    H243587   2.105   3.451  10.375 -0.2410 -0.6190  0.1902
 7366TIP3   OH243588   6.785   4.440  13.854 -0.3039  0.1680 -0.3383
 7366TIP3    H143589   6.827   4.368  13.808 -2.0815 -0.6105 -0.7831
 7366TIP3    H243590   6.852   4.509  13.856  0.6646 -0.6902 -1.8372
 7367TIP3   OH243591   6.427   4.724   6.632 -0.1514  0.6647 -0.0845
 7367TIP3    H143592   6.370   4.686   6.565  1.1056  0.3453 -0.9969
 7367TIP3    H243593   6.513   4.732   6.589  0.3695  1.6270  1.0887
 7368TIP3   OH243594   2.370   0.701  15.242  0.3223 -0.2138 -0.2027
 7368TIP3    H143595   2.313   0.680  15.315 -0.2321 -1.2779 -0.9246
 7368TIP3    H243596   2.360   0.627  15.181  1.3403  0.2888 -1.0054
 7369TIP3   OH243597   2.185   1.870   1.300 -0.2351  0.1325 -0.3435
 7369TIP3    H143598   2.258   1.849   1.241  0.2510 -0.2594  0.3987
 7369TIP3    H243599   2.175   1.792   1.355  0.5430  1.2011  1.3555
 7370TIP3   OH243600   6.329   0.269   5.310 -0.2969  0.4973  0.2948
 7370TIP3    H143601   6.396   0.324   5.269 -1.0698  0.4139 -1.0872
 7370TIP3    H243602   6.249   0.287   5.262 -0.9732 -0.4759  1.0159
 7371TIP3   OH243603   5.459   1.149   5.665 -0.0754  0.1783  0.6443
 7371TIP3    H143604   5.519   1.210   5.622 -1.2527  0.4834 -0.5927
 7371TIP3    H243605   5.481   1.156   5.758  1.6299  0.4622  0.2407
 7372TIP3   OH243606   3.687   4.498  11.305 -0.0900  0.1987 -1.0076
 7372TIP3    H143607   3.774   4.519  11.273 -0.0752 -0.2932 -1.2906
 7372TIP3    H243608   3.695   4.410  11.342 -0.5784 -0.0460 -1.4714
 7373TIP3   OH243609   3.802   6.573   1.945  0.3822  0.1914  0.1054
 7373TIP3    H143610   3.709   6.576   1.921  0.6759  0.4779 -0.9791
 7373TIP3    H243611   3.846   6.630   1.882  1.4227 -0.6498  0.0525
 7374TIP3   OH243612   4.497   2.957   2.857 -0.3951  0.5444  0.1980
 7374TIP3    H143613   4.516   2.895   2.787  0.2763  0.6852  0.2471
 7374TIP3    H243614   4.582   2.971   2.899 -0.6229  1.1872  0.4392
 7375TIP3   OH243615   0.364   3.731   0.438  0.9697 -0.0731  0.1577
 7375TIP3    H143616   0.433   3.678   0.479  1.0886 -1.0735 -1.2796
 7375TIP3    H243617   0.408   3.812   0.412  0.8410  0.6550  2.1803
 7376TIP3   OH243618   4.289   3.489   0.511  0.3635 -0.0224 -0.4693
 7376TIP3    H143619   4.241   3.496   0.429  1.3317  1.4921 -0.9285
 7376TIP3    H243620   4.320   3.578   0.528  1.1270 -0.5448  0.9481
 7377TIP3   OH243621   6.712   6.750  16.699  0.7343  0.5181 -0.1065
 7377TIP3    H143622   6.786   6.691  16.713  1.3619  1.3976  0.3126
 7377TIP3    H243623   6.738   6.831  16.741 -1.3177  0.2297  1.7724
 7378TIP3   OH243624   3.601   3.969   0.531 -0.2972 -0.2887 -0.2742
 7378TIP3    H143625   3.624   4.060   0.549 -0.6805  0.0631 -1.5052
 7378TIP3    H243626   3.677   3.934   0.486 -0.0551 -0.6584  0.4100
 7379TIP3   OH243627   0.285   0.466  15.686 -0.4162 -0.5258 -0.0107
 7379TIP3    H143628   0.266   0.536  15.748 -0.9202 -0.2437 -0.4833
 7379TIP3    H243629   0.268   0.385  15.735 -3.2121 -0.2886 -0.5061
 7380TIP3   OH243630   4.522   4.837   0.503  0.0730  0.0243  0.1300
 7380TIP3    H143631   4.560   4.798   0.424  0.0065  0.7021 -0.2444
 7380TIP3    H243632   4.533   4.931   0.490 -0.9225  0.1815  0.4366
 7381TIP3   OH243633   5.106   0.629  13.043  0.9282 -0.3791 -0.1123
 7381TIP3    H143634   5.033   0.605  13.100 -0.6829  0.1817 -1.8830
 7381TIP3    H243635   5.117   0.723  13.057  0.4596 -0.2204 -0.8009
 7382TIP3   OH243636   5.800   1.190  15.232  0.3369 -0.2702  0.1511
 7382TIP3    H143637   5.884   1.229  15.257 -0.3747 -0.3051  2.7330
 7382TIP3    H243638   5.766   1.249  15.165  0.6497  1.9462  1.8562
 7383TIP3   OH243639   0.738   5.289   2.593  0.2146 -0.1882 -0.3086
 7383TIP3    H143640   0.652   5.318   2.622 -1.0239 -1.5328 -2.5688
 7383TIP3    H243641   0.786   5.370   2.574 -0.9453  0.5158 -0.2429
 7384TIP3   OH243642   1.376   3.728   5.711 -0.1548 -0.1026  0.6095
 7384TIP3    H143643   1.376   3.817   5.677  0.8248 -0.8011 -1.2610
 7384TIP3    H243644   1.293   3.691   5.681  0.0702 -0.2711  0.2009
 7385TIP3   OH243645   5.347   4.698  17.263  0.6089  0.3795 -0.4440
 7385TIP3    H143646   5.285   4.736  17.201 -1.6557 -2.3004  0.0864
 7385TIP3    H243647   5.364   4.610  17.229  3.1917  0.6170  0.1052
 7386TIP3   OH243648   1.497   6.558  11.655 -0.2157 -0.0781 -0.4874
 7386TIP3    H143649   1.514   6.483  11.599  1.1949  0.6755 -1.0944
 7386TIP3    H243650   1.579   6.606  11.657 -1.2108  1.6898 -0.4562
 7387TIP3   OH243651   0.438   2.387  17.185  0.2451  0.7128  0.0742
 7387TIP3    H143652   0.356   2.411  17.228 -0.6181 -0.9381 -0.5938
 7387TIP3    H243653   0.506   2.428  17.239 -1.0089  2.3850  0.4594
 7388TIP3   OH243654   3.231   5.782   6.031  0.5213  0.5883 -0.1560
 7388TIP3    H143655   3.222   5.773   6.126 -1.3759  1.6844 -0.1942
 7388TIP3    H243656   3.324   5.797   6.017  1.2816 -2.4270  1.2570
 7389TIP3   OH243657   5.914   1.260   3.748 -0.4060 -0.6243 -0.0200
 7389TIP3    H143658   5.908   1.318   3.824 -2.2436 -0.4832 -0.2401
 7389TIP3    H243659   5.835   1.206   3.753 -0.5433 -0.6366 -1.7985
 7390TIP3   OH243660   4.659   1.815  15.736  0.1279 -0.2776 -0.0053
 7390TIP3    H143661   4.750   1.846  15.737 -0.3183  1.2777 -3.1355
 7390TIP3    H243662   4.657   1.751  15.666 -0.7542 -1.8477  1.4284
 7391TIP3   OH243663   5.268   4.693  15.303 -0.5676  0.1008 -0.0680
 7391TIP3    H143664   5.244   4.700  15.210  0.8296  0.9335 -0.3825
 7391TIP3    H243665   5.361   4.671  15.302 -0.7486 -0.7360  1.1400
 7392TIP3   OH243666   1.967   3.699  13.908 -0.2402  0.0570 -0.3115
 7392TIP3    H143667   1.995   3.612  13.880 -4.4813 -1.1921 -0.9978
 7392TIP3    H243668   1.993   3.757  13.836  0.8858 -0.9360 -0.7191
 7393TIP3   OH243669   4.822   2.090   4.424 -0.9480  0.0807  0.1244
 7393TIP3    H143670   4.815   2.040   4.343 -0.3801 -1.1260  0.8218
 7393TIP3    H243671   4.742   2.069   4.473 -0.3742 -0.7027  0.7308
 7394TIP3   OH243672   1.722   5.175  11.473 -0.0806  0.7205  0.5759
 7394TIP3    H143673   1.717   5.087  11.434  0.1869 -0.6372  3.4980
 7394TIP3    H243674   1.657   5.226  11.424  0.3810 -0.8464 -1.7450
 7395TIP3   OH243675   2.981   6.209   3.946 -0.4036 -0.3109  0.1895
 7395TIP3    H143676   2.976   6.243   4.035  1.1400  0.8064 -0.1207
 7395TIP3    H243677   2.943   6.277   3.891 -1.7156 -1.1622  0.0066
 7396TIP3   OH243678   4.761   6.166  15.929 -0.1534 -0.1042 -0.0400
 7396TIP3    H143679   4.716   6.229  15.984 -0.4337 -0.5528  0.2460
 7396TIP3    H243680   4.692   6.129  15.874 -0.1840 -0.9625  0.5633
 7397TIP3   OH243681   3.378   6.482   0.853  0.3404 -0.2187 -0.2861
 7397TIP3    H143682   3.375   6.537   0.775 -0.8863 -0.6163 -0.5268
 7397TIP3    H243683   3.340   6.399   0.825 -0.2657 -0.3017  0.7851
 7398TIP3   OH243684   3.885   3.137   2.827 -0.4094 -0.0989  0.0739
 7398TIP3    H143685   3.898   3.199   2.898  1.7210 -1.5733  1.0406
 7398TIP3    H243686   3.811   3.083   2.854 -0.1583 -0.0855  0.7873
 7399TIP3   OH243687   3.278   1.176   2.861  0.7354  0.1136  0.7100
 7399TIP3    H143688   3.348   1.115   2.836  0.0587 -0.3201 -0.1671
 7399TIP3    H243689   3.207   1.119   2.892  0.5753  0.5280  1.1053
 7400TIP3   OH243690   5.498   4.072  16.816 -0.2039  0.0261  0.2535
 7400TIP3    H143691   5.457   3.989  16.841  1.5866 -1.3603 -1.2722
 7400TIP3    H243692   5.569   4.047  16.756 -1.5736  2.8644 -2.7175
 7401TIP3   OH243693   6.286   1.161   6.539  0.0034 -0.0379 -0.5695
 7401TIP3    H143694   6.294   1.072   6.506 -0.5617 -0.1578 -0.3727
 7401TIP3    H243695   6.197   1.187   6.517 -0.3129 -0.0452  0.7175
 7402TIP3   OH243696   2.583   5.860   1.721  0.0701 -0.3593 -0.3192
 7402TIP3    H143697   2.644   5.845   1.793  1.9825 -2.5805 -2.3271
 7402TIP3    H243698   2.503   5.813   1.748 -0.2792  1.3175  1.6512
 7403TIP3   OH243699   0.030   3.191   0.240 -0.4147 -0.0183 -0.7358
 7403TIP3    H143700   0.011   3.284   0.241 -1.0661 -0.1312  2.8744
 7403TIP3    H243701   0.125   3.186   0.252 -0.6415  0.1617  1.2357
 7404TIP3   OH243702   3.924   2.659  11.397 -0.2507 -0.0375  0.0522
 7404TIP3    H143703   3.894   2.575  11.432 -2.5123  0.6279 -0.1768
 7404TIP3    H243704   3.843   2.710  11.384  0.9755  1.7141 -0.9866
 7405TIP3   OH243705   3.757   2.813  11.152  0.4474 -0.0867  0.0777
 7405TIP3    H143706   3.703   2.769  11.087 -0.9787 -0.3092  1.3662
 7405TIP3    H243707   3.827   2.752  11.171  0.5512 -0.2525 -0.8303
 7406TIP3   OH243708   5.759   3.396   3.958  0.2844 -0.5241  0.1541
 7406TIP3    H143709   5.816   3.424   3.886  0.7760 -0.3090  0.6204
 7406TIP3    H243710   5.676   3.440   3.942  0.8770  0.7797  0.5708
 7407TIP3   OH243711   5.745   1.524  15.592 -0.2232  0.3161 -0.0366
 7407TIP3    H143712   5.832   1.529  15.553 -0.4487  2.2379 -0.3103
 7407TIP3    H243713   5.706   1.446  15.553  0.9045  0.1671 -0.8798
 7408TIP3   OH243714   2.261   5.334  13.248 -0.0887 -0.0383  0.8282
 7408TIP3    H143715   2.282   5.395  13.318  0.9363 -2.2724  2.5186
 7408TIP3    H243716   2.166   5.322  13.254 -0.2489  1.1429  0.6709
 7409TIP3   OH243717   2.513   2.921  10.554  0.1279 -0.1932 -0.2838
 7409TIP3    H143718   2.525   2.826  10.550  0.4975 -0.2398  1.5338
 7409TIP3    H243719   2.574   2.951  10.622 -0.4508  1.2605 -0.3766
 7410TIP3   OH243720   6.601   0.503  11.371 -0.0547  0.0446  0.1144
 7410TIP3    H143721   6.589   0.577  11.430  1.1141 -0.2379  0.7156
 7410TIP3    H243722   6.532   0.514  11.305  0.6287  2.1505 -0.2864
 7411TIP3   OH243723   1.131   5.438  13.549  0.1090  0.5129  0.2305
 7411TIP3    H143724   1.161   5.497  13.480 -1.6747  0.0520 -0.9755
 7411TIP3    H243725   1.138   5.489  13.630  1.1159  1.4389 -0.4249
 7412TIP3   OH243726   2.703   0.725   4.961 -0.5412 -0.4766  0.1673
 7412TIP3    H143727   2.697   0.683   5.047  2.3566  0.2929  0.7674
 7412TIP3    H243728   2.668   0.814   4.975 -2.6998 -1.2275 -0.1499
 7413TIP3   OH243729   0.857   5.398  16.576 -0.0237 -0.4227 -0.0756
 7413TIP3    H143730   0.809   5.455  16.636  0.1702  1.4087 -1.6241
 7413TIP3    H243731   0.893   5.329  16.632  0.3241  1.3479  1.9297
 7414TIP3   OH243732   3.468   4.827   0.329 -0.4802 -0.5310  0.7470
 7414TIP3    H143733   3.497   4.848   0.418 -0.8726  0.8040  0.5771
 7414TIP3    H243734   3.376   4.804   0.339 -0.3267 -1.1467  0.7822
 7415TIP3   OH243735   3.653   4.405  16.520  0.2274 -0.5397  0.2772
 7415TIP3    H143736   3.649   4.313  16.496 -1.4580 -0.0354 -1.4495
 7415TIP3    H243737   3.745   4.429  16.507  0.7341 -2.0300  1.0255
 7416TIP3   OH243738   4.344   0.142   5.844 -0.0726 -0.1217  0.8862
 7416TIP3    H143739   4.261   0.104   5.816  0.2750 -0.2895  0.0672
 7416TIP3    H243740   4.326   0.236   5.853 -0.2928 -0.1259  0.4956
 7417TIP3   OH243741   1.867   2.810  15.098 -0.6033 -0.4980 -0.3451
 7417TIP3    H143742   1.963   2.814  15.099 -0.5512 -1.7557  0.8900
 7417TIP3    H243743   1.840   2.878  15.160 -0.4835 -0.7793  0.0171
 7418TIP3   OH243744   1.337   4.675   6.101 -0.0661  0.0743 -1.1661
 7418TIP3    H143745   1.318   4.653   6.192 -1.1230  0.3024 -1.3345
 7418TIP3    H243746   1.410   4.618   6.078 -0.3605 -0.6007 -0.4434
 7419TIP3   OH243747   3.580   1.636   4.000 -0.6023  0.2238  0.3055
 7419TIP3    H143748   3.610   1.594   4.080  1.7458 -1.3691 -1.3746
 7419TIP3    H243749   3.494   1.597   3.983  0.0869 -1.4239  0.5643
 7420TIP3   OH243750   0.112   3.072   6.501 -0.0343  0.3674 -0.8424
 7420TIP3    H143751   0.172   3.145   6.517 -0.5710  0.6422 -0.0528
 7420TIP3    H243752   0.160   3.015   6.440  0.0563  1.7762 -2.1135
 7421TIP3   OH243753   2.295   4.074  14.614 -0.4577  0.0778 -0.3840
 7421TIP3    H143754   2.288   4.110  14.702  2.5185 -1.1043  0.3740
 7421TIP3    H243755   2.239   3.996  14.615 -1.2571  0.6467  0.1009
 7422TIP3   OH243756   1.134   2.179  16.554  0.6511 -0.4776  0.2033
 7422TIP3    H143757   1.087   2.174  16.470  2.1523  0.0842 -0.6836
 7422TIP3    H243758   1.072   2.223  16.613 -0.3346 -0.6819 -0.6532
 7423TIP3   OH243759   3.032   2.705   1.972 -0.3015  0.2756 -0.0121
 7423TIP3    H143760   3.043   2.780   2.030 -0.8167 -0.4891  1.1129
 7423TIP3    H243761   3.083   2.726   1.894  1.9150  0.5482  1.4623
 7424TIP3   OH243762   3.845   4.984   4.913 -0.2506 -0.0617 -0.0105
 7424TIP3    H143763   3.897   4.929   4.971 -0.6970  0.9403  1.3556
 7424TIP3    H243764   3.787   4.923   4.867  1.8195 -1.1374 -1.2612
 7425TIP3   OH243765   6.385   0.830  16.251  0.1525 -0.2864  0.0171
 7425TIP3    H143766   6.364   0.739  16.272 -1.1313 -0.1823 -0.8259
 7425TIP3    H243767   6.474   0.826  16.214 -1.1333 -1.6445 -3.1144
 7426TIP3   OH243768   5.935   4.726  16.195 -0.4359  0.0736  0.2501
 7426TIP3    H143769   6.020   4.747  16.234 -0.4482 -0.7051  0.7094
 7426TIP3    H243770   5.893   4.811  16.183  0.1835  0.4268  0.5415
 7427TIP3   OH243771   2.859   6.353  14.176 -0.0174 -0.2339 -0.1934
 7427TIP3    H143772   2.817   6.396  14.101  0.3291  0.6326  0.0982
 7427TIP3    H243773   2.927   6.298  14.137  0.5554  0.6620 -0.4940
 7428TIP3   OH243774   3.040   5.710   3.973  0.1601  0.1062  0.3978
 7428TIP3    H143775   3.087   5.681   3.895 -0.2058 -2.2993  1.0373
 7428TIP3    H243776   2.948   5.689   3.955  0.0919 -0.5952  1.5113
 7429TIP3   OH243777   3.804   4.628  15.103  0.5900  0.2519 -0.5927
 7429TIP3    H143778   3.720   4.674  15.094 -0.1377 -0.8072  0.5872
 7429TIP3    H243779   3.796   4.552  15.046  0.5432 -0.1248 -0.0870
 7430TIP3   OH243780   4.511   5.787   1.382 -0.3971  0.5183  0.5455
 7430TIP3    H143781   4.543   5.740   1.459  0.9784 -1.6779 -1.3135
 7430TIP3    H243782   4.491   5.719   1.318  1.2711  2.4125 -2.0911
 7431TIP3   OH243783   5.441   3.716  12.175 -0.1604 -0.0778 -0.0158
 7431TIP3    H143784   5.382   3.754  12.111  1.3906  0.1291 -1.3574
 7431TIP3    H243785   5.520   3.694  12.125 -0.1020 -2.8735  1.1772
 7432TIP3   OH243786   5.742   1.075   0.517 -0.1378  0.0381  0.4619
 7432TIP3    H143787   5.700   0.991   0.496 -3.4249  1.3664  1.4655
 7432TIP3    H243788   5.671   1.139   0.515  2.2218  2.7272  0.3157
 7433TIP3   OH243789   2.998   1.208  14.255  0.1541  0.1277 -0.0808
 7433TIP3    H143790   2.964   1.277  14.198  1.1654 -0.0461 -0.9324
 7433TIP3    H243791   2.993   1.129  14.201  1.6629  0.0659 -0.1590
 7434TIP3   OH243792   0.119   6.416  13.876  0.3939  0.6361 -0.6992
 7434TIP3    H143793   0.085   6.499  13.844 -1.5535 -0.0929 -0.6033
 7434TIP3    H243794   0.091   6.411  13.967  1.6647  0.4822 -0.3119
 7435TIP3   OH243795   4.971   1.715   0.477 -0.1471 -0.1497 -0.5513
 7435TIP3    H143796   4.997   1.651   0.544 -1.4957 -0.5838 -0.4198
 7435TIP3    H243797   5.026   1.791   0.494 -0.4585 -0.2599  1.0440
 7436TIP3   OH243798   2.725   4.609   1.950 -0.0551  0.2880  0.4733
 7436TIP3    H143799   2.704   4.661   2.028  0.7977 -2.4583  2.6223
 7436TIP3    H243800   2.801   4.556   1.976  0.0957 -0.8765 -2.1534
 7437TIP3   OH243801   1.579   3.964   4.818 -0.4798  0.1116 -0.2871
 7437TIP3    H143802   1.604   4.046   4.776  0.0614  0.0185 -0.1440
 7437TIP3    H243803   1.640   3.954   4.890  0.2367 -1.0315 -1.0347
 7438TIP3   OH243804   3.497   3.810   3.296 -0.6040  0.4818  0.2160
 7438TIP3    H143805   3.425   3.828   3.356 -0.4255  0.5041  0.4249
 7438TIP3    H243806   3.575   3.806   3.352 -0.1079  2.7223 -0.2761
 7439TIP3   OH243807   3.646   5.990  17.029  0.5226 -0.0226 -0.0892
 7439TIP3    H143808   3.713   5.927  17.000 -1.7240 -1.5026 -2.1958
 7439TIP3    H243809   3.641   6.054  16.958  0.9702  1.1196  0.8969
 7440TIP3   OH243810   1.751   4.516   0.632  0.1544  0.5120  0.3270
 7440TIP3    H143811   1.806   4.478   0.700  1.3733  0.3685 -0.7166
 7440TIP3    H243812   1.786   4.481   0.550 -0.1132  2.1309 -0.5001
 7441TIP3   OH243813   6.463   4.678  14.295 -0.2969 -0.3053  0.1842
 7441TIP3    H143814   6.512   4.624  14.357  0.8233 -0.9341 -1.2172
 7441TIP3    H243815   6.401   4.617  14.254  2.3073 -1.0461 -2.8268
 7442TIP3   OH243816   6.025   1.956   5.333  1.1310  0.4209 -0.2379
 7442TIP3    H143817   5.938   1.995   5.319  1.9821  2.0786 -1.0052
 7442TIP3    H243818   6.032   1.947   5.428 -0.4010 -0.9653 -0.2231
 7443TIP3   OH243819   4.409   1.971  10.940 -0.7275  0.7755 -0.0468
 7443TIP3    H143820   4.350   1.928  10.878 -0.1346  0.0441 -0.1222
 7443TIP3    H243821   4.496   1.956  10.903 -0.3929  0.5965  0.8087
 7444TIP3   OH243822   5.356   6.042  17.000  0.3217  0.3440  0.0146
 7444TIP3    H143823   5.331   6.038  16.908 -2.1970  1.5582  0.5986
 7444TIP3    H243824   5.338   6.132  17.027  0.0221 -0.2536  1.9484
 7445TIP3   OH243825   4.493   3.850   1.966  0.7804 -0.0057 -0.1731
 7445TIP3    H143826   4.471   3.942   1.947  1.9394  0.1405 -0.8549
 7445TIP3    H243827   4.488   3.807   1.881  1.7084 -0.2615 -0.1037
 7446TIP3   OH243828   0.156   1.075  16.475 -0.1700  0.2384 -0.0293
 7446TIP3    H143829   0.127   1.163  16.502 -1.0594 -0.2410  0.6262
 7446TIP3    H243830   0.203   1.042  16.552  0.5603  0.3178 -0.4425
 7447TIP3   OH243831   0.585   5.729  13.380  0.3623 -0.5247 -0.3058
 7447TIP3    H143832   0.675   5.755  13.400  1.0395 -1.7793 -1.6486
 7447TIP3    H243833   0.556   5.683  13.459  1.6978 -2.0791 -0.6778
 7448TIP3   OH243834   5.321   2.738  10.790 -0.0134 -0.5904 -0.1780
 7448TIP3    H143835   5.305   2.832  10.800  0.2872 -0.7539  2.0955
 7448TIP3    H243836   5.265   2.698  10.856  3.2107 -1.7165  1.9687
 7449TIP3   OH243837   3.838   2.278  11.050  0.4687 -0.2823 -0.5068
 7449TIP3    H143838   3.909   2.335  11.022 -1.1840  2.0902 -0.0201
 7449TIP3    H243839   3.786   2.331  11.111 -1.2842 -2.2003 -0.2529
 7450TIP3   OH243840   1.387   6.688   1.852 -0.0389  0.3164 -0.2276
 7450TIP3    H143841   1.353   6.720   1.768 -1.2238  0.6040  0.3574
 7450TIP3    H243842   1.372   6.594   1.850  0.9154  0.1613 -0.7749
 7451TIP3   OH243843   5.578   5.511  11.439  0.2449  0.0815  0.1130
 7451TIP3    H143844   5.548   5.429  11.400 -0.7009 -0.0990  1.2122
 7451TIP3    H243845   5.629   5.552  11.370 -1.2021 -0.3492 -1.2517
 7452TIP3   OH243846   2.785   1.672  17.206  0.2503 -0.0700  0.2041
 7452TIP3    H143847   2.877   1.644  17.197 -0.0771 -0.4370 -2.3934
 7452TIP3    H243848   2.772   1.680  17.301  2.6625 -1.0128  0.6665
 7453TIP3   OH243849   0.964   0.163  16.675  0.0703 -0.6911 -0.0520
 7453TIP3    H143850   0.968   0.078  16.631  1.2306 -1.1240  0.8787
 7453TIP3    H243851   1.055   0.192  16.682 -0.1573 -0.2512  1.3149
 7454TIP3   OH243852   6.225   2.218  15.450  0.3081  0.6117  0.4022
 7454TIP3    H143853   6.306   2.170  15.438  0.0613  0.3463 -0.2069
 7454TIP3    H243854   6.208   2.259  15.366  0.4876  1.7249  0.9088
 7455TIP3   OH243855   1.946   3.630   3.150  0.6355  0.1202  0.0208
 7455TIP3    H143856   2.019   3.689   3.128  1.0629 -0.6127 -0.5468
 7455TIP3    H243857   1.871   3.688   3.162  1.0976  0.7983 -0.3530
 7456TIP3   OH243858   0.281   6.377   5.802 -0.5529  0.1183  0.8112
 7456TIP3    H143859   0.205   6.344   5.850 -0.8732  1.7803  1.4627
 7456TIP3    H243860   0.350   6.382   5.868 -0.3625  0.2745  0.5981
 7457TIP3   OH243861   1.889   2.615  12.628  0.1172 -0.1190  0.6848
 7457TIP3    H143862   1.922   2.578  12.546 -1.4191 -2.8193  1.2411
 7457TIP3    H243863   1.805   2.655  12.605  0.8265  1.3161  0.4953
 7458TIP3   OH243864   2.499   5.189  13.353 -0.7800  0.0842 -0.2344
 7458TIP3    H143865   2.502   5.217  13.445  3.0986  2.3342 -0.9368
 7458TIP3    H243866   2.427   5.238  13.315 -2.0278 -0.4028  1.4384
 7459TIP3   OH243867   1.682   6.780  13.227 -0.0052  0.9007 -0.0749
 7459TIP3    H143868   1.635   6.756  13.147  3.6291 -2.3769 -1.3645
 7459TIP3    H243869   1.635   6.736  13.297  1.4276 -2.9626 -1.4282
 7460TIP3   OH243870   3.349   2.455   4.022 -1.3214  0.1319  0.2852
 7460TIP3    H143871   3.287   2.390   4.056  1.1660 -0.9957  2.8553
 7460TIP3    H243872   3.317   2.538   4.056 -0.7245 -0.6048  2.7258
 7461TIP3   OH243873   1.906   6.441  14.265 -0.0555  0.2059  0.0599
 7461TIP3    H143874   1.967   6.387  14.316 -0.4226  0.2045  0.5001
 7461TIP3    H243875   1.963   6.495  14.209  0.2715 -1.9926 -1.7840
 7462TIP3   OH243876   3.141   3.803  12.975  0.9112 -0.3930  0.4486
 7462TIP3    H143877   3.192   3.874  13.016 -2.6540  1.7977  1.2582
 7462TIP3    H243878   3.137   3.736  13.043 -0.4291  1.0103  1.8093
 7463TIP3   OH243879   1.017   2.431   5.386 -0.0530  0.2447 -0.7004
 7463TIP3    H143880   0.995   2.490   5.457 -1.3926 -0.7127 -0.2824
 7463TIP3    H243881   0.942   2.436   5.327  0.0288 -0.6658 -0.8947
 7464TIP3   OH243882   4.261   5.969  13.877  0.2148  0.0081  0.4748
 7464TIP3    H143883   4.316   5.892  13.861  0.1092  0.1425 -0.6129
 7464TIP3    H243884   4.315   6.028  13.930  0.7817 -0.2461  0.1787
 7465TIP3   OH243885   6.395   1.623  14.752 -0.1751 -0.2625  0.3525
 7465TIP3    H143886   6.371   1.710  14.721 -1.7312 -1.5306 -2.1025
 7465TIP3    H243887   6.491   1.622  14.749 -0.1399  1.3879  0.5247
 7466TIP3   OH243888   5.407   0.760  15.699  0.3661  0.2086 -0.2535
 7466TIP3    H143889   5.371   0.699  15.635  1.0411  0.6470 -1.0484
 7466TIP3    H243890   5.495   0.781  15.667  0.3586  1.1610  0.3152
 7467TIP3   OH243891   0.776   0.735   5.081 -0.2057 -1.1297  0.1385
 7467TIP3    H143892   0.869   0.728   5.063  0.3666 -0.2487  2.5865
 7467TIP3    H243893   0.765   0.697   5.168 -1.5985  1.6638  1.2401
 7468TIP3   OH243894   5.166   0.261  10.841 -0.1583 -0.2745  0.2721
 7468TIP3    H143895   5.149   0.167  10.845  0.1417 -0.3752 -0.6710
 7468TIP3    H243896   5.134   0.289  10.755  0.7373  0.2711  0.0954
 7469TIP3   OH243897   0.314   2.784  16.055 -0.1422 -0.3832  0.1943
 7469TIP3    H143898   0.403   2.819  16.066 -0.2211  0.7795 -2.4207
 7469TIP3    H243899   0.257   2.860  16.065 -0.6726 -0.6916 -0.4449
 7470TIP3   OH243900   6.478   1.002   2.464 -0.8106  0.2040  0.0540
 7470TIP3    H143901   6.513   1.085   2.430 -1.3866  0.2977 -0.3167
 7470TIP3    H243902   6.411   1.029   2.527  0.3182  0.0348  1.3556
 7471TIP3   OH243903   5.382   5.792  13.979 -0.7273  0.3940 -0.2671
 7471TIP3    H143904   5.444   5.865  13.981 -0.2913  0.0254 -0.0871
 7471TIP3    H243905   5.430   5.721  13.937 -0.6506 -0.2337  0.8484
 7472TIP3   OH243906   3.901   0.836  14.153  0.3834  0.1982 -0.8817
 7472TIP3    H143907   3.843   0.834  14.077 -1.0822 -0.5745  0.2383
 7472TIP3    H243908   3.907   0.744  14.181  1.5743  0.3640 -0.5622
 7473TIP3   OH243909   2.888   2.877  14.244  0.3306 -0.4655 -0.1356
 7473TIP3    H143910   2.833   2.801  14.225 -2.2143  0.7714  2.0044
 7473TIP3    H243911   2.951   2.846  14.309  0.5686 -1.2468 -0.7378
 7474TIP3   OH243912   2.555   6.770  11.107 -0.7549  0.0366  0.2363
 7474TIP3    H143913   2.554   6.786  11.201 -0.1567  0.3765  0.1868
 7474TIP3    H243914   2.605   6.843  11.071 -1.1898  0.0376 -0.3721
 7475TIP3   OH243915   2.233   1.191  11.724  0.2160 -0.1926 -0.4572
 7475TIP3    H143916   2.161   1.129  11.729  0.1181 -0.0195  0.3319
 7475TIP3    H243917   2.227   1.229  11.636 -1.3892  0.7124  0.0328
 7476TIP3   OH243918   0.973   4.864  11.844 -0.2102  0.1055  0.0252
 7476TIP3    H143919   0.952   4.773  11.864  1.6567 -0.2853  0.3506
 7476TIP3    H243920   0.950   4.874  11.752 -1.0676 -0.4910  0.1689
 7477TIP3   OH243921   5.106   3.929   3.356 -0.3164 -0.0032 -0.3498
 7477TIP3    H143922   5.175   3.970   3.408 -0.4214 -0.0027 -0.2112
 7477TIP3    H243923   5.070   3.862   3.413  0.5679 -1.0046 -0.9531
 7478TIP3   OH243924   3.556   2.348   4.573  0.1524  0.2796  0.2526
 7478TIP3    H143925   3.486   2.389   4.522  0.4824 -0.3465 -0.7143
 7478TIP3    H243926   3.544   2.382   4.662 -3.2101 -2.1085  0.8019
 7479TIP3   OH243927   1.932   6.251   6.244  0.7304  0.3585  0.4925
 7479TIP3    H143928   1.855   6.193   6.241  0.3763  0.8786 -1.5588
 7479TIP3    H243929   1.962   6.247   6.335 -0.4157 -1.5690  0.8167
 7480TIP3   OH243930   1.513   1.086   3.549  0.5985 -0.3155 -0.0312
 7480TIP3    H143931   1.511   1.133   3.633  0.7441  0.1926 -0.3067
 7480TIP3    H243932   1.450   1.015   3.559  0.1656  0.1110  0.2985
 7481TIP3   OH243933   5.050   1.580  13.354  0.6331 -0.5551  0.7782
 7481TIP3    H143934   5.031   1.650  13.291  0.2235 -1.9318 -0.6781
 7481TIP3    H243935   5.018   1.613  13.438  0.3997  0.9799  0.0977
 7482TIP3   OH243936   3.699   4.390   5.687 -0.0240 -1.0470  0.3005
 7482TIP3    H143937   3.670   4.356   5.772 -0.5466 -0.0514  0.5300
 7482TIP3    H243938   3.618   4.409   5.640  0.2643 -0.9181 -0.1409
 7483TIP3   OH243939   0.621   3.121   5.629  0.2468  0.2210 -0.5224
 7483TIP3    H143940   0.645   3.123   5.536  2.1943  0.6796 -0.0451
 7483TIP3    H243941   0.573   3.202   5.644  2.2571  1.4776 -0.5790
 7484TIP3   OH243942   3.119   2.889   1.283  0.0880  0.1337  0.0887
 7484TIP3    H143943   3.155   2.899   1.195  0.3762  0.4655  0.2420
 7484TIP3    H243944   3.195   2.894   1.341 -0.3688  2.5927  0.5269
 7485TIP3   OH243945   0.690   2.422   1.379  0.3603  0.1067  0.4115
 7485TIP3    H143946   0.651   2.448   1.463  1.6677 -0.7657  1.3204
 7485TIP3    H243947   0.639   2.346   1.352 -0.9685  1.2347 -0.3056
 7486TIP3   OH243948   4.394   0.433   3.059  0.0862  0.1178 -0.4695
 7486TIP3    H143949   4.431   0.449   2.972  0.4242 -0.4509 -0.4311
 7486TIP3    H243950   4.307   0.474   3.056  0.3301  0.6111 -0.8778
 7487TIP3   OH243951   0.709   3.615  11.926  0.1050 -0.2172 -0.2774
 7487TIP3    H143952   0.688   3.650  11.840 -0.4822  1.8832  0.6864
 7487TIP3    H243953   0.716   3.520  11.913  1.8036  0.2269 -2.9784
 7488TIP3   OH243954   5.285   0.358  16.447 -0.7154 -0.1623 -0.5328
 7488TIP3    H143955   5.217   0.295  16.421 -0.9326 -0.7904  1.4613
 7488TIP3    H243956   5.318   0.324  16.530 -0.8136  2.3420  0.5711
 7489TIP3   OH243957   3.041   6.157   4.449 -0.1896 -0.3718  0.8760
 7489TIP3    H143958   3.090   6.075   4.455 -1.3519 -1.1017  0.5225
 7489TIP3    H243959   3.096   6.213   4.393  0.6573 -0.8559  1.2053
 7490TIP3   OH243960   4.290   0.158  14.197 -0.1925 -0.3050  0.3526
 7490TIP3    H143961   4.212   0.169  14.142  0.5129  0.0934 -0.5848
 7490TIP3    H243962   4.261   0.184  14.285 -1.4627 -1.4324  0.2738
 7491TIP3   OH243963   4.289   5.311   5.056 -0.1326  0.2893  0.6966
 7491TIP3    H143964   4.221   5.260   5.099 -0.3896  0.1340  0.1005
 7491TIP3    H243965   4.363   5.251   5.048  0.6055  0.8744  2.6552
 7492TIP3   OH243966   6.637   2.238   1.989  0.2545 -0.1383 -0.2992
 7492TIP3    H143967   6.591   2.164   2.031  0.2781  0.8740  1.5703
 7492TIP3    H243968   6.569   2.286   1.944 -0.0918 -0.1561  0.2023
 7493TIP3   OH243969   0.522   4.012  12.088 -0.5809 -0.0219  0.0594
 7493TIP3    H143970   0.538   4.106  12.086 -0.9831  0.1433  2.3945
 7493TIP3    H243971   0.442   4.000  12.036  0.2780  0.7208 -1.4487
 7494TIP3   OH243972   0.396   1.905  16.699  0.5273  0.5855 -0.1396
 7494TIP3    H143973   0.371   1.968  16.632  0.3718 -0.0024 -0.6401
 7494TIP3    H243974   0.426   1.828  16.650  0.2836  0.1019  0.4593
 7495TIP3   OH243975   2.695   1.165   5.526  0.4164  0.1635 -0.2443
 7495TIP3    H143976   2.718   1.073   5.522  2.1607  0.5581  0.2461
 7495TIP3    H243977   2.666   1.179   5.616  2.1638  0.5314  0.2787
 7496TIP3   OH243978   4.339   0.343  13.314 -0.4375 -0.1733 -0.6857
 7496TIP3    H143979   4.328   0.430  13.277  3.3818 -0.1070 -1.9303
 7496TIP3    H243980   4.365   0.289  13.240 -1.4945 -2.1010  0.3146
 7497TIP3   OH243981   4.928   4.625   5.379  0.0618  0.4057  0.1030
 7497TIP3    H143982   4.914   4.551   5.439  1.0366  1.0361  1.1295
 7497TIP3    H243983   4.948   4.698   5.437  1.6150  0.8905 -1.0312
 7498TIP3   OH243984   1.509   4.402   2.115  0.3625 -0.6629 -0.4964
 7498TIP3    H143985   1.551   4.472   2.166 -3.6059  0.8345  0.9164
 7498TIP3    H243986   1.532   4.422   2.024  2.0594  0.5116  0.1662
 7499TIP3   OH243987   0.763   5.095   4.274  0.1273  0.4473  0.4874
 7499TIP3    H143988   0.853   5.096   4.241 -0.1665  1.3467 -0.3352
 7499TIP3    H243989   0.743   5.003   4.286 -0.2747 -0.0620 -3.3782
 7500TIP3   OH243990   4.836   4.003   6.063 -0.3564 -0.0764 -0.1705
 7500TIP3    H143991   4.752   3.976   6.100 -0.2434 -1.5669 -0.9527
 7500TIP3    H243992   4.815   4.078   6.007 -1.3161 -0.9604 -1.0228
 7501TIP3   OH243993   3.480   0.656  15.439 -0.7833 -0.3627  0.2584
 7501TIP3    H143994   3.430   0.697  15.510 -1.5415  0.3106 -0.6517
 7501TIP3    H243995   3.518   0.730  15.391 -0.2967 -0.8102 -0.0518
 7502TIP3   OH243996   1.922   2.272  12.535  0.5841  0.0191 -0.1268
 7502TIP3    H143997   1.874   2.308  12.460 -0.6652 -0.6053  0.3503
 7502TIP3    H243998   2.002   2.323  12.539 -0.3933  1.6091 -0.4781
 7503TIP3   OH243999   1.617   1.621   0.491  0.2750 -0.4282 -0.4776
 7503TIP3    H144000   1.652   1.677   0.560 -0.4896  0.5701 -0.9011
 7503TIP3    H244001   1.540   1.580   0.531  0.0303 -0.1151 -0.6352
 7504TIP3   OH244002   3.102   2.079   4.210 -0.7786 -0.2108 -0.2099
 7504TIP3    H144003   3.194   2.057   4.227 -0.6077  0.0109 -0.8168
 7504TIP3    H244004   3.075   2.130   4.286  0.3630  1.9064 -1.2025
 7505TIP3   OH244005   4.105   1.323   6.380  0.3048 -0.6268  0.3121
 7505TIP3    H144006   4.037   1.390   6.377 -1.9949 -2.8482  1.4355
 7505TIP3    H244007   4.159   1.348   6.456 -0.2435  0.2251  0.4257
 7506TIP3   OH244008   5.410   1.069  11.425  0.2741  0.9523  0.5671
 7506TIP3    H144009   5.466   1.130  11.472 -0.6689  1.9605  0.3952
 7506TIP3    H244010   5.372   1.014  11.494  0.9143  0.7240  0.7407
 7507TIP3   OH244011   0.622   1.578  10.373 -0.1943 -0.2021  0.0765
 7507TIP3    H144012   0.539   1.601  10.332 -0.8231 -0.2686  1.2946
 7507TIP3    H244013   0.644   1.654  10.427 -0.3645 -0.8900  1.1340
 7508TIP3   OH244014   1.671   5.128  16.102 -0.2761  0.2816  0.0434
 7508TIP3    H144015   1.750   5.176  16.078  0.3368 -0.3411  0.8225
 7508TIP3    H244016   1.610   5.147  16.031  1.2282 -0.8014 -1.5912
 7509TIP3   OH244017   2.776   2.701  16.455  0.2608  0.7304 -0.0671
 7509TIP3    H144018   2.817   2.668  16.375 -0.3878  0.6970 -0.3881
 7509TIP3    H244019   2.753   2.623  16.505 -0.2024  0.7243 -0.2860
 7510TIP3   OH244020   2.500   6.540  16.605 -0.0050 -0.3771  0.2814
 7510TIP3    H144021   2.418   6.577  16.636 -0.2025 -0.2760 -0.3548
 7510TIP3    H244022   2.568   6.586  16.656 -0.2653  0.5457 -0.1887
 7511TIP3   OH244023   2.062   1.379   0.192  0.2239  0.1837  0.2575
 7511TIP3    H144024   1.997   1.372   0.262  1.5120  0.9353  1.5627
 7511TIP3    H244025   2.138   1.419   0.234  0.7965  1.2667 -1.7243
 7512TIP3   OH244026   3.989   0.018  11.428  0.1128 -0.0401 -0.2224
 7512TIP3    H144027   3.984   0.045  11.336 -0.1942 -3.5514 -1.3197
 7512TIP3    H244028   3.904  -0.022  11.445  0.2866  0.3012  1.5145
 7513TIP3   OH244029   1.657   0.014   0.763 -0.5351 -0.5321  0.3272
 7513TIP3    H144030   1.662   0.106   0.737  0.4077 -0.6905 -0.0676
 7513TIP3    H244031   1.569   0.005   0.800 -2.2514 -0.4423 -3.4467
 7514TIP3   OH244032   5.740   2.549  15.253 -0.7482 -0.0157  0.0383
 7514TIP3    H144033   5.746   2.555  15.348 -0.2702  0.0611  0.0035
 7514TIP3    H244034   5.749   2.456  15.234  2.1729  0.2466 -0.1313
 7515TIP3   OH244035   5.067   1.663   1.308 -0.0698  0.3390 -0.0056
 7515TIP3    H144036   5.011   1.618   1.245  1.3983 -0.4644 -0.7634
 7515TIP3    H244037   5.007   1.720   1.357 -2.1128 -2.9261  1.4676
 7516TIP3   OH244038   6.709   5.572   0.780  0.3660 -0.1665 -0.2760
 7516TIP3    H144039   6.727   5.572   0.874  1.1781 -2.3567 -0.4024
 7516TIP3    H244040   6.614   5.576   0.774  0.3675  2.3632  0.5576
 7517TIP3   OH244041   1.942   4.184   2.976 -0.6371  0.0697 -0.5795
 7517TIP3    H144042   1.871   4.249   2.973 -0.7714  0.0843  2.0870
 7517TIP3    H244043   1.910   4.111   2.922 -1.1812  1.5050 -2.2552
 7518TIP3   OH244044   6.736   3.377  16.633  0.1540  0.0668  0.6085
 7518TIP3    H144045   6.818   3.371  16.682  0.2346  0.1500  0.4846
 7518TIP3    H244046   6.763   3.381  16.541 -0.0545 -1.6705  0.4587
 7519TIP3   OH244047   2.549   2.617  12.517 -0.5792 -0.5075  0.4107
 7519TIP3    H144048   2.537   2.551  12.449 -1.5964  0.5573 -0.4720
 7519TIP3    H244049   2.599   2.573  12.586  2.6168 -0.9184 -2.0615
 7520TIP3   OH244050   4.774   3.323  17.150  0.8720  0.2489 -0.3368
 7520TIP3    H144051   4.766   3.348  17.057  1.4629 -2.1487 -1.0763
 7520TIP3    H244052   4.686   3.298  17.176  0.8925 -0.0122 -0.5240
 7521TIP3   OH244053   6.790   4.805   4.920 -0.4053  0.2975 -0.8100
 7521TIP3    H144054   6.760   4.819   4.830  0.3310  1.1381 -0.9222
 7521TIP3    H244055   6.883   4.784   4.911  0.0527  1.9547 -0.1405
 7522TIP3   OH244056   2.212   4.784   5.913 -0.0793 -0.0627  0.2128
 7522TIP3    H144057   2.217   4.853   5.979  0.9441  0.3503 -0.2817
 7522TIP3    H244058   2.153   4.819   5.846  0.6151  0.4262 -0.1443
 7523TIP3   OH244059   4.553   1.478  11.247 -0.3558 -0.0374  0.0616
 7523TIP3    H144060   4.569   1.402  11.191  2.5644 -0.1076  0.9129
 7523TIP3    H244061   4.534   1.440  11.333 -0.4940  0.1680  0.1215
 7524TIP3   OH244062   4.854   3.769   0.199 -0.2482 -0.2964 -0.5529
 7524TIP3    H144063   4.896   3.726   0.124 -1.2215  0.6867 -1.6856
 7524TIP3    H244064   4.926   3.789   0.259  0.5981 -0.7269 -1.4131
 7525TIP3   OH244065   4.571   6.518   3.472 -0.4338  0.0326  0.1168
 7525TIP3    H144066   4.537   6.548   3.387 -0.8556  2.0937  0.9669
 7525TIP3    H244067   4.651   6.470   3.450 -2.5344 -2.7863 -1.7131
 7526TIP3   OH244068   2.074   3.933  13.775  0.2067 -0.4688 -0.1230
 7526TIP3    H144069   2.045   3.930  13.866 -0.8736 -1.4991 -0.4863
 7526TIP3    H244070   2.013   3.993  13.732 -0.3085 -1.2480 -0.5028
 7527TIP3   OH244071   1.412   6.021   1.651  0.1058 -0.2259  0.1705
 7527TIP3    H144072   1.480   5.993   1.713  0.2231  0.0767  0.1808
 7527TIP3    H244073   1.331   5.983   1.684  0.6329 -2.5332 -1.1151
 7528TIP3   OH244074   3.470   5.092  15.035 -0.0422  0.3360  0.2290
 7528TIP3    H144075   3.407   5.084  15.107 -0.4327 -0.6686 -0.2088
 7528TIP3    H244076   3.519   5.010  15.038  0.7852  0.8295  0.1323
 7529TIP3   OH244077   4.571   3.516  12.508 -0.5331  0.1837  0.1657
 7529TIP3    H144078   4.656   3.558  12.494  0.0745 -0.7619  0.9064
 7529TIP3    H244079   4.531   3.512  12.421  1.4810 -2.0799 -0.7228
 7530TIP3   OH244080   5.575   1.743  15.316 -0.5705 -0.5497 -0.6673
 7530TIP3    H144081   5.578   1.727  15.221  0.6720  2.2024 -1.1589
 7530TIP3    H244082   5.647   1.691  15.351 -2.0184 -2.8301 -0.9892
 7531TIP3   OH244083   2.761   4.663  15.370  0.1998 -0.5050 -0.2920
 7531TIP3    H144084   2.695   4.623  15.426  1.4664 -0.1968  1.4693
 7531TIP3    H244085   2.711   4.708  15.302 -1.3557 -1.1512  0.3984
 7532TIP3   OH244086   6.630   1.752  16.538 -0.1985  0.7687 -0.1431
 7532TIP3    H144087   6.615   1.827  16.480  0.1467  1.3018  0.4484
 7532TIP3    H244088   6.622   1.788  16.626  1.3783  0.4287  0.1581
 7533TIP3   OH244089   6.800   4.039   3.652 -0.6473  0.4326  1.1189
 7533TIP3    H144090   6.800   4.081   3.567  0.2676  1.4652  1.6151
 7533TIP3    H244091   6.864   3.968   3.643 -0.7557  0.3673  0.8613
 7534TIP3   OH244092   2.371   2.139   2.988  0.6412  0.0116 -0.1852
 7534TIP3    H144093   2.308   2.134   2.916 -0.4677  1.0431  0.7060
 7534TIP3    H244094   2.421   2.219   2.971  1.1896 -0.3779 -0.4447
 7535TIP3   OH244095   3.843   5.238   4.219 -0.3673 -0.1617 -0.0118
 7535TIP3    H144096   3.827   5.145   4.233 -2.1027  0.2499  0.9640
 7535TIP3    H244097   3.927   5.254   4.262 -0.3686 -1.1449  0.3759
 7536TIP3   OH244098   4.316   5.110  16.873  0.3489  0.4820 -0.3946
 7536TIP3    H144099   4.291   5.117  16.781  1.4065  2.8723 -0.5384
 7536TIP3    H244100   4.237   5.082  16.918 -0.0959 -1.0122 -2.0618
 7537TIP3   OH244101   2.408   3.373   6.599  0.1524  0.2374 -0.0030
 7537TIP3    H144102   2.430   3.342   6.511  2.5710 -0.2842  0.7460
 7537TIP3    H244103   2.476   3.437   6.620 -0.4797  0.4643  1.4307
 7538TIP3   OH244104   3.611   3.187   4.760 -0.4197 -0.1969  0.5080
 7538TIP3    H144105   3.599   3.275   4.725 -0.4450 -0.7831 -0.9763
 7538TIP3    H244106   3.704   3.181   4.780 -0.6367  0.5962  1.8044
 7539TIP3   OH244107   4.687   0.121  15.093 -0.2979 -0.6854 -0.1756
 7539TIP3    H144108   4.758   0.169  15.137 -1.3343 -0.5728  1.3782
 7539TIP3    H244109   4.650   0.186  15.033 -0.8722  0.1057  1.0078
 7540TIP3   OH244110   5.931   6.424  16.574 -0.0769  0.2362 -0.2861
 7540TIP3    H144111   5.863   6.485  16.603  0.5113  0.3007  1.0029
 7540TIP3    H244112   5.889   6.339  16.573 -0.1965  0.2797  0.4853
 7541TIP3   OH244113   1.464   3.052  14.300  0.1939 -0.1682 -0.6944
 7541TIP3    H144114   1.477   2.957  14.299  1.5238 -0.0280 -3.7961
 7541TIP3    H244115   1.387   3.066  14.245 -1.4138  0.4315  1.6411
 7542TIP3   OH244116   2.693   4.002  11.275 -0.0103  0.2996 -0.2177
 7542TIP3    H144117   2.715   4.092  11.300  1.2211  0.3543 -1.4293
 7542TIP3    H244118   2.673   4.008  11.181  0.8145 -0.8196 -0.4710
 7543TIP3   OH244119   3.857   0.169  11.215  0.0999 -0.0142  0.3533
 7543TIP3    H144120   3.895   0.244  11.169  0.9451 -0.4542  0.3220
 7543TIP3    H244121   3.814   0.206  11.292 -0.9317  0.6834 -0.5359
 7544TIP3   OH244122   1.537   2.306  11.796  0.2465  0.3115  0.5639
 7544TIP3    H144123   1.458   2.259  11.769 -0.0911  1.1353  0.1173
 7544TIP3    H244124   1.564   2.263  11.878  0.1364 -0.8806 -0.0225
 7545TIP3   OH244125   6.780   5.664   1.875 -0.1566  0.1745  0.0233
 7545TIP3    H144126   6.742   5.577   1.871 -0.9217  0.4744  0.7547
 7545TIP3    H244127   6.746   5.702   1.956 -0.9218  1.6557 -0.9711
 7546TIP3   OH244128   3.423   5.233  16.878  0.4880  0.2665 -0.3807
 7546TIP3    H144129   3.473   5.296  16.930 -2.5494  2.0382  0.4592
 7546TIP3    H244130   3.428   5.266  16.788  1.3298  0.0856 -0.4056
 7547TIP3   OH244131   2.997   4.817   5.715 -0.0602 -0.0695 -0.3057
 7547TIP3    H144132   2.913   4.844   5.678  0.5171  0.6678 -1.1141
 7547TIP3    H244133   2.986   4.828   5.809 -1.3910 -1.4973 -0.2645
 7548TIP3   OH244134   6.203   2.792  15.358  0.6436  0.4570  0.1225
 7548TIP3    H144135   6.287   2.751  15.336 -0.4924 -1.3494 -1.0453
 7548TIP3    H244136   6.170   2.742  15.433  0.1466  0.4770 -0.0779
 7549TIP3   OH244137   3.674   6.225  14.895  0.3848  0.3939  0.8802
 7549TIP3    H144138   3.655   6.319  14.888 -1.7808 -0.1161 -0.5607
 7549TIP3    H244139   3.769   6.219  14.884  0.1917  2.1367 -2.2744
 7550TIP3   OH244140   2.613   6.527   2.775  0.0491 -0.4134 -0.3873
 7550TIP3    H144141   2.560   6.572   2.710 -0.3785  2.0232  1.5443
 7550TIP3    H244142   2.552   6.506   2.846  0.9955 -0.6429  0.3810
 7551TIP3   OH244143   2.032   0.119  11.467  0.2412 -0.1268 -0.1126
 7551TIP3    H144144   2.045   0.026  11.484 -0.8990  0.2447  3.0157
 7551TIP3    H244145   1.940   0.126  11.439  0.0936  0.1625  0.4455
 7552TIP3   OH244146   4.956   1.396   5.990  0.5117 -0.8379  0.0416
 7552TIP3    H144147   4.949   1.490   5.974  0.9104 -0.5021  1.7888
 7552TIP3    H244148   5.027   1.368   5.932  0.0591 -0.1674 -0.8557
 7553TIP3   OH244149   3.422   3.503   3.716  0.0401 -0.5924  0.1603
 7553TIP3    H144150   3.510   3.500   3.753 -0.7460 -2.9038  2.0175
 7553TIP3    H244151   3.372   3.559   3.776 -0.3288 -1.2969  0.5231
 7554TIP3   OH244152   2.377   5.178  15.741 -0.0386  0.1918  0.0168
 7554TIP3    H144153   2.321   5.181  15.819 -1.1567  1.6190 -0.7945
 7554TIP3    H244154   2.446   5.116  15.762 -2.2851 -2.1163  0.8304
 7555TIP3   OH244155   0.429   5.655   0.664 -0.2740  0.0870 -0.5498
 7555TIP3    H144156   0.381   5.581   0.627 -1.0829 -0.6935  1.9479
 7555TIP3    H244157   0.363   5.724   0.673 -0.1782  0.1310 -0.1875
 7556TIP3   OH244158   2.309   2.824   5.246 -0.1954  0.0530 -0.7526
 7556TIP3    H144159   2.326   2.907   5.202 -1.7530  0.2729 -0.9511
 7556TIP3    H244160   2.234   2.787   5.200 -0.9748 -0.3655  0.8290
 7557TIP3   OH244161   3.106   5.213  12.334  0.1041 -0.3818 -0.3553
 7557TIP3    H144162   3.050   5.175  12.402  0.6913  1.1729  1.0279
 7557TIP3    H244163   3.153   5.284  12.378  1.7724 -0.4438 -1.9667
 7558TIP3   OH244164   4.680   3.012   6.005 -0.4817 -0.8367 -0.2499
 7558TIP3    H144165   4.625   2.951   5.955 -1.3516  0.5140 -0.9969
 7558TIP3    H244166   4.770   2.985   5.987 -0.8271 -1.0654 -1.6667
 7559TIP3   OH244167   2.816   0.841   4.332 -0.1660 -0.2968  0.5649
 7559TIP3    H144168   2.756   0.882   4.271 -1.7782 -1.4727  1.3311
 7559TIP3    H244169   2.788   0.871   4.419 -0.4161 -1.7752  1.0192
 7560TIP3   OH244170   6.057   2.927   5.420 -0.3734  0.0237 -0.5375
 7560TIP3    H144171   6.096   2.952   5.336 -2.1200  0.3263 -1.2640
 7560TIP3    H244172   5.990   2.862   5.397  0.2465 -1.1248  0.7880
 7561TIP3   OH244173   2.827   4.829  14.868 -0.4565 -0.2228  0.0981
 7561TIP3    H144174   2.878   4.894  14.819 -1.2588  0.6376  0.3801
 7561TIP3    H244175   2.842   4.850  14.960 -0.5889 -0.5349  0.1925
 7562TIP3   OH244176   0.979   1.519  13.148 -0.1096  0.1054 -0.4101
 7562TIP3    H144177   1.017   1.574  13.216  0.9521  0.5621 -1.3533
 7562TIP3    H244178   1.014   1.555  13.066 -3.3907  1.2026 -1.3916
 7563TIP3   OH244179   5.597   6.066   4.990  0.2208 -0.3834 -0.4300
 7563TIP3    H144180   5.549   6.002   5.043  0.1771  0.4814  0.5934
 7563TIP3    H244181   5.529   6.125   4.958  0.6396  1.1787  1.4915
 7564TIP3   OH244182   6.618   1.663   1.699 -0.0849  0.2982 -0.3680
 7564TIP3    H144183   6.637   1.593   1.762  4.8726  0.8207 -1.1335
 7564TIP3    H244184   6.598   1.617   1.617 -0.5978 -0.2440  0.0518
 7565TIP3   OH244185   3.791   2.610  11.738 -0.6357  0.1846 -0.3720
 7565TIP3    H144186   3.870   2.593  11.687 -1.0422 -1.6416 -0.4404
 7565TIP3    H244187   3.822   2.627  11.827 -0.0852  0.8205 -0.6847
 7566TIP3   OH244188   4.700   2.660   2.811 -0.2584 -0.0721 -0.1648
 7566TIP3    H144189   4.636   2.691   2.875  0.6456  1.8821 -0.1752
 7566TIP3    H244190   4.730   2.739   2.766  1.1779 -1.1053 -1.0950
 7567TIP3   OH244191   2.868   0.476  15.590 -0.1125  0.2914  0.7527
 7567TIP3    H144192   2.910   0.422  15.657  0.3784 -0.7713 -0.3921
 7567TIP3    H244193   2.820   0.543  15.639 -0.7053 -1.1667  2.1944
 7568TIP3   OH244194   2.997   2.169  13.567  0.0861 -0.0831  0.2572
 7568TIP3    H144195   3.087   2.137  13.573 -0.7565 -2.5756  0.2000
 7568TIP3    H244196   3.002   2.261  13.591  2.6714 -0.1621  0.1147
 7569TIP3   OH244197   4.555   5.925   5.965 -0.3376  0.1146  0.2195
 7569TIP3    H144198   4.534   5.896   6.053 -0.3681 -0.0766  0.1485
 7569TIP3    H244199   4.650   5.920   5.959 -0.4861 -2.3389 -0.6166
 7570TIP3   OH244200   4.579   4.783   1.581 -0.9179 -0.7453  0.6818
 7570TIP3    H144201   4.524   4.850   1.540 -0.2990  1.5712  3.4809
 7570TIP3    H244202   4.640   4.756   1.512  0.0314  2.9369 -0.0101
 7571TIP3   OH244203   2.983   2.720   2.869 -0.3362 -0.1801 -0.0995
 7571TIP3    H144204   2.964   2.746   2.959 -1.5663 -0.4742 -0.2752
 7571TIP3    H244205   3.053   2.656   2.878 -1.0434 -0.8540  0.7103
 7572TIP3   OH244206   5.217   6.654   2.170 -0.2515 -0.7648  0.0037
 7572TIP3    H144207   5.142   6.702   2.204 -0.3902  0.6160 -2.2040
 7572TIP3    H244208   5.184   6.610   2.092  0.5143 -2.5002  0.6281
 7573TIP3   OH244209   0.102   4.288  11.977  0.1142 -0.1154  0.3058
 7573TIP3    H144210   0.095   4.223  11.907 -0.1893  1.1223 -0.8436
 7573TIP3    H244211   0.196   4.303  11.986  0.2157 -1.1654  1.0036
 7574TIP3   OH244212   0.547   2.774  12.500 -0.4026 -0.5709 -0.0949
 7574TIP3    H144213   0.523   2.707  12.436  1.8510 -1.4730 -0.0299
 7574TIP3    H244214   0.525   2.857  12.458  0.0322 -1.2064 -1.5914
 7575TIP3   OH244215   3.244   4.924  13.260 -0.0668 -0.6206  0.7043
 7575TIP3    H144216   3.219   4.858  13.326  1.1701  0.5319  2.3631
 7575TIP3    H244217   3.164   4.939  13.210 -0.4149 -3.2660  0.3925
 7576TIP3   OH244218   1.509   1.729  17.142 -0.0754 -0.3080 -0.4312
 7576TIP3    H144219   1.466   1.785  17.208 -1.0247  0.4320 -1.6461
 7576TIP3    H244220   1.589   1.700  17.184 -0.1923  0.9458  0.7110
 7577TIP3   OH244221   6.323   2.539  14.192 -0.7327 -0.4602  0.5020
 7577TIP3    H144222   6.394   2.575  14.138  1.3328 -0.9923  2.7643
 7577TIP3    H244223   6.260   2.506  14.129  1.0115  0.0729 -1.5966
 7578TIP3   OH244224   2.967   6.463   6.547  0.0512 -0.6035 -0.6468
 7578TIP3    H144225   2.954   6.419   6.463  1.0063 -3.7043  0.7169
 7578TIP3    H244226   2.957   6.393   6.612 -1.0278  1.7872  1.8445
 7579TIP3   OH244227   3.965   0.618   4.694  0.0724  0.4535 -0.2989
 7579TIP3    H144228   3.932   0.687   4.752  1.3220 -0.3935  1.4378
 7579TIP3    H244229   3.914   0.541   4.716  1.2588 -0.1372  0.4152
 7580TIP3   OH244230   5.410   1.346   4.397 -0.5417  0.0467  0.5771
 7580TIP3    H144231   5.325   1.317   4.430 -0.3241  1.3437  2.3382
 7580TIP3    H244232   5.394   1.433   4.361 -0.2577 -0.3311 -0.4860
 7581TIP3   OH244233   1.891   5.308  16.297  0.9347 -0.2288  0.6683
 7581TIP3    H144234   1.950   5.245  16.339  1.5711  0.9394  1.5613
 7581TIP3    H244235   1.943   5.345  16.225  0.6471 -0.5482  0.2972
 7582TIP3   OH244236   4.697   6.684   1.187 -0.2119 -0.1487 -0.5573
 7582TIP3    H144237   4.623   6.627   1.167 -1.4984  1.2004  0.2685
 7582TIP3    H244238   4.738   6.644   1.264  0.4569 -1.3819 -1.5377
 7583TIP3   OH244239   5.655   4.111  11.287 -0.2607  0.5351 -0.4535
 7583TIP3    H144240   5.610   4.118  11.371 -0.6108 -1.2831 -0.4547
 7583TIP3    H244241   5.748   4.107  11.310 -0.4246 -1.5884  0.0142
 7584TIP3   OH244242   6.729   5.290  16.223  0.5176  0.3382 -0.4634
 7584TIP3    H144243   6.728   5.202  16.262 -1.5375 -0.0985 -1.4390
 7584TIP3    H244244   6.637   5.317  16.223  1.0123  2.0536 -1.1546
 7585TIP3   OH244245   4.225   1.892  13.070 -0.9613  0.2879 -0.8718
 7585TIP3    H144246   4.154   1.948  13.099 -1.3967  0.4172 -2.1623
 7585TIP3    H244247   4.192   1.803  13.083  0.1076  0.2609  2.1217
 7586TIP3   OH244248   2.662   1.222   4.208 -0.3249  0.0726  0.5207
 7586TIP3    H144249   2.627   1.134   4.195 -1.3355  0.4432  0.6533
 7586TIP3    H244250   2.603   1.278   4.157 -0.0656  0.7401  0.9543
 7587TIP3   OH244251   5.838   4.069   2.290 -0.3121  0.0940  0.4489
 7587TIP3    H144252   5.755   4.039   2.252 -0.1498  0.6484 -0.3734
 7587TIP3    H244253   5.838   4.034   2.379 -0.8560 -0.9606  0.0459
 7588TIP3   OH244254   2.813   6.531  11.445 -0.3379  0.4647  0.9517
 7588TIP3    H144255   2.730   6.505  11.404  0.7062  0.4674 -1.2133
 7588TIP3    H244256   2.829   6.619  11.411 -0.0281  0.9453  2.3165
 7589TIP3   OH244257   0.158   5.437   4.902 -0.0578  0.1751  0.3154
 7589TIP3    H144258   0.086   5.377   4.884  1.1065 -0.4930 -2.5358
 7589TIP3    H244259   0.236   5.388   4.875  1.1961  1.8831  0.7701
 7590TIP3   OH244260   6.048   6.438   4.376  0.3201 -0.1397 -0.1583
 7590TIP3    H144261   6.066   6.349   4.344 -1.0097 -1.1623  1.8197
 7590TIP3    H244262   6.117   6.492   4.338  2.5576 -2.4329  0.5124
 7591TIP3   OH244263   2.564   2.035  16.076  0.1181  0.0496 -0.0458
 7591TIP3    H144264   2.592   1.954  16.032  1.5589  0.1815  0.5881
 7591TIP3    H244265   2.599   2.028  16.165  0.4509  1.4583 -0.0490
 7592TIP3   OH244266   4.954   4.610  13.482  0.1434  0.8609  0.5288
 7592TIP3    H144267   4.882   4.558  13.518  0.9114 -0.8287 -0.3445
 7592TIP3    H244268   5.030   4.584  13.533  0.4539  1.4389  0.3616
 7593TIP3   OH244269   3.997   0.149   0.739  0.1381 -0.2864 -0.3838
 7593TIP3    H144270   4.018   0.182   0.827  0.0320  0.6021 -0.6864
 7593TIP3    H244271   3.937   0.076   0.755 -0.4272  0.3022  0.2666
 7594TIP3   OH244272   3.982   6.009  12.983 -0.6146 -0.6826 -0.3803
 7594TIP3    H144273   4.043   5.937  12.997  1.9343  1.2964 -1.0043
 7594TIP3    H244274   3.943   6.025  13.069  0.8367 -1.0515  0.3603
 7595TIP3   OH244275   1.915   3.611   2.321 -0.1713  0.0947 -0.0017
 7595TIP3    H144276   1.870   3.554   2.385 -0.0210  1.2834  1.1902
 7595TIP3    H244277   1.995   3.564   2.300 -0.8048 -0.8877 -0.2426
 7596TIP3   OH244278   2.444   4.485   3.083  0.4097 -0.2990  0.1725
 7596TIP3    H144279   2.447   4.535   3.164  0.9635 -0.6838  0.3907
 7596TIP3    H244280   2.424   4.395   3.110  0.2888 -0.3699 -0.1439
 7597TIP3   OH244281   3.995   2.153  16.807  0.8924 -0.6535  0.5862
 7597TIP3    H144282   3.935   2.216  16.846  1.4990 -1.0038  2.1213
 7597TIP3    H244283   4.002   2.180  16.716 -1.8846 -0.8415  0.2752
 7598TIP3   OH244284   3.858   4.032  16.230  0.1049 -0.0456  0.7215
 7598TIP3    H144285   3.924   4.062  16.167  0.6452  1.4044  1.9528
 7598TIP3    H244286   3.869   3.937  16.232  0.9289  0.0089 -0.4368
 7599TIP3   OH244287   3.001   1.041   4.958  0.1555 -0.2227 -0.8203
 7599TIP3    H144288   2.989   1.135   4.942 -1.4380 -0.0927  0.9714
 7599TIP3    H244289   3.064   1.038   5.030  2.1527 -0.6200 -2.5451
 7600TIP3   OH244290   0.501   1.773  14.620  0.1725  0.7615 -0.9551
 7600TIP3    H144291   0.506   1.711  14.546  0.5430  2.1020 -2.0784
 7600TIP3    H244292   0.413   1.763  14.654  1.3308 -3.0045  1.2002
 7601TIP3   OH244293   5.110   6.669   2.844  0.8521 -0.2954  0.0260
 7601TIP3    H144294   5.034   6.614   2.863  0.3126  0.2267 -0.5994
 7601TIP3    H244295   5.117   6.668   2.748  0.8244  0.7608  0.0172
 7602TIP3   OH244296   0.292   2.693  14.421 -0.5482  0.2390 -0.2529
 7602TIP3    H144297   0.333   2.709  14.336  1.8716  2.3110  1.2364
 7602TIP3    H244298   0.329   2.609  14.449 -0.4491  0.1263 -0.7094
 7603TIP3   OH244299   6.093   6.690   5.961 -0.3723 -0.1175  0.2976
 7603TIP3    H144300   6.091   6.764   5.900  2.4727 -0.8725 -0.8283
 7603TIP3    H244301   6.068   6.728   6.045  0.6043  2.0697 -0.3485
 7604TIP3   OH244302   4.302   2.553   4.614 -0.1774 -0.5246 -0.3218
 7604TIP3    H144303   4.247   2.568   4.691  0.3799 -1.2632  0.2341
 7604TIP3    H244304   4.385   2.595   4.636  0.0373 -0.8800 -0.4507
 7605TIP3   OH244305   5.943   2.075  16.567  0.0620 -0.2441  0.4529
 7605TIP3    H144306   6.035   2.093  16.588  0.7188  0.0241 -2.4635
 7605TIP3    H244307   5.907   2.036  16.647  3.3834 -2.7689  0.8082
 7606TIP3   OH244308   1.806   1.681   4.681 -0.2014 -0.4122 -0.0609
 7606TIP3    H144309   1.879   1.635   4.722 -0.8930 -1.0368  0.5059
 7606TIP3    H244310   1.735   1.675   4.746 -0.9250 -0.3145 -0.8310
 7607TIP3   OH244311   4.168   0.638   1.453  0.5656 -0.0369 -0.4356
 7607TIP3    H144312   4.233   0.571   1.431 -0.3366 -1.4095  0.9775
 7607TIP3    H244313   4.207   0.687   1.525  0.4391 -0.2437 -0.2264
 7608TIP3   OH244314   4.867   0.522   0.106  0.9633 -0.1020  0.4200
 7608TIP3    H144315   4.953   0.497   0.073  0.4418  0.5955 -1.5192
 7608TIP3    H244316   4.828   0.573   0.036 -1.2129 -0.7791  1.0969
 7609TIP3   OH244317   2.077   4.175   6.086  0.1515 -0.0331 -0.2650
 7609TIP3    H144318   2.078   4.167   5.990  0.2389 -1.1860 -0.1660
 7609TIP3    H244319   2.065   4.269   6.101 -0.0086  0.1423 -1.4088
 7610TIP3   OH244320   5.005   6.109  13.565  0.2786  0.7241 -0.1782
 7610TIP3    H144321   4.950   6.136  13.492  0.2962 -0.6149 -0.6954
 7610TIP3    H244322   5.093   6.137  13.540  0.3390 -0.0380 -0.8334
 7611TIP3   OH244323   0.607   3.477  12.917  0.0464  0.7141 -0.2042
 7611TIP3    H144324   0.522   3.474  12.873  0.2557  0.7901 -0.6176
 7611TIP3    H244325   0.671   3.481  12.846  0.3276  2.3372  0.1232
 7612TIP3   OH244326   0.917   1.610  11.665 -0.6587  0.0338 -0.2843
 7612TIP3    H144327   0.836   1.631  11.712 -1.3602  1.3506 -2.0422
 7612TIP3    H244328   0.913   1.663  11.585  2.1558  0.4745 -0.1852
 7613TIP3   OH244329   1.423   1.303  14.995  0.2707 -0.1079 -0.7341
 7613TIP3    H144330   1.421   1.230  14.933 -1.0821 -1.9229  1.3577
 7613TIP3    H244331   1.334   1.306  15.031  0.9405  1.1291  0.8736
 7614TIP3   OH244332   0.173   1.378   1.091 -0.1207 -0.2405  0.3380
 7614TIP3    H144333   0.217   1.297   1.065  0.8931  0.0604  1.0878
 7614TIP3    H244334   0.243   1.433   1.127 -0.0529  2.5272 -3.6374
 7615TIP3   OH244335   5.731   2.346  13.844 -0.0811 -0.2323 -0.6326
 7615TIP3    H144336   5.647   2.389  13.826 -0.4532 -1.0716 -0.9304
 7615TIP3    H244337   5.783   2.412  13.890 -1.5846 -0.3182  1.2423
 7616TIP3   OH244338   3.487   2.139   1.417 -0.3774 -0.4507  0.0635
 7616TIP3    H144339   3.519   2.195   1.488  2.0161 -0.7119 -0.7676
 7616TIP3    H244340   3.420   2.192   1.373 -2.3244 -0.5100  2.8387
 7617TIP3   OH244341   1.705   4.201   2.128  0.2703  0.1564  0.1454
 7617TIP3    H144342   1.632   4.258   2.150  0.1274 -0.1341  0.4185
 7617TIP3    H244343   1.693   4.123   2.182  2.4669  1.3791  2.5258
 7618TIP3   OH244344   4.735   0.833   0.322  0.6605  0.3981  0.5329
 7618TIP3    H144345   4.680   0.772   0.274  1.3436  1.0362 -1.0989
 7618TIP3    H244346   4.693   0.842   0.408 -1.2116  0.1266 -0.3528
 7619TIP3   OH244347   4.271   3.840   3.878  0.1710 -0.6048  0.8765
 7619TIP3    H144348   4.251   3.756   3.920  0.2355 -0.8810  0.3647
 7619TIP3    H244349   4.192   3.891   3.888 -1.0380 -1.8781 -1.5937
 7620TIP3   OH244350   5.752   3.228  15.074 -0.0432 -0.3869 -0.3475
 7620TIP3    H144351   5.737   3.144  15.030  0.6662  0.0170 -1.3981
 7620TIP3    H244352   5.665   3.267  15.083 -0.1621 -0.2401 -1.9161
 7621TIP3   OH244353   6.489   4.944  15.684  0.2215 -0.8658 -0.3383
 7621TIP3    H144354   6.477   5.013  15.618 -0.1407 -0.9061 -0.3171
 7621TIP3    H244355   6.410   4.950  15.738  2.1748  1.5902  2.3230
 7622TIP3   OH244356   0.826   3.087  12.452 -0.0064  0.2938  0.7803
 7622TIP3    H144357   0.840   3.019  12.386  0.7208  1.8939 -0.7552
 7622TIP3    H244358   0.731   3.098  12.457  0.0018  2.2197 -2.2059
 7623TIP3   OH244359   1.965   6.745  12.338  0.3359  0.1746  0.8642
 7623TIP3    H144360   1.870   6.750  12.330  0.2486 -2.4804 -0.1948
 7623TIP3    H244361   1.994   6.837  12.339 -2.0379  0.9966 -1.0849
 7624TIP3   OH244362   5.847   6.630  12.770  0.0645 -0.1883  0.1034
 7624TIP3    H144363   5.795   6.676  12.703  1.1901  0.3757 -0.3904
 7624TIP3    H244364   5.792   6.633  12.848  0.3872  2.6279  0.2709
 7625TIP3   OH244365   1.982   1.794  15.450 -0.0735  0.6215  0.2581
 7625TIP3    H144366   2.048   1.816  15.384  1.7643 -0.6134  1.6212
 7625TIP3    H244367   1.899   1.792  15.402  0.7233  3.1326 -1.3146
 7626TIP3   OH244368   0.801   2.428   3.637  0.8700 -0.0893 -0.0896
 7626TIP3    H144369   0.807   2.480   3.557  6.6635 -2.0121 -1.1451
 7626TIP3    H244370   0.841   2.484   3.704 -0.7314  0.1122  0.7191
 7627TIP3   OH244371   4.138   4.376   0.947  0.1320 -0.1428  0.0169
 7627TIP3    H144372   4.066   4.430   0.914  0.6617  0.7184  0.2419
 7627TIP3    H244373   4.217   4.425   0.925  0.5639 -0.2893  1.1946
 7628TIP3   OH244374   5.413   0.839   3.487 -0.1169 -0.3048 -0.3216
 7628TIP3    H144375   5.399   0.870   3.577  1.1606 -0.1831 -0.1665
 7628TIP3    H244376   5.506   0.851   3.471 -0.3258 -0.3646 -1.6579
 7629TIP3   OH244377   1.505   2.049  16.292 -0.2143 -0.4354  0.4619
 7629TIP3    H144378   1.497   2.139  16.324  0.6085  1.3240 -3.9243
 7629TIP3    H244379   1.418   2.028  16.258  0.1136 -0.5608 -0.3071
 7630TIP3   OH244380   1.790   1.467  15.456  0.0944 -0.0347 -0.4643
 7630TIP3    H144381   1.720   1.420  15.408  0.0011 -1.5002  1.0522
 7630TIP3    H244382   1.743   1.534  15.506 -0.2014 -0.7230  0.2015
 7631TIP3   OH244383   4.133   4.508   0.262  0.1419 -0.6595  0.3870
 7631TIP3    H144384   4.202   4.450   0.231  0.7004  0.0388  0.3046
 7631TIP3    H244385   4.120   4.570   0.190 -0.5457 -0.7670  0.4142
 7632TIP3   OH244386   3.196   4.017  11.611  0.1351 -0.2352 -0.0203
 7632TIP3    H144387   3.104   4.046  11.604  0.6802  1.6557  0.2791
 7632TIP3    H244388   3.226   4.011  11.520  0.7254  2.6286 -0.0609
 7633TIP3   OH244389   2.881   0.136   5.435  0.2124 -0.7743  0.7033
 7633TIP3    H144390   2.847   0.166   5.350 -1.2237 -0.5830  1.3322
 7633TIP3    H244391   2.951   0.075   5.413  1.9793  1.6306 -0.6331
 7634TIP3   OH244392   4.831   2.304  13.955  0.0712  0.0628  0.4766
 7634TIP3    H144393   4.766   2.304  13.884 -0.0587  2.9251  0.5515
 7634TIP3    H244394   4.907   2.259  13.917 -1.0384 -1.0685 -0.4665
 7635TIP3   OH244395   4.598   0.053  11.693 -0.4276  0.3233  0.0648
 7635TIP3    H144396   4.610  -0.020  11.754 -2.5868  0.1044  0.2696
 7635TIP3    H244397   4.562   0.123  11.747 -0.4547  0.7945 -0.5677
 7636TIP3   OH244398   0.194   0.380   5.779  0.5817  0.6332 -0.2834
 7636TIP3    H144399   0.153   0.373   5.693 -0.1099 -0.1995  0.1126
 7636TIP3    H244400   0.233   0.294   5.795  0.1770  0.5941  0.5009
 7637TIP3   OH244401   2.342   2.987  12.217  0.2138 -0.1319  1.0590
 7637TIP3    H144402   2.265   2.985  12.273 -1.6243 -0.3864 -1.4242
 7637TIP3    H244403   2.415   2.963  12.275 -1.7454 -1.2098  3.1171
 7638TIP3   OH244404   1.884   0.418  12.729  0.3988  0.8011 -1.1149
 7638TIP3    H144405   1.891   0.371  12.646 -2.3040 -1.5615 -0.1009
 7638TIP3    H244406   1.805   0.471  12.720  0.6016  1.2235 -0.4146
 7639TIP3   OH244407   6.176   3.565   6.044 -0.1957  0.7376  0.2169
 7639TIP3    H144408   6.185   3.660   6.039 -0.3298  0.7229 -0.4304
 7639TIP3    H244409   6.206   3.542   6.131  0.1768  1.3415  0.2493
 7640TIP3   OH244410   5.245   0.380  15.687 -0.3140  0.7085  0.4112
 7640TIP3    H144411   5.273   0.460  15.644  0.5913  0.8301  1.2250
 7640TIP3    H244412   5.156   0.365  15.653 -0.1646  1.5771 -0.3898
 7641TIP3   OH244413   5.460   4.306   6.534 -0.7117  0.2740 -0.5844
 7641TIP3    H144414   5.453   4.384   6.590 -0.2908 -0.9570  1.2043
 7641TIP3    H244415   5.553   4.286   6.531 -0.8473 -0.3280 -0.8199
 7642TIP3   OH244416   4.346   1.256  11.066  0.7002 -0.0955 -0.6248
 7642TIP3    H144417   4.341   1.308  10.985  1.5845 -0.2677 -0.7955
 7642TIP3    H244418   4.397   1.179  11.041  1.1506 -0.0507  0.1534
 7643TIP3   OH244419   0.224   4.957  14.616  0.2431  0.7294  0.1976
 7643TIP3    H144420   0.258   4.947  14.705 -0.1333  2.9590  0.6378
 7643TIP3    H244421   0.222   5.052  14.603 -0.0894  0.4249 -2.0468
 7644TIP3   OH244422   1.984   1.506   4.802  0.1531  0.4682  0.5196
 7644TIP3    H144423   2.078   1.486   4.792 -0.0367 -0.4434  0.5383
 7644TIP3    H244424   1.946   1.427   4.839 -0.3009  1.5355  2.4021
 7645TIP3   OH244425   3.856   0.057   1.948 -0.3373  0.0560  0.5815
 7645TIP3    H144426   3.788   0.097   2.002 -0.5669 -0.2543  0.5257
 7645TIP3    H244427   3.929   0.119   1.950 -0.3860  0.0935  1.1564
 7646TIP3   OH244428   6.286   3.586   2.555 -0.0355  0.1362 -0.4500
 7646TIP3    H144429   6.259   3.610   2.466 -1.3518  1.6471  0.3492
 7646TIP3    H244430   6.217   3.528   2.586  0.2184 -0.0611 -0.2430
 7647TIP3   OH244431   2.684   2.209  12.337 -0.1257  0.8156 -0.6183
 7647TIP3    H144432   2.723   2.142  12.394 -0.0285  0.8259 -0.6730
 7647TIP3    H244433   2.612   2.164  12.293 -1.5715  1.3725  1.1299
 7648TIP3   OH244434   0.968   4.364   0.173  0.2442 -0.2759 -0.2874
 7648TIP3    H144435   0.992   4.273   0.155  0.4563 -0.6219  1.5971
 7648TIP3    H244436   0.873   4.367   0.160  0.3271 -0.6023 -0.9825
 7649TIP3   OH244437   3.410   5.708  11.003 -0.3344  0.4989  0.3135
 7649TIP3    H144438   3.390   5.780  11.063  0.5774  0.1583  1.0394
 7649TIP3    H244439   3.504   5.717  10.986 -0.8282  1.3634 -2.0920
 7650TIP3   OH244440   3.514   1.159  11.761 -0.2361  0.1719 -0.4621
 7650TIP3    H144441   3.485   1.237  11.808  0.1569 -0.1314  0.2835
 7650TIP3    H244442   3.453   1.151  11.688  0.5157  1.9519 -1.3193
 7651TIP3   OH244443   3.814   4.145  11.961  0.4259 -0.1907 -0.0419
 7651TIP3    H144444   3.845   4.217  12.017  0.9820  0.6479 -1.4203
 7651TIP3    H244445   3.748   4.185  11.905  0.6184 -0.7909 -0.7002
 7652TIP3   OH244446   4.593   4.383  16.292 -0.1112 -0.4909 -0.1350
 7652TIP3    H144447   4.678   4.339  16.293  0.8494  1.3125 -0.4140
 7652TIP3    H244448   4.613   4.473  16.264 -1.9348  0.2893  0.9765
 7653TIP3   OH244449   4.251   5.880   3.648  0.0881 -0.6740  0.0210
 7653TIP3    H144450   4.253   5.851   3.740  1.4152 -0.2567  0.1191
 7653TIP3    H244451   4.159   5.903   3.633 -0.6638 -3.2228  0.4766
 7654TIP3   OH244452   0.659   2.626  14.197 -0.3988  0.0313 -0.0859
 7654TIP3    H144453   0.621   2.708  14.166  0.4206  0.4035 -0.1067
 7654TIP3    H244454   0.666   2.571  14.118 -2.1154 -0.5353  0.1347
 7655TIP3   OH244455   2.364   1.147   4.323 -0.3701 -0.3138  0.3880
 7655TIP3    H144456   2.399   1.190   4.401  0.3262 -1.4094  0.6854
 7655TIP3    H244457   2.356   1.218   4.259  1.2406  0.1961  0.7122
 7656TIP3   OH244458   2.073   6.148  16.239  0.3473 -0.3124 -0.0599
 7656TIP3    H144459   2.078   6.195  16.155  0.5941 -0.2947 -0.0376
 7656TIP3    H244460   2.135   6.076  16.230  0.9063  0.1076  0.3713
 7657TIP3   OH244461   0.718   2.909   5.343 -0.4483  0.3069  0.2176
 7657TIP3    H144462   0.796   2.961   5.327 -0.3336 -0.5952 -2.2883
 7657TIP3    H244463   0.740   2.855   5.419  0.8020  1.1554  0.4633
 7658TIP3   OH244464   2.516   0.088  15.913 -0.2401  0.1277  0.3943
 7658TIP3    H144465   2.590   0.129  15.867 -0.9072  1.8600  0.8542
 7658TIP3    H244466   2.440   0.106  15.857 -0.6114 -0.0611  0.8355
 7659TIP3   OH244467   5.697   1.847  13.609 -0.4578  0.4604  1.4617
 7659TIP3    H144468   5.775   1.801  13.642 -0.8917  0.2684  2.2453
 7659TIP3    H244469   5.714   1.859  13.516 -0.3742 -1.3577  1.2241
 7660TIP3   OH244470   4.264   2.370  14.667  0.1552 -0.9356  0.3748
 7660TIP3    H144471   4.245   2.464  14.675 -0.3125 -0.9685 -0.2857
 7660TIP3    H244472   4.179   2.328  14.679  0.4824 -1.3297  1.4152
 7661TIP3   OH244473   1.371   5.451  11.460 -0.1450  0.9855  0.3864
 7661TIP3    H144474   1.359   5.520  11.395 -1.1741  2.5724  2.2115
 7661TIP3    H244475   1.426   5.386  11.416 -1.7223  1.4772 -2.4505
 7662TIP3   OH244476   0.676   0.655   5.401  0.0707  0.4094 -0.3457
 7662TIP3    H144477   0.596   0.641   5.451  1.2385 -0.0450  1.4140
 7662TIP3    H244478   0.720   0.728   5.445  1.1820 -0.0750 -0.6364
 7663TIP3   OH244479   1.440   1.464  13.326  0.3704  0.1787 -0.0143
 7663TIP3    H144480   1.381   1.462  13.401  0.4359 -2.0216  0.0017
 7663TIP3    H244481   1.522   1.501  13.360  0.6195 -1.4252  1.1512
 7664TIP3   OH244482   0.770   3.009  11.601  0.0520  0.1508  0.1776
 7664TIP3    H144483   0.857   3.034  11.568  0.2441  0.7579  1.1202
 7664TIP3    H244484   0.734   2.953  11.532  1.8290 -1.4168  0.4495
 7665TIP3   OH244485   1.786   3.547  17.067  0.1427 -0.7979  0.1192
 7665TIP3    H144486   1.846   3.621  17.059  0.7264 -1.1946  0.8319
 7665TIP3    H244487   1.841   3.470  17.050  0.2883 -1.3086  2.8127
 7666TIP3   OH244488   3.368   0.033   1.025 -0.7038  0.3902 -0.6368
 7666TIP3    H144489   3.441   0.094   1.037 -1.5766  1.8826 -2.6920
 7666TIP3    H244490   3.403  -0.052   1.052  0.8301  1.6158  1.3362
 7667TIP3   OH244491   6.064   2.178  13.971 -0.2557 -0.1806 -0.5467
 7667TIP3    H144492   5.982   2.213  14.006  0.8001  1.6804  0.1294
 7667TIP3    H244493   6.048   2.084  13.961 -2.6495  0.2522 -0.9697
 7668TIP3   OH244494   2.493   6.819   4.435 -0.1725  0.1355  0.0276
 7668TIP3    H144495   2.451   6.809   4.350  0.1727  0.0037 -0.1258
 7668TIP3    H244496   2.443   6.761   4.493 -0.2448  0.0287 -0.1406
 7669TIP3   OH244497   0.625   6.629  14.394  0.3670  0.3972  0.3305
 7669TIP3    H144498   0.623   6.713  14.440  1.1958 -0.0757  1.2479
 7669TIP3    H244499   0.706   6.588  14.423  0.2841 -0.4459 -0.6147
 7670TIP3   OH244500   1.934   3.836   4.935  0.1595 -0.0769 -0.3537
 7670TIP3    H144501   1.904   3.870   4.850  1.4496  0.4271 -0.6146
 7670TIP3    H244502   1.952   3.915   4.987 -1.1028 -0.3805  0.5734
 7671TIP3   OH244503   6.070   6.514   5.142  0.1713 -0.3930  0.1491
 7671TIP3    H144504   5.981   6.549   5.149  0.5572  0.5321  0.5066
 7671TIP3    H244505   6.107   6.556   5.065  0.2111 -0.9701 -0.1443
 7672TIP3   OH244506   4.598   5.010  12.631  0.0735  0.8703 -0.2352
 7672TIP3    H144507   4.511   4.992  12.595  0.3747  1.4194 -1.2289
 7672TIP3    H244508   4.589   5.096  12.672  0.2534  1.1020 -0.6812
 7673TIP3   OH244509   6.691   3.108  15.289  0.0660 -0.1538  0.2876
 7673TIP3    H144510   6.720   3.199  15.299 -1.7696  0.6937 -1.7029
 7673TIP3    H244511   6.768   3.062  15.257  1.0808  0.6419  1.5352
 7674TIP3   OH244512   2.191   3.693  16.285  0.5374  0.1050  0.5420
 7674TIP3    H144513   2.281   3.704  16.254  1.1227  1.4747  2.6267
 7674TIP3    H244514   2.151   3.779  16.273  0.5529  0.4440  2.8804
 7675TIP3   OH244515   5.217   3.776   2.647 -0.1089  0.2303  0.1006
 7675TIP3    H144516   5.125   3.750   2.638 -0.3170  0.9592  0.1011
 7675TIP3    H244517   5.222   3.817   2.734  0.4588 -0.8030  0.5589
 7676TIP3   OH244518   0.865   6.645   4.699 -0.4184 -0.1427  0.6213
 7676TIP3    H144519   0.948   6.681   4.666  0.0639  0.0663  2.0299
 7676TIP3    H244520   0.887   6.555   4.725 -0.8307 -0.3497  0.2658
 7677TIP3   OH244521   1.131   3.099   4.477 -0.2275  0.3646  0.7892
 7677TIP3    H144522   1.115   3.179   4.427 -1.0395  0.0941  0.6116
 7677TIP3    H244523   1.044   3.066   4.498  0.0493 -2.1313 -1.7624
 7678TIP3   OH244524   4.733   2.207   3.521 -0.0294 -0.0971  0.0095
 7678TIP3    H144525   4.756   2.182   3.432 -1.5320  1.2633 -0.7825
 7678TIP3    H244526   4.681   2.134   3.555 -0.2184 -0.2170 -0.5412
 7679TIP3   OH244527   3.871   1.595   1.471 -0.6068 -0.5326 -0.4587
 7679TIP3    H144528   3.938   1.649   1.430  1.0631 -1.6360  0.7897
 7679TIP3    H244529   3.843   1.646   1.547  0.6906 -1.2125  0.4960
 7680TIP3   OH244530   6.585   2.020  16.394 -0.1794 -0.1178 -0.3152
 7680TIP3    H144531   6.657   2.079  16.415  1.3437 -1.1435 -2.4484
 7680TIP3    H244532   6.508   2.062  16.432  1.2914  1.7872  0.6675
 7681TIP3   OH244533   5.911   1.309  12.059 -0.0156  0.1492  0.1348
 7681TIP3    H144534   5.894   1.218  12.086  0.1656  0.1611  0.2921
 7681TIP3    H244535   5.856   1.322  11.982 -1.2823  0.4221  1.0728
 7682TIP3   OH244536   5.604   6.597   0.042 -0.9753 -0.2856  0.1898
 7682TIP3    H144537   5.542   6.662   0.076 -3.0828 -0.7335 -2.5595
 7682TIP3    H244538   5.649   6.641  -0.030 -1.6172 -1.4714 -0.9708
 7683TIP3   OH244539   0.515   4.389   2.424 -0.0920  0.1517 -0.5520
 7683TIP3    H144540   0.437   4.335   2.433  0.3157 -0.2523  0.6264
 7683TIP3    H244541   0.489   4.459   2.363 -2.0966  1.3326  1.5588
 7684TIP3   OH244542   3.483   4.393  16.169 -0.5099 -0.1272 -0.2795
 7684TIP3    H144543   3.574   4.420  16.179 -0.6965  1.3255 -2.2812
 7684TIP3    H244544   3.488   4.309  16.123 -0.1411 -0.6817  0.7675
 7685TIP3   OH244545   2.819   4.077   2.292 -0.4440 -0.1803  0.4307
 7685TIP3    H144546   2.853   4.129   2.365  0.2421  0.0648 -0.0511
 7685TIP3    H244547   2.896   4.032   2.257 -0.5106  0.7093 -0.9353
 7686TIP3   OH244548   6.355   5.482  13.595  0.4345 -0.8491  0.3322
 7686TIP3    H144549   6.383   5.570  13.624 -0.5594 -0.1660 -0.7383
 7686TIP3    H244550   6.378   5.425  13.668  1.1600  0.2933  1.0245
 7687TIP3   OH244551   5.546   4.777  13.963  0.3369  0.3594  0.4944
 7687TIP3    H144552   5.556   4.798  13.871  0.1000 -1.0411  0.1330
 7687TIP3    H244553   5.466   4.823  13.990 -0.6167 -0.7082 -0.4729
 7688TIP3   OH244554   0.830   2.520  13.678 -0.1125  0.4730  0.1091
 7688TIP3    H144555   0.915   2.479  13.692  1.6548  3.5571 -1.1329
 7688TIP3    H244556   0.842   2.611  13.708 -2.9771  0.9710 -0.0784
 7689TIP3   OH244557   2.079   3.255   5.502  0.0252  0.6808  0.4390
 7689TIP3    H144558   2.155   3.218   5.457 -0.4110 -0.2332  0.4512
 7689TIP3    H244559   2.049   3.186   5.561 -1.7668  0.4618 -0.6907
 7690TIP3   OH244560   1.755   5.674  11.836 -0.5968  0.1565  0.3613
 7690TIP3    H144561   1.712   5.654  11.753  0.6322  1.9445 -0.7276
 7690TIP3    H244562   1.764   5.769  11.837  1.8355 -0.0370  1.3235
 7691TIP3   OH244563   5.472   6.780  15.495 -0.4809  0.6533 -0.1647
 7691TIP3    H144564   5.397   6.795  15.553 -0.9665  2.7129 -1.2890
 7691TIP3    H244565   5.538   6.843  15.524  0.2650 -0.0953 -0.1960
 7692TIP3   OH244566   0.650   5.788  15.873 -0.2162  0.5537 -0.2048
 7692TIP3    H144567   0.615   5.793  15.784  1.1972 -1.5458 -0.9190
 7692TIP3    H244568   0.695   5.704  15.876  0.5818  1.0374  2.2009
 7693TIP3   OH244569   2.443   6.661  13.984 -0.0320  0.3280 -0.0644
 7693TIP3    H144570   2.357   6.668  13.944  0.6003 -1.6995 -1.9007
 7693TIP3    H244571   2.450   6.569  14.012  0.9951  0.8009  1.2905
 7694TIP3   OH244572   3.552   3.598  17.237  0.0475  0.5485 -0.1424
 7694TIP3    H144573   3.596   3.540  17.174 -3.6902 -1.1077 -1.3617
 7694TIP3    H244574   3.554   3.684  17.196  0.7855  0.1864 -0.8923
 7695TIP3   OH244575   5.343   2.673   2.212 -0.4122  0.0193  0.6012
 7695TIP3    H144576   5.353   2.666   2.307  1.8527  0.2775  0.4057
 7695TIP3    H244577   5.378   2.760   2.191 -0.4354 -0.2422 -0.5389
 7696TIP3   OH244578   5.315   0.024  11.198  0.4022 -0.1095 -0.4160
 7696TIP3    H144579   5.310   0.103  11.144  1.3052 -0.7361 -1.4287
 7696TIP3    H244580   5.287   0.053  11.285  0.3334  1.2342 -0.8777
 7697TIP3   OH244581   3.511   2.150  13.026  0.5662 -0.3817 -0.0106
 7697TIP3    H144582   3.437   2.185  13.075 -1.5360 -1.7010 -2.1353
 7697TIP3    H244583   3.558   2.095  13.090 -0.4724  0.2076  1.2778
 7698TIP3   OH244584   3.017   5.232   5.135 -0.2493  0.4731  0.0603
 7698TIP3    H144585   3.057   5.268   5.215  0.0697  0.0123  0.1120
 7698TIP3    H244586   2.957   5.164   5.167  0.5176 -0.3040 -0.1386
 7699TIP3   OH244587   4.921   3.615   4.525  0.0703 -0.6375 -0.1198
 7699TIP3    H144588   4.950   3.524   4.523  1.3856 -0.2489  0.8307
 7699TIP3    H244589   4.945   3.646   4.612 -2.4389 -0.0347  0.4041
 7700TIP3   OH244590   2.436   1.670   4.487  0.0820 -0.3938  0.1623
 7700TIP3    H144591   2.470   1.615   4.558 -0.7233 -2.8446 -1.2833
 7700TIP3    H244592   2.426   1.610   4.413 -2.0232  1.4695 -1.1271
 7701TIP3   OH244593   1.850   5.527   5.511  0.2756  0.7958 -0.7022
 7701TIP3    H144594   1.915   5.538   5.442 -0.7506  0.8151 -1.6900
 7701TIP3    H244595   1.889   5.465   5.573  1.0498  0.4927 -1.4972
 7702TIP3   OH244596   5.657   1.554   5.205 -0.8054 -0.3915  0.3165
 7702TIP3    H144597   5.668   1.488   5.136 -3.1560  0.7844 -1.2642
 7702TIP3    H244598   5.728   1.537   5.266  1.2351 -1.6086 -2.2917
 7703TIP3   OH244599   2.704   5.920   5.391 -0.2932  0.1395 -0.0942
 7703TIP3    H144600   2.720   5.936   5.484  0.7449  0.8675 -0.3921
 7703TIP3    H244601   2.788   5.889   5.357 -0.9097 -0.9890 -0.6036
 7704TIP3   OH244602   0.188   5.455  11.676  0.0005 -0.1445  0.2145
 7704TIP3    H144603   0.098   5.487  11.682  0.1733  0.0333  2.2252
 7704TIP3    H244604   0.189   5.375  11.729  1.1946  0.3044  0.9036
 7705TIP3   OH244605   6.597   6.426  14.836  0.5542  0.3197  0.2347
 7705TIP3    H144606   6.692   6.429  14.833  0.5341  1.7814  0.7682
 7705TIP3    H244607   6.568   6.475  14.759  0.2312  0.6822  0.5855
 7706TIP3   OH244608   0.248   5.691  15.379  0.3043  0.0892 -0.3937
 7706TIP3    H144609   0.328   5.647  15.408  0.6001  1.0610  0.2925
 7706TIP3    H244610   0.271   5.784  15.379 -0.8773  0.3802 -0.0558
 7707TIP3   OH244611   1.473   6.761  15.756 -0.2543  0.4949 -0.2301
 7707TIP3    H144612   1.546   6.706  15.726 -1.3658 -0.3112 -1.4882
 7707TIP3    H244613   1.431   6.710  15.825  1.0754  1.4818  1.3535
 7708TIP3   OH244614   2.319   1.434  15.700 -0.8391 -0.3818  0.4515
 7708TIP3    H144615   2.326   1.360  15.760 -0.4272  0.8359  1.9270
 7708TIP3    H244616   2.228   1.431  15.669 -1.0057 -1.1145  0.9896
 7709TIP3   OH244617   6.420   3.511  14.575 -0.1198 -0.0780 -0.6291
 7709TIP3    H144618   6.375   3.430  14.553  0.0632 -0.9461  2.0592
 7709TIP3    H244619   6.486   3.485  14.640  0.5647  2.0687 -0.4305
 7710TIP3   OH244620   0.396   2.099   3.485  0.0363  0.3082 -0.4612
 7710TIP3    H144621   0.469   2.047   3.452  0.2064  0.5941 -0.5325
 7710TIP3    H244622   0.427   2.189   3.484 -0.4029  0.4601 -0.7328
 7711TIP3   OH244623   3.035   4.273   3.692 -0.6251 -0.2197  0.6269
 7711TIP3    H144624   3.112   4.317   3.728 -0.8508 -0.0376  0.8945
 7711TIP3    H244625   3.036   4.295   3.599 -0.0321 -0.6999  0.5184
 7712TIP3   OH244626   6.244   4.791  13.072 -0.3207 -0.7568 -0.5521
 7712TIP3    H144627   6.324   4.806  13.022 -0.7550  0.3148 -0.9345
 7712TIP3    H244628   6.246   4.697  13.092  0.3630 -1.0011 -1.7008
 7713TIP3   OH244629   2.032   4.324   3.287 -0.6352  0.2044 -0.0182
 7713TIP3    H144630   2.115   4.340   3.243 -0.3677 -0.7094  0.1421
 7713TIP3    H244631   2.027   4.229   3.296 -1.3419  0.2949  0.6640
 7714TIP3   OH244632   2.743   0.800  16.574  0.2379 -0.5644  0.1353
 7714TIP3    H144633   2.712   0.724  16.525 -0.6108  0.6798 -1.3236
 7714TIP3    H244634   2.775   0.861  16.507  0.1426  0.7089  1.2063
 7715TIP3   OH244635   4.237   2.736   3.931  0.2516  0.4642  0.2000
 7715TIP3    H144636   4.203   2.787   4.004  0.4970  2.4658 -1.0393
 7715TIP3    H244637   4.318   2.698   3.964 -0.9836 -0.8323  1.7989
 7716TIP3   OH244638   4.839   0.428  11.208  0.2548 -1.0563  0.4335
 7716TIP3    H144639   4.773   0.483  11.165  0.9927 -0.2889  0.2625
 7716TIP3    H244640   4.840   0.347  11.156 -0.8303 -1.2395  0.6846
 7717TIP3   OH244641   0.725   0.067   1.714  0.2872  0.1280  0.5999
 7717TIP3    H144642   0.753   0.146   1.669  2.9349 -0.4426  1.1988
 7717TIP3    H244643   0.707   0.094   1.804  1.3627  0.0201  0.8487
 7718TIP3   OH244644   0.076   2.258  11.250 -0.0413  0.3188 -0.4984
 7718TIP3    H144645   0.048   2.213  11.170 -0.9618  0.4344 -0.2536
 7718TIP3    H244646  -0.006   2.275  11.297  0.7257 -2.3102  1.8614
 7719TIP3   OH244647   3.133   3.473  13.358 -0.3718  0.6885 -0.0018
 7719TIP3    H144648   3.133   3.566  13.335  0.7448  0.0434 -2.8465
 7719TIP3    H244649   3.137   3.427  13.274  0.1528 -1.9168  1.3771
 7720TIP3   OH244650   5.029   2.279  13.179  0.0303 -0.3923 -0.3879
 7720TIP3    H144651   5.103   2.234  13.139  0.0732 -0.4227 -0.2755
 7720TIP3    H244652   5.034   2.369  13.147 -0.3426 -0.5857 -1.0039
 7721TIP3   OH244653   5.368   2.564  15.642 -0.7303  0.3927 -0.1791
 7721TIP3    H144654   5.459   2.565  15.612 -1.1200  0.0524 -1.3985
 7721TIP3    H244655   5.372   2.525  15.730  0.4582  1.6860  0.3709
 7722TIP3   OH244656   2.259   3.973  16.554 -1.2296  0.8043  0.2862
 7722TIP3    H144657   2.312   3.957  16.476  0.0150  0.4782  1.1923
 7722TIP3    H244658   2.231   4.064  16.546  0.0547  1.1878  0.1539
 7723TIP3   OH244659   4.209   0.202   0.221  0.0259  0.5280 -0.5568
 7723TIP3    H144660   4.221   0.286   0.177  0.3359 -0.3346 -2.1439
 7723TIP3    H244661   4.136   0.216   0.280 -0.2336  1.7789 -1.1676
 7724TIP3   OH244662   2.803   3.822  10.914  0.0651  0.0722  0.3426
 7724TIP3    H144663   2.808   3.879  10.991 -0.8788  0.3446  0.2095
 7724TIP3    H244664   2.775   3.880  10.843 -0.3830 -0.4539  0.0900
 7725TIP3   OH244665   1.435   3.162  17.289 -0.0370 -0.0236  0.4799
 7725TIP3    H144666   1.481   3.080  17.271  0.2778  0.2520  0.0070
 7725TIP3    H244667   1.458   3.218  17.216 -0.7968  0.2587  0.4526
 7726TIP3   OH244668   4.448   6.336  15.636 -0.1530 -0.4217 -0.3471
 7726TIP3    H144669   4.442   6.374  15.548 -3.3801  1.4805  0.5860
 7726TIP3    H244670   4.537   6.357  15.665 -0.7414  3.7919 -1.1493
 7727TIP3   OH244671   3.891   5.019  17.209 -0.1983 -0.3724  0.1378
 7727TIP3    H144672   3.969   4.979  17.171 -0.6028 -0.7703 -0.2838
 7727TIP3    H244673   3.855   4.951  17.267  0.1016  0.0268  0.7959
 7728TIP3   OH244674   3.586   4.118  16.141 -0.1345  0.2086 -0.0087
 7728TIP3    H144675   3.670   4.083  16.170 -0.1371 -0.2180 -0.4868
 7728TIP3    H244676   3.580   4.091  16.049 -0.1148  1.5324 -0.4037
 7729TIP3   OH244677   5.199   0.570  11.082 -0.0094 -0.1048  0.3161
 7729TIP3    H144678   5.194   0.578  10.987  0.8850  0.7491  0.3277
 7729TIP3    H244679   5.286   0.604  11.104 -0.4186  0.2087  1.4879
 7730TIP3   OH244680   0.060   3.816  15.536 -0.3608 -0.2987 -0.9066
 7730TIP3    H144681   0.035   3.838  15.446 -0.1286  0.7757 -0.7190
 7730TIP3    H244682   0.141   3.766  15.526 -1.6248 -2.2997 -1.4134
 7731TIP3   OH244683   4.282   0.906   4.644 -0.6193 -0.0535  0.6429
 7731TIP3    H144684   4.298   0.906   4.549 -0.5694 -2.6766  0.6124
 7731TIP3    H244685   4.325   0.985   4.676  0.0107  0.4691 -1.4280
 7732TIP3   OH244686   3.973   1.107   2.834  0.0751  0.0386 -0.0908
 7732TIP3    H144687   3.900   1.134   2.778  0.6933  0.9210 -0.4867
 7732TIP3    H244688   3.951   1.141   2.920 -0.0930  0.1198 -0.1645
 7733TIP3   OH244689   5.120   3.909   1.919 -0.3724 -0.0255 -0.5440
 7733TIP3    H144690   5.167   3.991   1.928 -0.3315 -0.1279  0.2116
 7733TIP3    H244691   5.183   3.849   1.880  0.2353 -0.2624  0.8026
 7734TIP3   OH244692   2.226   3.314   1.595  0.0459 -0.0654  0.0082
 7734TIP3    H144693   2.272   3.364   1.662 -1.2064  0.1251  0.7343
 7734TIP3    H244694   2.264   3.227   1.599  0.0440 -0.0280  0.9044
 7735TIP3   OH244695   5.495   2.001  11.092 -0.5058 -0.5195  0.0311
 7735TIP3    H144696   5.555   2.076  11.088 -2.0465  0.7125 -0.5582
 7735TIP3    H244697   5.435   2.023  11.163 -1.4243 -0.8555 -0.6424
 7736TIP3   OH244698   0.647   0.634  11.404 -0.2013  0.1493 -0.4206
 7736TIP3    H144699   0.598   0.715  11.399  0.6653  0.7713  0.9780
 7736TIP3    H244700   0.584   0.566  11.381 -0.8589  1.2261 -1.8751
 7737TIP3   OH244701   5.483   1.461   5.777 -0.0175  0.1978  0.4774
 7737TIP3    H144702   5.567   1.455   5.823  0.6795  1.1624 -0.6762
 7737TIP3    H244703   5.460   1.553   5.781  0.4393  0.4316 -1.8115
 7738TIP3   OH244704   3.421   4.239  13.899 -0.0432  0.4494 -0.6180
 7738TIP3    H144705   3.361   4.245  13.825  1.1208 -0.3420 -1.6426
 7738TIP3    H244706   3.390   4.164  13.950 -0.9220  1.0742 -0.2353
 7739TIP3   OH244707   3.061   2.629   1.425  0.0023  0.1580 -0.1062
 7739TIP3    H144708   3.013   2.553   1.392  1.0759 -1.1287  1.2174
 7739TIP3    H244709   3.095   2.672   1.346 -0.7112 -0.6734 -0.8674
 7740TIP3   OH244710   4.658   4.205  15.566 -0.2921  0.6081  0.0320
 7740TIP3    H144711   4.655   4.110  15.558 -0.2090  0.5049  1.2301
 7740TIP3    H244712   4.681   4.221  15.657 -0.9632  1.7792  0.0019
 7741TIP3   OH244713   3.832   1.798  15.175  0.4131 -0.1895  0.0420
 7741TIP3    H144714   3.780   1.775  15.098 -4.2372  1.1359  2.6266
 7741TIP3    H244715   3.864   1.713  15.207 -1.0244 -1.1625 -1.0137
 7742TIP3   OH244716   6.728   6.604   2.466 -0.4435  0.1813 -0.1335
 7742TIP3    H144717   6.638   6.622   2.493 -0.8784 -0.9868 -0.7816
 7742TIP3    H244718   6.765   6.555   2.539 -0.4749  0.2573 -0.0664
 7743TIP3   OH244719   2.647   4.122  11.739 -0.0242  0.4081  0.0752
 7743TIP3    H144720   2.698   4.043  11.756 -0.5945  0.0505  0.1243
 7743TIP3    H244721   2.704   4.194  11.767  0.7788  0.0561 -0.6223
 7744TIP3   OH244722   4.865   1.841  13.937  0.0774 -0.0111  0.4367
 7744TIP3    H144723   4.887   1.749  13.948  1.8020  0.1730 -1.2048
 7744TIP3    H244724   4.805   1.842  13.862  0.8042  0.2729 -0.1516
 7745TIP3   OH244725   0.309   6.438   0.629  0.1272 -0.2909  0.8385
 7745TIP3    H144726   0.219   6.468   0.644 -0.4068 -2.3872  2.0069
 7745TIP3    H244727   0.364   6.510   0.660 -1.1362  1.1865 -0.2801
 7746TIP3   OH244728   5.510   0.656  17.223 -0.3090  0.0027 -0.0763
 7746TIP3    H144729   5.524   0.618  17.136 -1.0957  1.0687 -0.6864
 7746TIP3    H244730   5.585   0.627  17.275  1.5522  1.5379 -1.8478
 7747TIP3   OH244731   4.226   2.962  12.438  0.1294 -0.3410  0.0163
 7747TIP3    H144732   4.298   2.933  12.494 -1.4428  1.6154  3.1653
 7747TIP3    H244733   4.154   2.903  12.459  0.0853 -0.8141 -1.4079
 7748TIP3   OH244734   4.620   0.280  14.688 -0.1167  0.3583 -0.6227
 7748TIP3    H144735   4.638   0.187  14.675 -0.3545  0.1628  0.3963
 7748TIP3    H244736   4.592   0.287  14.779  1.3577  1.6579 -0.2524
 7749TIP3   OH244737   1.345   2.572   5.726 -0.5724 -0.0412  0.9761
 7749TIP3    H144738   1.405   2.518   5.777  0.6580  1.3266  1.0109
 7749TIP3    H244739   1.305   2.630   5.790 -2.4061 -1.3431  1.0441
 7750TIP3   OH244740   0.009   1.350  16.849 -0.6415 -0.6188  0.3376
 7750TIP3    H144741  -0.068   1.319  16.802 -0.6714 -0.3038  0.1807
 7750TIP3    H244742   0.082   1.302  16.808 -0.2642  2.0079 -2.2497
 7751TIP3   OH244743   6.807   3.943   4.607 -0.2952  0.3700  0.1066
 7751TIP3    H144744   6.877   4.007   4.614  0.6495 -0.6399  0.0395
 7751TIP3    H244745   6.847   3.860   4.635 -0.7741 -0.6891 -2.2586
 7752TIP3   OH244746   3.313   5.610   2.496  0.2527  0.2458 -0.3798
 7752TIP3    H144747   3.366   5.658   2.559  1.1874  0.2096 -1.1182
 7752TIP3    H244748   3.222   5.629   2.520  0.6084  0.8581  0.4796
 7753TIP3   OH244749   3.083   2.262   0.240  0.2746 -0.3692  0.1089
 7753TIP3    H144750   3.006   2.248   0.184  0.2888 -0.0586  0.0118
 7753TIP3    H244751   3.071   2.200   0.312  0.1309 -0.6005 -0.1109
 7754TIP3   OH244752   4.933   5.934  12.789 -0.0442 -0.2704 -0.5127
 7754TIP3    H144753   4.848   5.963  12.757 -0.2295 -1.2293 -0.9237
 7754TIP3    H244754   4.926   5.838  12.791  0.4673 -0.2816  1.0119
 7755TIP3   OH244755   2.362   2.446   2.155  0.4499  0.1747  0.1942
 7755TIP3    H144756   2.309   2.471   2.231  0.5907  1.1447 -0.0181
 7755TIP3    H244757   2.359   2.523   2.098  1.9996  0.2056  0.1407
 7756TIP3   OH244758   1.261   3.004  16.516 -0.5199  0.3538  0.8467
 7756TIP3    H144759   1.289   2.988  16.607 -0.4092  0.8976  0.9117
 7756TIP3    H244760   1.328   3.062  16.480  0.1648 -0.9764 -0.0154
 7757TIP3   OH244761   6.484   2.765   0.138  0.2815  0.2923  0.4222
 7757TIP3    H144762   6.444   2.852   0.128 -0.9728 -0.5716 -2.5196
 7757TIP3    H244763   6.564   2.770   0.086 -1.0676 -1.0552 -1.8624
 7758TIP3   OH244764   1.952   2.193  17.038  0.3986  0.3035  0.6407
 7758TIP3    H144765   1.969   2.099  17.038 -2.5523 -0.3310 -2.7595
 7758TIP3    H244766   1.865   2.202  17.076 -0.4027  1.3799 -1.3950
 7759TIP3   OH244767   1.470   2.612   3.110  0.0830  0.1659 -0.2055
 7759TIP3    H144768   1.553   2.649   3.140 -0.5555  0.5373  1.1263
 7759TIP3    H244769   1.405   2.644   3.172 -0.7687 -1.6626 -0.1133
 7760TIP3   OH244770   5.843   0.296  16.652  0.2775  0.2729  0.1996
 7760TIP3    H144771   5.789   0.358  16.604 -0.2543 -0.4964 -0.2117
 7760TIP3    H244772   5.797   0.212  16.644  0.7745 -0.0985  1.0808
 7761TIP3   OH244773   2.403   2.171  13.918 -0.1491 -0.6769  0.1711
 7761TIP3    H144774   2.365   2.237  13.976  0.3329 -0.0137 -0.2489
 7761TIP3    H244775   2.444   2.108  13.978  0.4655  0.0732  0.5540
 7762TIP3   OH244776   3.295   2.898   3.286 -0.2842  0.2756 -0.2934
 7762TIP3    H144777   3.206   2.864   3.277  0.1380 -0.5210 -1.6720
 7762TIP3    H244778   3.287   2.992   3.275 -0.8434  0.1045 -1.4916
 7763TIP3   OH244779   3.877   5.988   6.417  0.3226  0.2944  0.0565
 7763TIP3    H144780   3.911   6.031   6.495  1.5949 -0.3778 -0.1221
 7763TIP3    H244781   3.940   5.919   6.398 -0.9343 -0.7362 -0.4998
 7764TIP3   OH244782   4.042   3.617   1.444  0.4058 -0.9576 -0.1755
 7764TIP3    H144783   4.055   3.679   1.373  0.7238  1.5160  1.9792
 7764TIP3    H244784   3.947   3.611   1.453  0.3785 -0.4761 -0.1357
 7765TIP3   OH244785   4.975   0.374  15.680  0.1673  0.1758 -0.1562
 7765TIP3    H144786   4.915   0.328  15.738 -1.6127  1.2751 -1.0668
 7765TIP3    H244787   4.982   0.462  15.718  0.8828  0.1725 -0.2779
 7766TIP3   OH244788   6.379   6.706   3.529  0.3830 -0.0702 -0.5240
 7766TIP3    H144789   6.343   6.732   3.445  0.7386 -0.3298 -0.7618
 7766TIP3    H244790   6.333   6.759   3.594 -1.2431 -1.2082 -0.7141
 7767TIP3   OH244791   0.999   4.684   1.590  0.0352  0.3300  0.4216
 7767TIP3    H144792   0.944   4.610   1.567  0.4621 -0.0266  0.5463
 7767TIP3    H244793   0.955   4.725   1.664  0.4853 -0.5769  1.1978
 7768TIP3   OH244794   6.223   1.551  15.599 -0.1551 -0.0667  0.4150
 7768TIP3    H144795   6.316   1.548  15.577 -0.4811 -3.1133 -0.7557
 7768TIP3    H244796   6.222   1.562  15.694  1.3749  0.7591  0.3605
 7769TIP3   OH244797   3.310   6.720   3.862 -0.0630 -0.4064 -0.0355
 7769TIP3    H144798   3.237   6.756   3.913  0.5564 -1.4640  1.6173
 7769TIP3    H244799   3.270   6.689   3.781 -1.1548  0.7301  0.0579
 7770TIP3   OH244800   0.757   4.106   3.799 -0.5042  0.3323 -0.2447
 7770TIP3    H144801   0.797   4.145   3.722 -0.9748 -1.0923 -1.2329
 7770TIP3    H244802   0.830   4.090   3.858 -0.2240  2.0503 -0.0943
 7771TIP3   OH244803   3.046   3.975  13.218 -0.1447  0.4104 -0.0173
 7771TIP3    H144804   3.042   4.040  13.148  1.4618  2.0334  1.3449
 7771TIP3    H244805   2.992   4.013  13.288  0.1181 -0.1340  0.4765
 7772TIP3   OH244806   4.337   2.976  12.067 -0.1571 -0.4104  0.2312
 7772TIP3    H144807   4.364   2.891  12.102  0.6982 -1.1043 -2.0146
 7772TIP3    H244808   4.251   2.959  12.028  0.4486 -0.4904 -1.0820
 7773TIP3   OH244809   1.438   0.153  15.918  0.2706  0.4621 -0.0197
 7773TIP3    H144810   1.512   0.125  15.973  0.7030  0.4735 -0.5816
 7773TIP3    H244811   1.435   0.088  15.848 -2.1437 -1.2551  1.6061
 7774TIP3   OH244812   4.827   3.474  10.340  0.3255 -0.3617  0.1051
 7774TIP3    H144813   4.770   3.525  10.397  0.6856  0.1499  0.0149
 7774TIP3    H244814   4.887   3.539  10.302 -0.5935 -0.5417 -1.6806
 7775TIP3   OH244815   0.037   1.071   1.022  0.3135  0.7267 -0.2215
 7775TIP3    H144816  -0.029   1.011   0.986  2.7640 -2.7481  0.8779
 7775TIP3    H244817  -0.010   1.120   1.089 -1.2312 -1.5449  0.4090
 7776TIP3   OH244818   2.895   2.228  13.218 -0.4670  0.0999 -0.3707
 7776TIP3    H144819   2.852   2.183  13.291  0.4078  0.0004  0.0901
 7776TIP3    H244820   2.824   2.274  13.173 -1.3495 -1.5844 -0.7307
 7777TIP3   OH244821   0.742   1.568   2.042 -0.7630  0.0814 -0.1246
 7777TIP3    H144822   0.810   1.611   2.095  0.4829 -0.4155 -1.2664
 7777TIP3    H244823   0.679   1.535   2.105  0.1545  0.4200  0.9868
 7778TIP3   OH244824   6.754   2.338   3.079 -0.2968  0.6719 -0.3794
 7778TIP3    H144825   6.782   2.385   3.157  0.5393 -0.2613 -0.1145
 7778TIP3    H244826   6.754   2.405   3.010  0.1102  1.2347  0.1595
 7779TIP3   OH244827   0.325   3.344  14.918 -0.0869  0.1108 -0.0921
 7779TIP3    H144828   0.327   3.297  14.834 -2.6056 -0.2020 -0.0074
 7779TIP3    H244829   0.375   3.288  14.978  4.3306  1.7539 -2.0131
 7780TIP3   OH244830   5.778   3.002   5.857 -0.0103  0.1462  0.4321
 7780TIP3    H144831   5.761   3.087   5.897  1.1525  0.4461  0.2920
 7780TIP3    H244832   5.815   3.022   5.772 -3.3444 -0.4757 -1.2656
 7781TIP3   OH244833   5.334   4.729  11.478  0.3069 -0.5165  0.0814
 7781TIP3    H144834   5.354   4.639  11.502 -1.2497 -0.9581 -0.1772
 7781TIP3    H244835   5.389   4.747  11.403  0.3340 -1.3982 -0.1135
 7782TIP3   OH244836   0.648   5.247   6.099 -0.0211  0.0044  0.0720
 7782TIP3    H144837   0.711   5.219   6.165 -0.9307 -0.8865  0.5749
 7782TIP3    H244838   0.640   5.172   6.040  1.4256  1.0794 -1.5838
 7783TIP3   OH244839   3.843   5.097   4.562 -0.2607  0.3347 -0.2367
 7783TIP3    H144840   3.772   5.094   4.498 -0.0422  0.1074 -0.4661
 7783TIP3    H244841   3.852   5.006   4.592 -1.8758  0.7816  1.7645
 7784TIP3   OH244842   2.323   2.454  11.198  0.0188  0.0685 -0.0059
 7784TIP3    H144843   2.236   2.493  11.209 -0.3037 -0.1693 -1.6670
 7784TIP3    H244844   2.315   2.368  11.239 -0.4757  0.1267  0.0321
 7785TIP3   OH244845   4.931   1.802  13.465 -0.3123 -0.3005 -0.0799
 7785TIP3    H144846   4.870   1.844  13.527 -0.5141  0.4893 -0.7956
 7785TIP3    H244847   4.988   1.873  13.437 -0.3350 -0.6220 -0.9293
 7786TIP3   OH244848   5.442   1.593   2.109  0.7006 -0.2787 -0.5406
 7786TIP3    H144849   5.519   1.645   2.134 -0.5961  0.8952  1.1151
 7786TIP3    H244850   5.416   1.629   2.024  1.0602  0.3726 -0.3800
 7787TIP3   OH244851   0.275   4.215  16.742 -0.6049  0.0774  0.0626
 7787TIP3    H144852   0.203   4.184  16.798 -0.6750  2.0846  1.1216
 7787TIP3    H244853   0.309   4.135  16.701 -1.0385 -1.3628  2.3930
 7788TIP3   OH244854   4.435   2.222   5.902 -0.1451 -0.0777  0.4496
 7788TIP3    H144855   4.419   2.229   5.807  1.7329 -0.1845  0.1068
 7788TIP3    H244856   4.382   2.292   5.940 -1.0971 -0.1676 -0.6476
 7789TIP3   OH244857   4.207   5.344   3.209 -0.1882  0.0455  0.0660
 7789TIP3    H144858   4.233   5.434   3.193  3.4082 -0.5473  1.9450
 7789TIP3    H244859   4.213   5.334   3.304 -4.1602 -1.1721  0.2445
 7790TIP3   OH244860   2.855   6.037   3.151  0.2655 -0.1634 -0.0987
 7790TIP3    H144861   2.828   6.009   3.239  0.2350 -1.0463 -0.3844
 7790TIP3    H244862   2.776   6.075   3.113  0.4136  0.7093  0.4422
 7791TIP3   OH244863   6.367   5.560  12.685  0.3106  0.6233 -0.2390
 7791TIP3    H144864   6.301   5.512  12.736 -0.5618  1.8585 -0.1883
 7791TIP3    H244865   6.440   5.571  12.746 -0.1711  0.8672  0.2995
 7792TIP3   OH244866   1.306   3.862  15.231 -0.2429  0.3492 -0.3480
 7792TIP3    H144867   1.315   3.839  15.323  2.1832 -0.3385 -0.7156
 7792TIP3    H244868   1.391   3.900  15.207 -0.0272 -1.5122 -2.8120
 7793TIP3   OH244869   5.343   0.929  13.458 -0.1132  0.0551  0.0554
 7793TIP3    H144870   5.435   0.901  13.460 -0.0112  0.2252 -1.4489
 7793TIP3    H244871   5.337   0.994  13.528  1.0198  0.3320 -0.0802
 7794TIP3   OH244872   4.965   3.502  11.251 -0.2956  0.2196 -0.0033
 7794TIP3    H144873   4.958   3.570  11.317  0.8880 -0.5851  0.9722
 7794TIP3    H244874   4.876   3.468  11.241 -0.4529  0.2148  1.3303
 7795TIP3   OH244875   3.588   2.322  14.189 -0.6854  0.5017  0.0080
 7795TIP3    H144876   3.517   2.345  14.249  0.6448  0.8793  1.4905
 7795TIP3    H244877   3.665   2.316  14.245  0.4842  0.2401 -1.5893
 7796TIP3   OH244878   3.170   2.982   0.779 -0.0707 -0.5263  0.4119
 7796TIP3    H144879   3.256   2.959   0.744 -0.5189 -2.7350  0.7054
 7796TIP3    H244880   3.185   2.997   0.872  0.3889  1.3153  0.0515
 7797TIP3   OH244881   3.877   0.203   5.406 -0.1773  0.3949  0.5509
 7797TIP3    H144882   3.803   0.159   5.365 -0.7487  1.0269  0.8973
 7797TIP3    H244883   3.949   0.193   5.344 -0.4460 -0.5647  0.3937
 7798TIP3   OH244884   5.761   1.574   2.621  0.4133  0.7114  0.9232
 7798TIP3    H144885   5.678   1.561   2.575  0.0732  2.1003  1.1022
 7798TIP3    H244886   5.782   1.489   2.659 -0.6069  0.1942  0.3380
 7799TIP3   OH244887   6.694   3.699   5.950  0.4394 -0.3792 -0.1911
 7799TIP3    H144888   6.704   3.635   6.020  1.2330 -0.6342 -0.5302
 7799TIP3    H244889   6.658   3.649   5.877  0.1856 -0.2440 -0.1575
 7800TIP3   OH244890   6.140   0.843   3.510  0.3189 -0.3501 -0.3813
 7800TIP3    H144891   6.123   0.924   3.558 -2.8303 -0.4587 -1.2118
 7800TIP3    H244892   6.152   0.777   3.579  1.6871  0.5772  0.2849
 7801TIP3   OH244893   4.979   2.591   1.870 -0.1242  0.5482 -0.0191
 7801TIP3    H144894   4.908   2.530   1.849  0.1266  0.8887 -1.9705
 7801TIP3    H244895   5.059   2.543   1.848  0.1662  0.8579  0.3597
 7802TIP3   OH244896   5.809   1.204   3.467 -0.1130 -0.1968 -0.3628
 7802TIP3    H144897   5.726   1.163   3.441  0.3011 -0.5050 -1.2219
 7802TIP3    H244898   5.874   1.135   3.454  0.4523  0.4330 -0.8690
 7803TIP3   OH244899   5.858   1.887   2.975 -0.1441 -0.0819 -0.6181
 7803TIP3    H144900   5.836   1.926   3.060  0.0238  0.3670 -0.7762
 7803TIP3    H244901   5.926   1.944   2.940  0.9630 -1.2107 -0.3253
 7804TIP3   OH244902   1.996   1.651  14.022 -0.4808 -0.4791  0.0211
 7804TIP3    H144903   1.921   1.612  14.067  0.0948 -0.4775  0.9729
 7804TIP3    H244904   2.066   1.586  14.031  0.8508  1.2753  2.6527
 7805TIP3   OH244905   3.698   1.670   0.416  0.1377 -0.1371 -0.3901
 7805TIP3    H144906   3.786   1.689   0.383  0.4027  0.0725  0.4392
 7805TIP3    H244907   3.681   1.737   0.482  0.1681 -1.3982  0.9273
 7806TIP3   OH244908   6.228   1.172   0.309 -0.0028 -0.6956  0.3401
 7806TIP3    H144909   6.250   1.097   0.364 -0.0342 -1.3386 -0.5221
 7806TIP3    H244910   6.304   1.230   0.316 -0.6033 -0.0630  2.2362
 7807TIP3   OH244911   4.606   0.971  16.098 -0.3042 -0.3823  0.5377
 7807TIP3    H144912   4.674   0.947  16.035 -0.7016  0.1422 -0.0974
 7807TIP3    H244913   4.639   1.051  16.139 -1.7027  1.3785 -1.6480
 7808TIP3   OH244914   2.185   3.823   3.181  0.0710 -0.0068 -0.0136
 7808TIP3    H144915   2.278   3.818   3.201 -0.4920 -1.4932  2.4503
 7808TIP3    H244916   2.162   3.915   3.196  0.7972  0.0043  1.0647
 7809TIP3   OH244917   4.970   6.046   3.089  0.5250  0.6158  0.6397
 7809TIP3    H144918   4.903   6.038   3.022  0.9365 -0.6850  0.3591
 7809TIP3    H244919   4.976   5.958   3.127  2.4788  0.5437  0.2361
 7810TIP3   OH244920   5.638   5.599  12.846  0.6747  0.0190 -0.1909
 7810TIP3    H144921   5.734   5.600  12.841  0.6028  0.6657 -1.6527
 7810TIP3    H244922   5.612   5.528  12.787  0.1486  1.6312 -1.9400
 7811TIP3   OH244923   5.550   4.403   5.856 -0.2611 -0.5046  0.1322
 7811TIP3    H144924   5.470   4.455   5.849  0.4321  0.4366 -1.1302
 7811TIP3    H244925   5.534   4.327   5.799 -0.0826 -0.0579 -0.5284
 7812TIP3   OH244926   2.846   3.210   0.771  0.6271  0.2930  0.5345
 7812TIP3    H144927   2.817   3.158   0.847  0.3786 -1.7187 -0.8782
 7812TIP3    H244928   2.835   3.301   0.798 -1.2618 -0.4029  2.2385
 7813TIP3   OH244929   5.698   1.475  12.650  0.6556  0.1507  0.1154
 7813TIP3    H144930   5.617   1.441  12.690  1.4298 -0.0868  1.5192
 7813TIP3    H244931   5.685   1.463  12.556 -1.6921  1.7913  0.1861
 7814TIP3   OH244932   5.679   2.879  16.677 -0.1198  0.7715  0.3214
 7814TIP3    H144933   5.678   2.974  16.674  1.9886  0.7722 -0.7893
 7814TIP3    H244934   5.682   2.858  16.771  0.7125  1.8150  0.5295
 7815TIP3   OH244935   3.418   6.684  16.943  0.0670 -0.0512 -0.9011
 7815TIP3    H144936   3.389   6.766  16.984  1.1766 -0.3305  0.4761
 7815TIP3    H244937   3.493   6.657  16.994  2.2712  0.2021 -3.8628
 7816TIP3   OH244938   1.154   0.061  12.627  0.6303 -0.9209 -0.4360
 7816TIP3    H144939   1.071   0.080  12.671  0.1331  2.1646 -2.5007
 7816TIP3    H244940   1.147  -0.030  12.599 -1.1429 -1.3409  1.3205
 7817TIP3   OH244941   4.369   5.605  16.411 -0.3811  0.4206 -0.4403
 7817TIP3    H144942   4.374   5.591  16.317 -0.2988  1.3443 -0.5751
 7817TIP3    H244943   4.278   5.630  16.427 -0.7307 -1.0189 -0.0910
 7818TIP3   OH244944   5.952   0.427  11.326  0.6177  0.2276  0.1201
 7818TIP3    H144945   5.900   0.388  11.255  0.9086  0.5084 -0.2505
 7818TIP3    H244946   5.892   0.487  11.369  1.4649  2.8805 -2.2240
 7819TIP3   OH244947   0.933   1.791  11.982  1.1739 -0.4415  0.4111
 7819TIP3    H144948   0.880   1.869  11.964  0.7717 -0.4276  1.6089
 7819TIP3    H244949   0.869   1.721  11.990  1.4569 -0.6920  0.4729
 7820TIP3   OH244950   0.292   1.054   6.146  0.1080 -0.1513 -0.3872
 7820TIP3    H144951   0.237   0.983   6.112  0.9674 -1.1651  0.2876
 7820TIP3    H244952   0.355   1.010   6.204  1.5385  0.9883 -1.0249
 7821TIP3   OH244953   1.126   6.323  14.469  0.3610 -0.1343 -0.2177
 7821TIP3    H144954   1.141   6.246  14.415 -1.0756 -0.3531 -0.3205
 7821TIP3    H244955   1.211   6.368  14.472  0.2536  0.4137 -3.4321
 7822TIP3   OH244956   5.955   3.919   0.061  0.8945  0.5246 -0.5149
 7822TIP3    H144957   6.026   3.969   0.103 -0.7714  0.3802  2.6501
 7822TIP3    H244958   5.979   3.827   0.077  1.4550  0.3901 -2.0377
 7823TIP3   OH244959   4.018   2.531  15.527  0.1403  0.6799  0.1210
 7823TIP3    H144960   4.095   2.554  15.476 -0.3805  1.2479 -0.4311
 7823TIP3    H244961   3.993   2.444  15.496 -0.7931  1.4563 -1.3795
 7824TIP3   OH244962   0.002   5.292  16.597 -0.5912  0.0786 -0.1189
 7824TIP3    H144963  -0.009   5.198  16.612 -1.2603  0.2513  0.4669
 7824TIP3    H244964  -0.072   5.315  16.540 -0.5314  0.2855 -0.1134
 7825TIP3   OH244965   1.247   4.067  11.148 -0.2250  0.2169  0.2049
 7825TIP3    H144966   1.300   3.988  11.145 -1.0837 -0.3412 -2.2183
 7825TIP3    H244967   1.164   4.042  11.107 -0.7186  2.2050 -0.1109
 7826TIP3   OH244968   5.300   4.811  14.827  0.2124 -0.1641  0.1664
 7826TIP3    H144969   5.240   4.738  14.812 -0.7432  0.5658  0.4001
 7826TIP3    H244970   5.387   4.773  14.814 -0.2022 -1.6360  1.4607
 7827TIP3   OH244971   2.206   3.679   0.731  0.7093  0.4938 -0.3280
 7827TIP3    H144972   2.164   3.750   0.682  0.4259  0.9901  0.6249
 7827TIP3    H244973   2.140   3.611   0.737  1.3454 -0.3217 -2.2077
 7828TIP3   OH244974   0.091   5.563  15.932 -0.1791  0.0903 -0.5117
 7828TIP3    H144975   0.021   5.615  15.893  0.0145  0.0750 -0.8841
 7828TIP3    H244976   0.062   5.472  15.923 -0.2639  0.1038 -0.3696
 7829TIP3   OH244977   2.559   5.510  15.265 -0.0278 -0.0131  0.1990
 7829TIP3    H144978   2.577   5.511  15.359  0.3481 -0.4360  0.1335
 7829TIP3    H244979   2.603   5.431  15.233 -1.3019 -0.6249 -0.0934
 7830TIP3   OH244980   3.017   2.586  13.639  0.0026 -0.2032  0.0379
 7830TIP3    H144981   3.110   2.570  13.625  0.4411  1.9769  0.1578
 7830TIP3    H244982   3.013   2.625  13.727 -0.9740  0.0980 -0.1370
 7831TIP3   OH244983   0.672   5.052  11.644 -0.5962  0.4714  0.2400
 7831TIP3    H144984   0.726   5.040  11.566 -1.4540 -1.2815 -0.1174
 7831TIP3    H244985   0.582   5.042  11.613 -1.0399  1.6652  1.1239
 7832TIP3   OH244986   2.419   3.778   2.753 -0.6239 -0.0916 -0.6522
 7832TIP3    H144987   2.494   3.730   2.787 -1.0601 -1.8375 -2.1133
 7832TIP3    H244988   2.448   3.869   2.750 -0.1006 -0.0714  3.0224
 7833TIP3   OH244989   5.591   5.545   0.473 -0.6300 -0.4200 -0.2415
 7833TIP3    H144990   5.574   5.578   0.385  0.3031  2.2805  0.5334
 7833TIP3    H244991   5.504   5.538   0.514 -1.0351 -1.4147 -1.2560
 7834TIP3   OH244992   6.008   6.052  14.425 -0.0898 -0.6733 -0.1203
 7834TIP3    H144993   5.916   6.078  14.420 -0.5079 -1.2822  2.9723
 7834TIP3    H244994   6.026   6.012  14.340 -2.7761 -0.7784 -0.7111
 7835TIP3   OH244995   3.105   6.816   2.013  0.6598  0.0524 -0.2117
 7835TIP3    H144996   3.137   6.764   1.939 -0.7623 -0.3260 -0.5757
 7835TIP3    H244997   3.075   6.898   1.974  0.5986  0.1560  0.0489
 7836TIP3   OH244998   1.322   5.161  12.954  0.4414 -0.1953 -0.1809
 7836TIP3    H144999   1.415   5.177  12.970  0.3372 -1.3109  1.6595
 7836TIP3    H245000   1.288   5.135  13.040 -1.0107 -2.4556 -1.4208
 7837TIP3   OH245001   5.036   2.772  15.780 -0.0992  0.4459 -0.2454
 7837TIP3    H145002   5.072   2.702  15.725 -0.2234 -0.5237  0.8895
 7837TIP3    H245003   5.111   2.802  15.831 -0.0735  1.0688 -0.6484
 7838TIP3   OH245004   6.156   4.509  13.801  0.0810  0.3946  0.2329
 7838TIP3    H145005   6.215   4.477  13.869 -0.6520 -0.8227  0.3171
 7838TIP3    H245006   6.078   4.537  13.848 -1.1691 -2.1647 -0.2030
 7839TIP3   OH245007   0.556   6.224  13.658  0.4561  0.1631 -0.2931
 7839TIP3    H145008   0.533   6.221  13.751  2.7782 -1.3891  0.2825
 7839TIP3    H245009   0.547   6.316  13.633 -2.0393  0.3027  0.9498
 7840TIP3   OH245010   2.998   5.147  14.454 -0.4495 -0.5299 -0.4940
 7840TIP3    H145011   3.093   5.150  14.438 -0.5881  0.1749 -1.2092
 7840TIP3    H245012   2.986   5.196  14.535 -0.1494 -1.0588 -0.1212
 7841TIP3   OH245013   0.930   2.249  16.768 -0.2903  0.6790 -0.2424
 7841TIP3    H145014   0.932   2.343  16.789  0.9934 -0.0610  3.2940
 7841TIP3    H245015   0.864   2.213  16.828 -0.1203 -0.8236 -0.9392
 7842TIP3   OH245016   5.205   2.908   4.205 -0.3826 -0.2821 -0.4859
 7842TIP3    H145017   5.279   2.855   4.234  0.1577  0.3127 -0.7484
 7842TIP3    H245018   5.243   2.995   4.189 -1.4311  0.4428  0.8799
 7843TIP3   OH245019   4.934   3.240   2.419  0.0187 -0.3821 -0.4476
 7843TIP3    H145020   5.002   3.209   2.360  2.1309  0.1628  1.6395
 7843TIP3    H245021   4.946   3.335   2.421 -0.0939 -0.3865  0.7718
 7844TIP3   OH245022   2.099   4.132   2.252  0.0028 -0.0706 -0.2226
 7844TIP3    H145023   2.046   4.075   2.196  0.7469 -0.3624 -0.6370
 7844TIP3    H245024   2.187   4.126   2.216  0.2777  0.5960  0.3200
 7845TIP3   OH245025   0.999   3.859  16.853 -0.0414 -0.3790  0.8642
 7845TIP3    H145026   1.076   3.848  16.798  0.9401  0.7282  1.9943
 7845TIP3    H245027   0.927   3.872  16.792  1.3265  2.8157 -0.1657
 7846TIP3   OH245028   1.277   1.371   4.950 -0.5221  0.2342 -0.4047
 7846TIP3    H145029   1.219   1.419   5.008 -0.7172  0.4757 -0.7998
 7846TIP3    H245030   1.256   1.403   4.862  0.7368  0.8935 -0.4853
 7847TIP3   OH245031   5.178   5.516   6.043 -0.0267  0.2175  0.2310
 7847TIP3    H145032   5.183   5.473   5.957  1.4810  1.0017 -0.0901
 7847TIP3    H245033   5.242   5.468   6.097  1.2925  1.6895  0.0146
 7848TIP3   OH245034   6.213   1.607  15.868 -0.0976  0.1565  0.4582
 7848TIP3    H145035   6.181   1.698  15.873  3.9697  1.6694  1.1851
 7848TIP3    H245036   6.166   1.561  15.938 -3.2024  1.3285 -0.7801
 7849TIP3   OH245037   3.056   2.621   3.760  0.4093  0.6795 -0.6902
 7849TIP3    H145038   2.986   2.680   3.731  0.2008 -0.2598 -2.1286
 7849TIP3    H245039   3.045   2.617   3.855 -0.5790  1.6974 -0.7512
 7850TIP3   OH245040   3.766   2.285  11.738 -0.2119 -0.2972 -0.4298
 7850TIP3    H145041   3.759   2.379  11.750 -0.1746 -0.3433 -0.0482
 7850TIP3    H245042   3.681   2.259  11.703  0.2654  0.0876 -1.9151
 7851TIP3   OH245043   5.566   4.063   0.250  0.0661 -0.4413  0.7506
 7851TIP3    H145044   5.524   4.102   0.327 -0.6045  0.3289  0.0002
 7851TIP3    H245045   5.547   4.124   0.179  4.3127  1.0634  0.7943
 7852TIP3   OH245046   2.059   1.454   5.265  0.5536 -0.3453 -0.3202
 7852TIP3    H145047   2.027   1.543   5.277 -0.8344 -1.1190  2.1124
 7852TIP3    H245048   2.142   1.450   5.312 -0.1239 -0.7298  0.8593
 7853TIP3   OH245049   0.231   1.472   5.013  0.3984 -0.8708  0.0932
 7853TIP3    H145050   0.155   1.530   5.017  0.8005 -0.3976  1.1331
 7853TIP3    H245051   0.208   1.407   4.947  1.4022  2.5314 -3.8226
 7854TIP3   OH245052   6.442   3.285   1.513 -0.6271  0.6883 -0.1332
 7854TIP3    H145053   6.516   3.231   1.484 -0.5815  0.9394 -0.4907
 7854TIP3    H245054   6.455   3.294   1.607 -1.9036 -1.8333  0.3186
 7855TIP3   OH245055   5.470   4.058   1.744 -0.3032 -0.1204 -0.3223
 7855TIP3    H145056   5.482   4.036   1.652 -0.6257 -1.5239 -0.0389
 7855TIP3    H245057   5.399   4.123   1.744 -0.7899 -0.6495 -1.0002
 7856TIP3   OH245058   5.354   2.275  11.505 -0.2100  0.0044  0.6151
 7856TIP3    H145059   5.348   2.370  11.501  1.4525  0.1480  1.2787
 7856TIP3    H245060   5.350   2.254  11.599 -1.0161 -0.6227  0.4530
 7857TIP3   OH245061   3.880   4.503   2.919  0.1861  0.2731 -0.3154
 7857TIP3    H145062   3.970   4.531   2.900 -0.2898  1.1089 -1.3840
 7857TIP3    H245063   3.826   4.550   2.855 -1.0579  0.1085  0.5889
 7858TIP3   OH245064   4.560   3.021   4.926 -0.0282  0.9104  0.7098
 7858TIP3    H145065   4.616   3.088   4.964  1.6313 -0.3042  0.4627
 7858TIP3    H245066   4.576   2.943   4.979 -0.8084  0.3202  0.0895
 7859TIP3   OH245067   6.501   6.612  14.334  0.2441 -0.2383 -0.5458
 7859TIP3    H145068   6.406   6.605  14.340  0.2382 -0.1574 -0.5522
 7859TIP3    H245069   6.519   6.620  14.240  0.3143 -1.1250 -0.6159
 7860TIP3   OH245070   6.711   4.953   0.037 -0.2123 -0.0726  0.2092
 7860TIP3    H145071   6.700   4.870   0.084 -1.7776 -0.2664 -0.4580
 7860TIP3    H245072   6.804   4.957   0.016 -0.3603 -2.4016 -1.0596
 7861TIP3   OH245073   4.814   0.502   6.392  0.3632  0.0424  0.3518
 7861TIP3    H145074   4.847   0.515   6.303  1.2900 -0.9206  0.5493
 7861TIP3    H245075   4.804   0.590   6.427  1.3890  0.3876 -0.2041
 7862TIP3   OH245076   6.610   6.659   3.196 -0.0663 -0.2919  0.6467
 7862TIP3    H145077   6.606   6.634   3.288  2.0203  1.3415  1.2291
 7862TIP3    H245078   6.697   6.699   3.186 -1.1628  1.6619 -1.4942
 7863TIP3   OH245079   5.551   5.769  15.667 -0.3108 -0.1891  0.1525
 7863TIP3    H145080   5.514   5.686  15.637 -0.3790 -0.7724  1.7748
 7863TIP3    H245081   5.493   5.836  15.632 -2.5958 -1.0521  2.1359
 7864TIP3   OH245082   2.475   6.032   5.260  0.4852 -0.2577 -0.3372
 7864TIP3    H145083   2.515   6.108   5.217  1.5805 -0.3258  0.5424
 7864TIP3    H245084   2.548   5.989   5.305 -0.4879 -0.7007  0.8326
 7865TIP3   OH245085   3.810   1.966  16.611 -0.0832  0.0190  1.1094
 7865TIP3    H145086   3.820   1.884  16.660  1.4991  0.6541  1.8700
 7865TIP3    H245087   3.896   1.980  16.570 -0.9602  0.2242 -0.7357
 7866TIP3   OH245088   4.323   5.026  16.387 -0.3726  0.9382  0.4696
 7866TIP3    H145089   4.316   5.087  16.314  2.1012  0.9169  0.1621
 7866TIP3    H245090   4.298   5.078  16.464  0.5778  2.0477  0.0567
 7867TIP3   OH245091   0.642   3.523   3.847 -0.4575 -0.0576 -0.2494
 7867TIP3    H145092   0.713   3.587   3.851 -0.2275 -0.1655 -2.1725
 7867TIP3    H245093   0.583   3.556   3.779 -0.9610 -1.2420 -0.4034
 7868TIP3   OH245094   6.545   2.383   2.749 -0.1374  0.1968  0.9715
 7868TIP3    H145095   6.638   2.375   2.727 -0.0165  0.9006  1.2206
 7868TIP3    H245096   6.507   2.434   2.677 -0.6079 -1.2471  0.1705
 7869TIP3   OH245097   0.781   0.610  15.591  0.1360 -0.0793  0.2897
 7869TIP3    H145098   0.686   0.626  15.588 -0.0096 -0.8234  0.7594
 7869TIP3    H245099   0.816   0.683  15.642 -0.0690  0.6973 -0.6720
 7870TIP3   OH245100   1.925   3.847   2.474  0.7522 -0.4156  0.0497
 7870TIP3    H145101   1.899   3.800   2.394  2.6551  0.0576 -0.8588
 7870TIP3    H245102   1.905   3.786   2.545  1.2362 -1.7866 -0.9720
 7871TIP3   OH245103   5.278   2.483   2.686 -0.4468  0.5722 -0.2308
 7871TIP3    H145104   5.310   2.455   2.772 -0.9504 -0.7939 -0.4798
 7871TIP3    H245105   5.333   2.558   2.664  0.7439 -0.0451  0.5800
 7872TIP3   OH245106   4.450   5.377   0.543  0.8046  0.1036  0.4284
 7872TIP3    H145107   4.418   5.303   0.492 -1.0047 -0.0085  1.6450
 7872TIP3    H245108   4.538   5.351   0.572  0.7567 -0.9494 -0.3649
 7873TIP3   OH245109   6.418   0.444   3.234 -0.5043  0.1250  0.2812
 7873TIP3    H145110   6.343   0.454   3.294 -1.9210  1.5127 -1.6667
 7873TIP3    H245111   6.380   0.406   3.155  1.0138  0.1452 -0.4636
 7874TIP3   OH245112   0.436   4.139  15.090  0.2622 -0.1190 -0.2579
 7874TIP3    H145113   0.404   4.159  15.003  0.1540 -0.0843 -0.2087
 7874TIP3    H245114   0.469   4.222  15.124  0.5090 -0.1769 -0.3513
 7875TIP3   OH245115   0.824   5.579  13.120 -0.0917 -0.2938  0.3328
 7875TIP3    H145116   0.741   5.608  13.082  0.5663  0.4593 -0.5542
 7875TIP3    H245117   0.811   5.589  13.215 -0.7060  0.6687  0.1604
 7876TIP3   OH245118   5.613   5.130   3.363  0.7408 -0.1443  0.3956
 7876TIP3    H145119   5.561   5.091   3.292 -0.0985  1.0444  0.3338
 7876TIP3    H245120   5.561   5.114   3.442  0.6497  0.3597  0.4419
 7877TIP3   OH245121   1.300   0.322  12.173 -0.1437 -0.5038  0.3293
 7877TIP3    H145122   1.384   0.359  12.144  0.7271 -3.9747 -1.9268
 7877TIP3    H245123   1.322   0.272  12.252 -0.6595  0.8166  1.3354
 7878TIP3   OH245124   2.865   0.341   4.097 -0.3422  0.2060  0.4473
 7878TIP3    H145125   2.828   0.408   4.040 -1.5261 -0.6257  0.2207
 7878TIP3    H245126   2.824   0.356   4.183  0.1838  0.4270  0.6602
 7879TIP3   OH245127   4.159   2.486   3.817 -0.1031  0.0800  0.0968
 7879TIP3    H145128   4.147   2.423   3.889  2.2001  0.4715  0.8612
 7879TIP3    H245129   4.193   2.565   3.860 -0.0536  0.8091 -1.2590
 7880TIP3   OH245130   3.491   6.002  14.862 -0.2035 -0.0117 -0.2394
 7880TIP3    H145131   3.548   6.064  14.908  1.0853  0.0243 -1.8340
 7880TIP3    H245132   3.443   5.958  14.932 -0.6245  2.2798  0.9582
 7881TIP3   OH245133   6.683   0.198   4.656  0.1284 -0.3557  0.3467
 7881TIP3    H145134   6.622   0.251   4.706  1.0230 -0.3202  1.4314
 7881TIP3    H245135   6.691   0.117   4.706 -1.1008 -1.4824 -1.2063
 7882TIP3   OH245136   5.353   0.461   4.447  0.4227  0.2275  0.1388
 7882TIP3    H145137   5.334   0.536   4.503  0.0757  1.3438 -1.4303
 7882TIP3    H245138   5.449   0.462   4.438  0.4064  0.6114 -0.0294
 7883TIP3   OH245139   4.095   1.551   0.176  0.4590  0.4934  0.6974
 7883TIP3    H145140   4.133   1.560   0.089  0.0499  2.2928  0.6786
 7883TIP3    H245141   4.155   1.599   0.233  0.7293 -0.6770  1.4159
 7884TIP3   OH245142   0.956   3.121   2.103 -0.0530 -0.2528 -0.1319
 7884TIP3    H145143   0.992   3.150   2.187 -0.9478  0.3743  0.0451
 7884TIP3    H245144   0.861   3.122   2.117 -0.1387 -2.9912 -0.1918
 7885TIP3   OH245145   2.470   2.269   0.177  0.0522 -0.1720  0.4324
 7885TIP3    H145146   2.422   2.294   0.256 -1.3491  1.1943 -0.8198
 7885TIP3    H245147   2.554   2.314   0.184 -0.0386 -0.1188  1.1780
 7886TIP3   OH245148   5.717   0.928   3.762 -0.6963 -0.0182 -0.2684
 7886TIP3    H145149   5.728   0.930   3.667  0.8451 -0.2530 -0.1068
 7886TIP3    H245150   5.624   0.909   3.775 -0.6986 -1.1239 -1.7383
 7887TIP3   OH245151   2.401   1.673   6.507  0.1489 -0.9632 -0.7671
 7887TIP3    H145152   2.391   1.597   6.565  1.7304 -0.5378  0.1152
 7887TIP3    H245153   2.477   1.720   6.543 -0.9095  1.1272 -1.1869
 7888TIP3   OH245154   6.021   3.442  11.010 -0.3635 -0.0399 -0.8332
 7888TIP3    H145155   6.041   3.373  11.074 -0.6503 -0.7524 -1.4957
 7888TIP3    H245156   5.998   3.394  10.931  2.2229  0.8345 -2.1725
 7889TIP3   OH245157   4.653   1.653  11.484  0.0636 -0.1245  0.1849
 7889TIP3    H145158   4.662   1.708  11.407 -0.9047 -1.6153 -1.0031
 7889TIP3    H245159   4.638   1.565  11.450  1.6280 -1.1540  2.0577
 7890TIP3   OH245160   6.431   2.170   0.885  0.1252 -0.0929  0.5442
 7890TIP3    H145161   6.497   2.190   0.819 -1.8903 -0.5174 -1.6648
 7890TIP3    H245162   6.410   2.255   0.925  0.9569  0.2460  0.2625
 7891TIP3   OH245163   0.756   6.642  10.907  0.2357 -0.5058  0.4501
 7891TIP3    H145164   0.825   6.631  10.973 -0.0162 -0.0180  0.8018
 7891TIP3    H245165   0.803   6.666  10.827  0.6270 -2.2085  0.1652
 7892TIP3   OH245166   2.833   5.925  16.831  0.0776 -0.7680  0.0926
 7892TIP3    H145167   2.828   5.988  16.903  1.9239  0.3224 -0.7080
 7892TIP3    H245168   2.767   5.955  16.769 -0.4884 -0.8455  0.6493
 7893TIP3   OH245169   3.963   6.038  15.249 -0.1642  0.1579 -0.5861
 7893TIP3    H145170   3.870   6.061  15.246 -0.3892 -0.6706 -0.0808
 7893TIP3    H245171   4.008   6.121  15.232 -0.9996  0.4186 -1.6370
 7894TIP3   OH245172   2.183   5.492   4.883  0.2100 -0.2527  0.5327
 7894TIP3    H145173   2.232   5.455   4.810  0.5752  1.1463  0.0370
 7894TIP3    H245174   2.249   5.537   4.936 -0.3700  0.6905  0.4720
 7895TIP3   OH245175   5.897   6.694  11.734 -0.3943 -0.0981  0.2448
 7895TIP3    H145176   5.955   6.623  11.707  0.0022 -0.2427  1.4308
 7895TIP3    H245177   5.813   6.651  11.753 -0.6506 -0.0062 -0.6739
 7896TIP3   OH245178   6.446   5.504  11.792 -0.2548  0.3445  1.3045
 7896TIP3    H145179   6.467   5.562  11.720 -0.1548 -0.8182  0.3815
 7896TIP3    H245180   6.467   5.554  11.871  0.1555  1.4160  0.5187
 7897TIP3   OH245181   2.727   5.562   4.680 -0.3063 -0.1930  0.3019
 7897TIP3    H145182   2.775   5.520   4.752  1.0039 -0.7584 -0.8832
 7897TIP3    H245183   2.767   5.527   4.601 -1.3454  0.8760 -0.7101
 7898TIP3   OH245184   0.416   4.142   0.759 -0.1267 -0.1986 -0.0699
 7898TIP3    H145185   0.330   4.168   0.794  0.4113 -0.7341  1.7225
 7898TIP3    H245186   0.419   4.047   0.774  1.5354  0.0894  1.6622
 7899TIP3   OH245187   6.273   3.383   3.314  0.4296  0.1181 -0.1260
 7899TIP3    H145188   6.190   3.357   3.353 -0.5132  1.8078 -0.9673
 7899TIP3    H245189   6.291   3.469   3.351  0.1936  1.1522 -2.3675
 7900TIP3   OH245190   0.867   1.316  16.675 -0.6164 -0.0004 -0.3979
 7900TIP3    H145191   0.924   1.263  16.731  0.7937 -0.6521 -2.4205
 7900TIP3    H245192   0.786   1.325  16.726  1.3467  1.2164  2.7050
 7901TIP3   OH245193   0.329   1.055   3.866  0.4952  0.1525  0.2920
 7901TIP3    H145194   0.349   1.146   3.889  0.5057  0.3839 -0.6097
 7901TIP3    H245195   0.262   1.029   3.929  0.4942  0.7859  0.5586
 7902TIP3   OH245196   1.593   2.715  11.663 -0.2777  0.2593  0.4470
 7902TIP3    H145197   1.541   2.784  11.621 -1.2246 -0.0677  1.0607
 7902TIP3    H245198   1.683   2.743  11.653 -0.5617  0.7228 -0.8557
 7903TIP3   OH245199   0.750   4.358  14.880  0.5126 -0.0907 -0.6777
 7903TIP3    H145200   0.700   4.437  14.863 -1.6056 -1.3983 -0.7454
 7903TIP3    H245201   0.774   4.364  14.972 -0.0044  0.4195 -0.5763
 7904TIP3   OH245202   4.190   5.538   2.364  0.6704  0.3163 -0.3811
 7904TIP3    H145203   4.273   5.513   2.405  0.6162  1.4131  0.4225
 7904TIP3    H245204   4.184   5.483   2.286  2.7397  1.0932 -1.1179
 7905TIP3   OH245205   0.607   6.402  10.930  0.4254  0.6488 -0.1475
 7905TIP3    H145206   0.674   6.335  10.940 -0.8737 -0.5131  0.9230
 7905TIP3    H245207   0.655   6.479  10.901  2.1028 -0.4058 -0.2597
 7906TIP3   OH245208   6.728   0.509  15.709  0.0208 -0.2296  0.2221
 7906TIP3    H145209   6.662   0.485  15.643 -1.5771 -0.9525  2.0139
 7906TIP3    H245210   6.729   0.604  15.709 -2.2314 -0.1627  1.2580
 7907TIP3   OH245211   3.395   5.074   4.121 -0.1762  0.0085  0.1688
 7907TIP3    H145212   3.415   5.018   4.046  2.0300 -0.0489  0.7527
 7907TIP3    H245213   3.428   5.026   4.197 -0.1030  1.1619  0.8958
 7908TIP3   OH245214   1.220   4.556  13.989  0.2148  0.1292 -0.0576
 7908TIP3    H145215   1.315   4.549  13.991  0.2804  0.8765 -0.3788
 7908TIP3    H245216   1.190   4.506  14.065  0.8381 -0.4419 -0.1871
 7909TIP3   OH245217   2.054   1.464   0.892 -0.2246 -0.1235  0.1880
 7909TIP3    H145218   1.974   1.412   0.888  0.1470 -0.6131 -1.0701
 7909TIP3    H245219   2.094   1.441   0.976 -1.3291  0.0421  0.7744
 7910TIP3   OH245220   5.633   0.142   0.209 -0.1925  1.1557  0.2328
 7910TIP3    H145221   5.651   0.104   0.295 -0.6324 -0.6216 -0.4427
 7910TIP3    H245222   5.693   0.097   0.150 -0.7335  1.4909 -0.5811
 7911TIP3   OH245223   0.896   6.318   0.004  0.4963  0.0022 -0.5837
 7911TIP3    H145224   0.881   6.224  -0.010  2.2630 -0.2428 -0.9568
 7911TIP3    H245225   0.881   6.331   0.098  2.7629 -1.1833 -0.0192
 7912TIP3   OH245226   2.360   1.548  13.678  0.6750  0.7270  0.4558
 7912TIP3    H145227   2.290   1.576  13.620  0.4262  0.3024  0.5515
 7912TIP3    H245228   2.421   1.499  13.622  0.5913  0.5826  0.4904
 7913TIP3   OH245229   2.847   2.734   0.888 -0.1771  0.2402 -0.3036
 7913TIP3    H145230   2.869   2.803   0.950 -1.7462  0.3333  0.1848
 7913TIP3    H245231   2.751   2.730   0.890 -0.2962  0.4974 -2.9976
 7914TIP3   OH245232   6.428   2.914   0.721 -0.1715  0.2349  0.6151
 7914TIP3    H145233   6.420   2.872   0.635 -2.0143  2.1588 -0.1881
 7914TIP3    H245234   6.350   2.967   0.729  0.9946  1.7154  2.6132
 7915TIP3   OH245235   3.478   0.330   2.986 -0.7413  0.2786  0.2117
 7915TIP3    H145236   3.532   0.400   3.022  0.0498 -0.7667  1.1108
 7915TIP3    H245237   3.463   0.355   2.895  1.1979  0.6387 -0.0331
 7916TIP3   OH245238   4.929   6.031   2.293  0.2546  0.4447  0.1074
 7916TIP3    H145239   4.889   6.097   2.236 -0.0822  0.0926 -0.0644
 7916TIP3    H245240   4.855   5.979   2.325  0.7587 -1.5996 -1.9273
 7917TIP3   OH245241   3.326   4.600  16.760  0.2935 -0.3206 -0.6112
 7917TIP3    H145242   3.357   4.665  16.697 -0.0630 -1.5415 -2.0836
 7917TIP3    H245243   3.332   4.516  16.714  1.0149 -1.3847  1.3504
 7918TIP3   OH245244   0.727   3.192   5.075 -0.0453  0.5284  0.9502
 7918TIP3    H145245   0.691   3.125   5.017  0.5350  1.8897 -1.0171
 7918TIP3    H245246   0.680   3.179   5.158 -3.5021  0.8522 -0.8660
 7919TIP3   OH245247   4.752   6.291  17.197 -0.0277  0.2976 -0.3319
 7919TIP3    H145248   4.674   6.341  17.173 -0.4285 -0.5702 -0.8739
 7919TIP3    H245249   4.727   6.199  17.181  0.5285 -0.1158  1.0829
 7920TIP3   OH245250   6.350   1.253  15.213  0.2009 -0.0600 -0.1119
 7920TIP3    H145251   6.325   1.265  15.121 -0.2291  0.4860  0.0756
 7920TIP3    H245252   6.384   1.164  15.217  0.6604  0.0662 -0.9050
 7921TIP3   OH245253   1.599   4.806   3.860 -1.4707 -0.0103 -0.4752
 7921TIP3    H145254   1.615   4.712   3.875 -0.2559  0.6317  2.5614
 7921TIP3    H245255   1.665   4.831   3.795 -1.8252 -1.2312 -1.3389
 7922TIP3   OH245256   5.440   0.937  11.043  0.0018  0.3658  0.0178
 7922TIP3    H145257   5.416   0.852  11.079  1.1580  0.7563  1.7590
 7922TIP3    H245258   5.357   0.985  11.041 -0.5582 -0.6026 -0.4331
 7923TIP3   OH245259   5.262   6.763  12.461  0.5398  0.3857  0.1447
 7923TIP3    H145260   5.346   6.718  12.449  0.4132  0.2875 -0.3769
 7923TIP3    H245261   5.241   6.750  12.553  2.2366  2.3695  0.8562
 7924TIP3   OH245262   1.133   1.503  12.570 -0.5278 -0.5224 -0.0454
 7924TIP3    H145263   1.135   1.409  12.590  0.0595 -0.5696 -0.3076
 7924TIP3    H245264   1.225   1.527  12.557 -0.6279  0.2126  0.5681
 7925TIP3   OH245265   5.001   3.596  15.440 -0.6200  0.5602 -0.0222
 7925TIP3    H145266   5.097   3.590  15.435 -0.6779 -1.1365  0.5829
 7925TIP3    H245267   4.970   3.547  15.363 -1.0317 -1.4656  1.3958
 7926TIP3   OH245268   1.074   2.093  13.338 -0.2437  0.4372  0.3285
 7926TIP3    H145269   1.139   2.096  13.267 -1.2323 -1.0109 -0.6763
 7926TIP3    H245270   1.015   2.022  13.313 -1.0826  0.4404  2.2166
 7927TIP3   OH245271   2.086   2.975   1.815  0.5297 -0.1715 -0.3938
 7927TIP3    H145272   2.117   3.056   1.857 -0.8641  0.4266 -0.4973
 7927TIP3    H245273   1.999   2.962   1.852  0.6139 -1.4409 -0.6531
 7928TIP3   OH245274   4.125   4.906   2.011  0.2232  0.0171  0.3680
 7928TIP3    H145275   4.206   4.856   2.024 -0.7370 -1.6838 -0.0930
 7928TIP3    H245276   4.142   4.959   1.933  1.8911  1.7863  1.8818
 7929TIP3   OH245277   3.828   4.886  15.717 -0.2180 -0.1600 -0.6231
 7929TIP3    H145278   3.766   4.866  15.788  1.3780 -0.3501  0.7532
 7929TIP3    H245279   3.782   4.950  15.663 -1.2536  0.4661  0.9409
 7930TIP3   OH245280   2.955   0.585  16.573 -0.2282 -0.0084 -0.2325
 7930TIP3    H145281   2.887   0.639  16.533 -0.0406 -1.0114 -1.9660
 7930TIP3    H245282   2.906   0.511  16.611 -0.1082 -0.9507 -1.8507
 7931TIP3   OH245283   2.903   4.555   3.884  0.6134  0.7901 -0.0300
 7931TIP3    H145284   2.848   4.491   3.838  2.2724 -0.2173 -0.6583
 7931TIP3    H245285   2.864   4.561   3.972  0.0383 -0.5821 -0.1764
 7932TIP3   OH245286   3.707   1.231  15.367 -0.0970  0.0102 -0.1573
 7932TIP3    H145287   3.676   1.321  15.377 -2.6366 -0.9197  0.8877
 7932TIP3    H245288   3.732   1.223  15.275  0.5101  1.8674 -0.1643
 7933TIP3   OH245289   0.793   5.183   1.587  0.1372 -0.2903  0.7671
 7933TIP3    H145290   0.821   5.238   1.514  2.1671 -1.6669  0.4542
 7933TIP3    H245291   0.738   5.240   1.641  1.2259  1.6849 -0.1691
 7934TIP3   OH245292   3.041   6.556  14.741 -0.3411 -1.4419 -0.3803
 7934TIP3    H145293   3.026   6.650  14.730  0.4389 -1.0666  1.5811
 7934TIP3    H245294   3.133   6.543  14.718 -0.4670 -1.7537 -0.7245
 7935TIP3   OH245295   5.073   0.121  13.519  0.4005  0.1807  0.7597
 7935TIP3    H145296   5.035   0.034  13.526  1.3973 -0.2044  1.5577
 7935TIP3    H245297   5.145   0.112  13.457  0.1276  0.5678  0.3864
 7936TIP3   OH245298   4.054   5.419   0.478  0.0486  0.2384 -0.2668
 7936TIP3    H145299   4.017   5.507   0.472 -1.1446 -0.2456 -0.1018
 7936TIP3    H245300   4.117   5.425   0.550  0.8167  1.2403 -0.9937
 7937TIP3   OH245301   1.113   6.292   3.887 -0.4928 -0.0504 -0.3811
 7937TIP3    H145302   1.114   6.384   3.862  2.0796  0.0615  0.0219
 7937TIP3    H245303   1.059   6.289   3.966 -0.0572  1.1945 -0.0404
 7938TIP3   OH245304   3.086   6.565  15.973 -0.1620  0.2708  0.3181
 7938TIP3    H145305   3.089   6.605  15.886 -0.0030  1.6355  0.9481
 7938TIP3    H245306   3.175   6.575  16.007 -0.2677 -0.1086  0.7168
 7939TIP3   OH245307   4.696   6.199   0.521  0.3227  0.6171  0.1922
 7939TIP3    H145308   4.720   6.242   0.604  0.1017 -0.0788  0.6194
 7939TIP3    H245309   4.606   6.227   0.505  1.0652  2.4963 -0.9422
 7940TIP3   OH245310   2.135   6.010   1.179 -0.0169 -0.0559  0.2946
 7940TIP3    H145311   2.162   6.046   1.095 -1.7621  0.5259 -0.0480
 7940TIP3    H245312   2.214   6.010   1.232  0.7190  1.2278 -0.7688
 7941TIP3   OH245313   4.741   5.859   3.182  0.0001  0.1693  0.2613
 7941TIP3    H145314   4.709   5.794   3.120  0.5626  1.0126 -0.9341
 7941TIP3    H245315   4.822   5.822   3.216  1.3603  1.0911 -1.8900
 7942TIP3   OH245316   3.848   3.532   0.768  0.2235 -0.5741  0.0891
 7942TIP3    H145317   3.794   3.601   0.728  1.8320  0.8226  0.2889
 7942TIP3    H245318   3.853   3.556   0.860 -0.4529 -1.8072  0.4581
 7943TIP3   OH245319   0.380   5.470  12.736 -0.2606  0.0968  0.3362
 7943TIP3    H145320   0.469   5.490  12.765  0.0890  1.6404 -1.6886
 7943TIP3    H245321   0.337   5.433  12.813  2.3942 -1.5004  1.0985
 7944TIP3   OH245322   5.895   6.223   2.711  0.0992  0.4041  0.0816
 7944TIP3    H145323   5.913   6.308   2.750  1.7663  0.7304 -1.3529
 7944TIP3    H245324   5.833   6.181   2.772 -0.5900  2.5401  0.8850
 7945TIP3   OH245325   6.463   2.017  12.641 -0.0551 -0.1792 -0.2030
 7945TIP3    H145326   6.483   1.960  12.716 -0.4315 -0.0253  0.0133
 7945TIP3    H245327   6.449   1.956  12.568  0.8783 -0.3094 -0.2851
 7946TIP3   OH245328   2.089   6.245   2.442  0.1465  0.5442 -0.5960
 7946TIP3    H145329   2.087   6.176   2.509  0.6985  0.7640 -0.3525
 7946TIP3    H245330   2.050   6.204   2.365 -1.9583  0.7631  0.3055
 7947TIP3   OH245331   1.313   4.049   3.436  0.3014 -0.4122  0.4242
 7947TIP3    H145332   1.355   3.969   3.467 -0.6534 -1.3283 -0.6106
 7947TIP3    H245333   1.359   4.071   3.355 -1.1909 -1.4565 -0.7515
 7948TIP3   OH245334   4.927   2.981  14.914 -0.4522 -0.0230  0.3011
 7948TIP3    H145335   4.922   3.060  14.969 -2.7900 -0.0515  0.1657
 7948TIP3    H245336   4.866   2.920  14.954 -0.5038 -0.8727 -1.0455
 7949TIP3   OH245337   0.146   0.548  12.958 -0.2034  0.0472  0.4736
 7949TIP3    H145338   0.193   0.595  13.027 -2.0211  1.3417  0.8807
 7949TIP3    H245339   0.178   0.587  12.877  0.3082  0.0815  0.6869
 7950TIP3   OH245340   2.726   0.654  15.870  0.2019  0.3681  0.3724
 7950TIP3    H145341   2.672   0.703  15.933 -0.1474 -0.8568  1.0413
 7950TIP3    H245342   2.815   0.664  15.903  0.4622  2.7196 -0.9518
 7951TIP3   OH245343   2.684   5.951  16.434 -0.4862  0.0781  0.2586
 7951TIP3    H145344   2.712   6.029  16.388 -1.9113  0.5758  0.2034
 7951TIP3    H245345   2.640   5.983  16.513  0.4076 -0.7139  1.0883
 7952TIP3   OH245346   4.514   6.298   5.325 -0.2677  0.5273  0.1617
 7952TIP3    H145347   4.592   6.321   5.374  1.5965 -1.5110 -1.7290
 7952TIP3    H245348   4.524   6.205   5.306 -2.5831  0.4940 -1.1401
 7953TIP3   OH245349   5.696   2.012   0.721 -0.5138  0.3801  0.0928
 7953TIP3    H145350   5.614   2.058   0.741 -1.3720 -1.9166  2.1485
 7953TIP3    H245351   5.697   2.007   0.626 -2.2011  1.4353 -0.0131
 7954TIP3   OH245352   2.615   2.507   1.569 -0.0549 -0.3225  0.7109
 7954TIP3    H145353   2.593   2.594   1.535  0.8387 -0.3062  0.1521
 7954TIP3    H245354   2.586   2.447   1.501 -0.2090 -0.4213  0.8665
 7955TIP3   OH245355   4.981   2.476   4.002 -0.8009  0.1621 -0.9744
 7955TIP3    H145356   4.918   2.544   4.022 -0.6377 -0.0997  0.5267
 7955TIP3    H245357   5.040   2.475   4.078  0.1302 -0.5745 -1.6907
 7956TIP3   OH245358   0.861   3.656   0.861  0.6310  0.5143  0.5411
 7956TIP3    H145359   0.902   3.625   0.781  0.9346  0.3722  0.7503
 7956TIP3    H245360   0.892   3.747   0.871  3.0185 -0.4002  2.0812
 7957TIP3   OH245361   4.432   0.923  13.331  0.0545  0.2551  0.2771
 7957TIP3    H145362   4.384   0.934  13.413 -2.4953 -1.0800 -0.9768
 7957TIP3    H245363   4.409   1.000  13.279 -1.3610 -0.7456 -0.6085
 7958TIP3   OH245364   5.955   4.686   2.134  0.1535 -0.1256  0.1370
 7958TIP3    H145365   5.952   4.591   2.121 -1.3322 -0.7385  4.1742
 7958TIP3    H245366   6.033   4.701   2.188 -0.5998  0.7101  1.0219
 7959TIP3   OH245367   1.127   4.068   2.777  0.0344 -0.0954  0.0553
 7959TIP3    H145368   1.095   4.077   2.867 -1.7416 -0.7335 -0.4859
 7959TIP3    H245369   1.189   3.995   2.781 -1.3684 -1.2887  0.4412
 7960TIP3   OH245370   1.392   3.057   2.993  0.2597 -0.1520  0.8361
 7960TIP3    H145371   1.462   3.114   3.025  0.1532  0.4176  0.0612
 7960TIP3    H245372   1.336   3.043   3.070  1.9268 -1.7022  1.8048
 7961TIP3   OH245373   1.439   3.813   3.594  0.0565 -0.2571 -0.4924
 7961TIP3    H145374   1.418   3.780   3.681  1.1268 -0.5852 -0.3501
 7961TIP3    H245375   1.501   3.885   3.610  0.8876 -0.8512 -1.0237
 7962TIP3   OH245376   5.396   0.300   3.049  0.0233 -0.1775  0.1885
 7962TIP3    H145377   5.353   0.238   2.990  1.1155  1.4651 -2.4156
 7962TIP3    H245378   5.338   0.376   3.050  1.6887  1.1600 -1.5555
 7963TIP3   OH245379   0.603   4.498  14.597 -0.0067 -0.1868 -0.8885
 7963TIP3    H145380   0.665   4.559  14.636 -1.2976  1.3307 -1.1891
 7963TIP3    H245381   0.520   4.515  14.642 -0.6631 -0.8807 -1.8061
 7964TIP3   OH245382   3.758   0.955   2.758  0.3078 -0.3700 -0.3195
 7964TIP3    H145383   3.821   0.902   2.806  2.0481  1.0152 -1.0359
 7964TIP3    H245384   3.697   0.987   2.825  0.9069 -0.9505  0.5087
 7965TIP3   OH245385   1.779   5.688   5.126 -0.0491 -0.1626  0.4971
 7965TIP3    H145386   1.864   5.733   5.127  0.6446 -1.4104  2.0377
 7965TIP3    H245387   1.763   5.668   5.034  1.8760 -0.8271  0.2712
 7966TIP3   OH245388   1.318   6.026  13.361  0.3862  0.2497 -0.1182
 7966TIP3    H145389   1.297   6.118  13.344 -1.1733 -0.4757 -2.4011
 7966TIP3    H245390   1.368   6.028  13.442  0.1251  3.0838  0.0496
 7967TIP3   OH245391   5.270   6.268  16.197 -0.3749 -0.5320  0.0275
 7967TIP3    H145392   5.192   6.278  16.142 -0.6243 -0.7397  0.3405
 7967TIP3    H245393   5.239   6.221  16.274  0.0536 -0.5804  0.1719
 7968TIP3   OH245394   4.334   0.998  13.572 -0.3780 -0.1966 -0.0222
 7968TIP3    H145395   4.276   1.066  13.608 -1.2600 -1.5885  1.2594
 7968TIP3    H245396   4.422   1.029  13.591 -0.7934  0.2166  1.3152
 7969TIP3   OH245397   1.681   4.944  14.723 -0.3780 -0.3562  0.1909
 7969TIP3    H145398   1.758   4.908  14.768 -1.0793 -1.5696  0.4264
 7969TIP3    H245399   1.606   4.903  14.766 -1.2161  1.6525  0.7007
 7970TIP3   OH245400   5.532   6.086  11.482  0.1701  0.4255 -0.7084
 7970TIP3    H145401   5.501   6.124  11.400 -1.1379  1.4082  0.2341
 7970TIP3    H245402   5.499   6.145  11.550  0.9859 -0.5482  0.5490
 7971TIP3   OH245403   6.550   2.211   0.636  0.8593 -0.0533  0.2944
 7971TIP3    H145404   6.461   2.230   0.605  1.0102 -0.7114 -0.5702
 7971TIP3    H245405   6.603   2.283   0.603  0.4342  1.0243  1.9064
 7972TIP3   OH245406   2.807   2.953   1.058 -0.1112  0.1717  0.1568
 7972TIP3    H145407   2.714   2.965   1.036 -0.2504 -0.4611  0.4028
 7972TIP3    H245408   2.834   3.038   1.094 -0.2539  0.7637 -1.1177
 7973TIP3   OH245409   4.485   0.651  12.439  0.3110 -0.0757 -0.5446
 7973TIP3    H145410   4.525   0.594  12.505 -0.6794 -1.5395 -1.1827
 7973TIP3    H245411   4.392   0.628  12.441  0.0635  0.8259 -1.4953
 7974TIP3   OH245412   1.362   2.671  16.552  0.3036  0.2812  0.2441
 7974TIP3    H145413   1.338   2.580  16.534 -0.2891  0.3928  0.4429
 7974TIP3    H245414   1.287   2.722  16.522  0.1736  0.6226  1.1335
 7975TIP3   OH245415   1.541   1.462   2.058  0.1017 -0.0904 -0.0085
 7975TIP3    H145416   1.491   1.383   2.038 -0.7088  0.4490 -0.1595
 7975TIP3    H245417   1.558   1.502   1.972  0.3142  0.0091  0.0804
 7976TIP3   OH245418   4.996   5.155   4.819  0.0098  0.0226 -0.4507
 7976TIP3    H145419   5.064   5.191   4.762 -0.7621  2.9099  0.3273
 7976TIP3    H245420   5.033   5.074   4.853  1.7630 -0.0798 -2.5218
 7977TIP3   OH245421   6.554   1.781   6.783  0.2354 -0.4010 -0.2682
 7977TIP3    H145422   6.540   1.816   6.695  0.1452 -0.9591 -0.4811
 7977TIP3    H245423   6.474   1.804   6.831  0.1490 -0.3709 -0.4247
 7978TIP3   OH245424   1.705   3.388  13.335  0.1896  0.2052 -0.2505
 7978TIP3    H145425   1.623   3.376  13.286 -0.9300  0.5763  1.4882
 7978TIP3    H245426   1.701   3.479  13.365  1.3951  0.3173 -0.3978
 7979TIP3   OH245427   3.104   4.762   1.080  0.3058  0.4978  0.0728
 7979TIP3    H145428   3.195   4.792   1.070  0.0740  1.7393  1.7158
 7979TIP3    H245429   3.051   4.840   1.069 -0.7273 -0.5257 -2.7742
 7980TIP3   OH245430   0.323   4.595   1.354  0.3758 -0.1134 -0.2050
 7980TIP3    H145431   0.270   4.528   1.397 -0.3622  0.2867 -0.4783
 7980TIP3    H245432   0.269   4.624   1.280  0.4324  1.1767  0.2410
 7981TIP3   OH245433   6.688   6.170   2.898  0.4115  0.5156 -0.0056
 7981TIP3    H145434   6.662   6.242   2.841 -0.0838 -0.3339 -0.8687
 7981TIP3    H245435   6.621   6.103   2.884 -0.5073  0.8206  2.6348
 7982TIP3   OH245436   4.590   4.974   2.297 -0.0411 -0.1722  0.2734
 7982TIP3    H145437   4.636   5.052   2.267  1.7538 -0.5936  1.8302
 7982TIP3    H245438   4.617   4.905   2.237 -0.5941  0.1261 -0.3150
 7983TIP3   OH245439   1.080   0.419   4.995 -0.4936  0.0995 -0.5507
 7983TIP3    H145440   1.027   0.340   4.987  0.0429 -0.2017 -1.2086
 7983TIP3    H245441   1.100   0.444   4.904  0.1783  0.4063 -0.3253
 7984TIP3   OH245442   6.118   0.694  12.130  0.1495  0.2972 -0.3429
 7984TIP3    H145443   6.183   0.644  12.180  0.0146  2.0365  1.6882
 7984TIP3    H245444   6.094   0.638  12.057  0.6579 -2.2023  1.3621
 7985TIP3   OH245445   4.136   5.003  12.648  0.0303  0.3235  0.5520
 7985TIP3    H145446   4.070   5.005  12.579  1.0731  1.7940 -0.4365
 7985TIP3    H245447   4.088   4.974  12.726 -1.3453 -0.5405 -0.5814
 7986TIP3   OH245448   6.816   2.440  13.035  0.5660 -0.3025  0.3074
 7986TIP3    H145449   6.801   2.469  12.945 -0.8205 -0.6099  0.4242
 7986TIP3    H245450   6.755   2.493  13.087  0.4067 -1.0607  0.9021
 7987TIP3   OH245451   5.552   2.832  11.629 -0.1768  0.5368 -0.1050
 7987TIP3    H145452   5.608   2.910  11.632  0.6484 -0.0643  0.5592
 7987TIP3    H245453   5.496   2.840  11.705  1.1898 -0.4398  1.0250
 7988TIP3   OH245454   2.456   5.489  11.436  0.3357 -0.6664 -0.0086
 7988TIP3    H145455   2.538   5.464  11.479 -0.5634 -0.0397  2.1308
 7988TIP3    H245456   2.466   5.458  11.346  2.9657 -0.4822  0.1804
 7989TIP3   OH245457   1.496   6.432  14.551 -0.0185 -0.3144 -0.4967
 7989TIP3    H145458   1.480   6.339  14.565  0.2044 -0.5510 -1.7492
 7989TIP3    H245459   1.591   6.440  14.545 -0.0380 -0.0116 -0.4274
 7990TIP3   OH245460   1.394   3.131   3.797 -0.7478  0.1884 -0.3987
 7990TIP3    H145461   1.348   3.147   3.880 -0.2965 -1.3489  0.1595
 7990TIP3    H245462   1.354   3.051   3.763 -0.5311  0.4958 -1.3850
 7991TIP3   OH245463   2.096   0.006   3.098 -0.3863  0.2618 -0.1119
 7991TIP3    H145464   2.097   0.100   3.115 -0.9578  0.0884  0.9181
 7991TIP3    H245465   2.095  -0.001   3.002 -0.4487  1.2991 -0.1965
 7992TIP3   OH245466   1.738   0.765  12.297  0.0709  0.6337  1.0366
 7992TIP3    H145467   1.826   0.793  12.325 -0.3352  0.9749  1.9846
 7992TIP3    H245468   1.753   0.721  12.214  1.4179 -1.2133  2.2154
 7993TIP3   OH245469   3.794   0.142   0.130 -0.0809 -0.0096 -0.4167
 7993TIP3    H145470   3.816   0.156   0.038  0.8986  1.0972 -0.0240
 7993TIP3    H245471   3.853   0.199   0.178 -0.2329 -0.9639  0.9376
 7994TIP3   OH245472   6.515   1.703  13.477 -0.5667 -0.7054 -0.3239
 7994TIP3    H145473   6.514   1.689  13.571 -1.5611  0.2300 -0.1907
 7994TIP3    H245474   6.603   1.678  13.450  0.3960  1.0141  1.1462
 7995TIP3   OH245475   6.428   1.531  15.002 -0.0448 -0.1533  0.1423
 7995TIP3    H145476   6.460   1.441  15.004  1.3469  0.3043 -0.7585
 7995TIP3    H245477   6.431   1.556  14.909  0.0521  0.9831  0.4431
 7996TIP3   OH245478   4.179   5.620  15.829  0.7812  0.2864  0.2823
 7996TIP3    H145479   4.156   5.682  15.898 -0.9673 -1.0481  0.9485
 7996TIP3    H245480   4.158   5.534  15.866 -0.0389 -0.4743 -1.8565
 7997TIP3   OH245481   1.228   1.822  13.763 -0.2178 -0.3031  0.3888
 7997TIP3    H145482   1.155   1.876  13.793  1.0318  1.3103  0.6578
 7997TIP3    H245483   1.250   1.767  13.838 -0.0542  0.4614  0.9154
 7998TIP3   OH245484   4.787   3.074  12.719 -0.2400 -0.8337  0.5197
 7998TIP3    H145485   4.847   3.095  12.790 -0.0089 -1.5000  0.5256
 7998TIP3    H245486   4.841   3.029  12.654 -0.4620 -0.2825 -0.0543
 7999TIP3   OH245487   0.682   6.333   5.520 -0.2359  0.5971  0.3300
 7999TIP3    H145488   0.646   6.269   5.581 -0.0996  0.0910 -0.1116
 7999TIP3    H245489   0.744   6.384   5.572 -2.0729  1.9133  1.2487
 8000TIP3   OH245490   1.586   2.570   2.607  0.6615 -0.0399 -0.2170
 8000TIP3    H145491   1.561   2.491   2.558  1.2672  0.1284 -0.8063
 8000TIP3    H245492   1.640   2.538   2.679 -0.8591 -0.3630  0.8061
 8001TIP3   OH245493   4.366   4.160  12.692 -0.6437 -0.1515  0.0865
 8001TIP3    H145494   4.387   4.117  12.609  1.3694  0.9606 -0.0208
 8001TIP3    H245495   4.274   4.186  12.684 -0.1330  1.0123 -2.2666
 8002TIP3   OH245496   1.395   5.420   2.826 -0.3327 -0.2094  0.1901
 8002TIP3    H145497   1.462   5.465   2.878 -2.1964  1.4754  1.2446
 8002TIP3    H245498   1.409   5.452   2.737  1.3108 -1.1940  0.0657
 8003TIP3   OH245499   6.495   3.906  11.073  0.5746 -0.0649  0.2670
 8003TIP3    H145500   6.413   3.934  11.032  0.7840  1.2925  0.7745
 8003TIP3    H245501   6.529   3.839  11.014 -1.5133 -1.5489  0.6621
 8004TIP3   OH245502   5.387   6.774  11.826 -0.0108 -0.4089  1.6692
 8004TIP3    H145503   5.404   6.832  11.752 -0.0162 -1.6119  0.7200
 8004TIP3    H245504   5.419   6.823  11.902  0.3978  0.6447  0.8341
 8005TIP3   OH245505   2.275   6.406  14.502 -0.0861  0.1137 -0.7469
 8005TIP3    H145506   2.354   6.396  14.555 -0.6537 -2.4344 -0.3192
 8005TIP3    H245507   2.294   6.480  14.444  1.8040  0.8336  0.7316
 8006TIP3   OH245508   3.219   1.032  14.584  0.5588 -0.5591  0.1114
 8006TIP3    H145509   3.271   1.091  14.530 -0.2350  0.6620  0.6656
 8006TIP3    H245510   3.212   1.076  14.668 -1.5919 -0.5533 -0.0335
 8007TIP3   OH245511   0.053   3.285  14.145  0.1990 -0.0142  0.4213
 8007TIP3    H145512   0.084   3.364  14.100  0.8373  0.6412  1.9665
 8007TIP3    H245513  -0.041   3.300  14.158 -0.3275 -0.9167 -2.0800
 8008TIP3   OH245514   1.384   0.665  13.317 -1.2776  0.1322 -0.2845
 8008TIP3    H145515   1.379   0.696  13.407 -1.0399  1.2829 -0.6593
 8008TIP3    H245516   1.297   0.681  13.281 -0.9139  1.1808 -0.7281
 8009TIP3   OH245517   6.495   0.939   3.621 -0.3386 -0.0200 -0.2435
 8009TIP3    H145518   6.484   1.032   3.638 -0.7969 -0.2469  0.7387
 8009TIP3    H245519   6.413   0.911   3.581 -0.9654 -0.3941  1.2564
 8010TIP3   OH245520   3.567   5.380   4.323  0.7147  0.4193  0.1353
 8010TIP3    H145521   3.619   5.414   4.396  2.2586  2.9901 -2.0832
 8010TIP3    H245522   3.632   5.346   4.262 -0.4077  0.7900 -1.2705
 8011TIP3   OH245523   3.809   5.613  15.761  0.4701 -0.0160 -0.0358
 8011TIP3    H145524   3.738   5.554  15.733  0.2293 -0.0784  0.6814
 8011TIP3    H245525   3.799   5.618  15.856  1.5204 -0.1359  0.0897
 8012TIP3   OH245526   1.500   1.135   1.979  0.7119  0.2724 -0.1455
 8012TIP3    H145527   1.593   1.156   1.987  0.7924 -0.7601  2.0504
 8012TIP3    H245528   1.486   1.063   2.041 -0.7819 -2.1389 -3.1585
 8013TIP3   OH245529   3.818   0.761   2.521 -0.2729  0.3140 -0.7062
 8013TIP3    H145530   3.823   0.829   2.588 -0.1871  0.8060 -1.2055
 8013TIP3    H245531   3.789   0.683   2.567 -0.4086  0.7039 -0.1361
 8014TIP3   OH245532   2.730   2.375  12.574  0.0255  0.1780 -0.2663
 8014TIP3    H145533   2.755   2.301  12.630 -2.3638 -1.0150 -0.7017
 8014TIP3    H245534   2.747   2.344  12.485 -1.9936 -0.2952 -0.5137
 8015TIP3   OH245535   3.423   4.408  11.954  0.2554 -1.0449  0.0615
 8015TIP3    H145536   3.459   4.482  12.003  0.6319  0.4678 -2.4316
 8015TIP3    H245537   3.333   4.400  11.985  0.0094  0.8731 -0.1389
 8016TIP3   OH245538   6.502   4.256  17.173 -0.3887 -0.8528 -0.0715
 8016TIP3    H145539   6.584   4.288  17.211 -0.9832 -0.4006  0.8299
 8016TIP3    H245540   6.527   4.176  17.126  0.5505 -0.7608  0.2655
 8017TIP3   OH245541   2.530   1.029  12.718  0.5381  0.3506 -0.1840
 8017TIP3    H145542   2.474   1.106  12.717 -0.0234 -0.0386  0.6457
 8017TIP3    H245543   2.474   0.958  12.688  0.6518  0.0112  0.3886
 8018TIP3   OH245544   5.977   2.084  15.493  0.2382  0.9657  0.0850
 8018TIP3    H145545   6.001   2.043  15.576  0.1357  1.6487  0.4569
 8018TIP3    H245546   6.042   2.154  15.481  0.0603  1.0742 -0.2446
 8019TIP3   OH245547   3.635   6.782  14.654 -0.5128 -0.3731 -0.3920
 8019TIP3    H145548   3.592   6.717  14.710 -0.8384  0.9405  0.9110
 8019TIP3    H245549   3.595   6.770  14.568 -1.5771 -0.9553  0.1753
 8020TIP3   OH245550   0.565   5.565   1.907 -0.0510 -0.0769  0.1774
 8020TIP3    H145551   0.558   5.639   1.847 -1.0171 -0.4840 -0.2233
 8020TIP3    H245552   0.576   5.489   1.849  0.2772 -0.3194  0.5585
 8021TIP3   OH245553   5.404   3.286  17.281  0.1824 -0.5781  0.0648
 8021TIP3    H145554   5.392   3.336  17.200 -1.2736 -0.3710  0.4103
 8021TIP3    H245555   5.357   3.336  17.347  2.3510 -0.1081  1.3025
 8022TIP3   OH245556   0.918   6.345   0.585  0.1935 -0.1684 -0.3603
 8022TIP3    H145557   0.989   6.301   0.540  1.3461  1.3671 -0.0709
 8022TIP3    H245558   0.948   6.435   0.597 -1.7251  0.4759 -0.0970
 8023TIP3   OH245559   2.297   5.101   4.257 -0.0310  0.7432 -0.4703
 8023TIP3    H145560   2.363   5.145   4.311 -1.9250  3.2525 -0.1252
 8023TIP3    H245561   2.214   5.128   4.295 -1.3493  0.6733 -3.2115
 8024TIP3   OH245562   1.629   2.274  15.900  0.0350 -0.4340 -0.0217
 8024TIP3    H145563   1.667   2.262  15.812  0.0451 -2.3624  0.2361
 8024TIP3    H245564   1.702   2.257  15.960 -0.6005 -1.7095  0.4123
 8025TIP3   OH245565   6.088   6.534  16.918  0.1149 -0.1847 -0.3970
 8025TIP3    H145566   6.030   6.549  16.844 -0.0274 -1.3056 -0.5206
 8025TIP3    H245567   6.088   6.618  16.965 -1.5395 -0.1447 -0.4267
 8026TIP3   OH245568   5.125   2.165  10.859  0.5883  0.0166 -0.0139
 8026TIP3    H145569   5.198   2.164  10.921  0.7333  0.1876 -0.1827
 8026TIP3    H245570   5.132   2.081  10.813  0.6321 -0.0014  0.0251
 8027TIP3   OH245571   4.868   0.427  12.748  0.0706  0.5853 -0.4566
 8027TIP3    H145572   4.953   0.399  12.713 -0.8706 -0.7044 -1.7860
 8027TIP3    H245573   4.884   0.516  12.781  1.9637  0.3091 -0.5473
 8028TIP3   OH245574   3.701   5.866   4.641 -0.0049 -0.1567 -0.2952
 8028TIP3    H145575   3.638   5.820   4.696 -0.1011 -0.0160 -0.2872
 8028TIP3    H245576   3.683   5.959   4.656 -0.6319 -0.1153 -1.2433
 8029TIP3   OH245577   2.002   0.767   4.503 -0.0727  0.4383 -0.5642
 8029TIP3    H145578   2.083   0.815   4.520  0.8413 -0.6372 -1.7697
 8029TIP3    H245579   1.942   0.834   4.469 -0.0770  1.4635  1.4067
 8030TIP3   OH245580   6.434   2.925   5.413 -0.6078  0.4573  0.0885
 8030TIP3    H145581   6.342   2.949   5.420 -0.0153  2.8619  0.1627
 8030TIP3    H245582   6.481   3.008   5.413  1.4972 -0.6776 -1.2279
 8031TIP3   OH245583   5.639   1.681   3.494  0.2253  0.1138  0.4552
 8031TIP3    H145584   5.600   1.643   3.415  0.8991  1.6343 -0.6308
 8031TIP3    H245585   5.681   1.607   3.538 -0.8813 -0.9005 -0.1725
 8032TIP3   OH245586   1.638   6.210  12.656 -0.5435  0.7411 -0.4247
 8032TIP3    H145587   1.633   6.293  12.607 -1.6619  0.6800 -0.4267
 8032TIP3    H245588   1.731   6.187  12.654 -0.3851  1.4134 -1.4127
 8033TIP3   OH245589   5.073   4.224   0.904 -0.0182  0.0984  0.2400
 8033TIP3    H145590   5.026   4.273   0.836  0.5831  2.1378  1.2436
 8033TIP3    H245591   5.017   4.229   0.981  0.5024  0.0206  0.6252
 8034TIP3   OH245592   4.452   6.262  16.577  0.1663  0.3830 -0.3274
 8034TIP3    H145593   4.413   6.347  16.598 -0.2595  0.3593 -0.9948
 8034TIP3    H245594   4.466   6.265  16.483  1.1341  0.1140 -0.1984
 8035TIP3   OH245595   6.521   2.265   1.689 -0.1082 -0.1102  0.1147
 8035TIP3    H145596   6.478   2.323   1.752 -0.0497 -0.7146  0.7027
 8035TIP3    H245597   6.457   2.195   1.673 -0.2374  0.1786 -0.7095
 8036TIP3   OH245598   4.037   1.612  16.512 -0.5458 -0.4055 -0.0821
 8036TIP3    H145599   3.995   1.548  16.569  0.1493 -0.0360  0.8381
 8036TIP3    H245600   4.045   1.691  16.565  0.4093 -0.1615 -0.5707
 8037TIP3   OH245601   0.609   6.036  11.533 -0.4853  0.0586 -0.3974
 8037TIP3    H145602   0.648   5.952  11.507  1.0583  0.6140  0.0551
 8037TIP3    H245603   0.682   6.097  11.533 -1.5573  1.3591 -0.4594
 8038TIP3   OH245604   6.255   3.508  15.359  0.0241 -0.1294 -0.1212
 8038TIP3    H145605   6.336   3.559  15.367  0.4542 -1.0796  2.1099
 8038TIP3    H245606   6.185   3.572  15.361  0.6749  0.6029 -0.6601
 8039TIP3   OH245607   1.233   1.564  13.571  0.6608  0.1524 -0.0334
 8039TIP3    H145608   1.245   1.638  13.632  0.4813 -0.1589  0.3860
 8039TIP3    H245609   1.212   1.490  13.628 -1.1411  0.2073 -0.5773
 8040TIP3   OH245610   4.840   5.173  14.527  0.3525 -0.7292 -0.0179
 8040TIP3    H145611   4.824   5.080  14.512  0.6910 -0.6937 -0.6051
 8040TIP3    H245612   4.835   5.183  14.623  0.6542 -1.4107  0.0697
 8041TIP3   OH245613   3.600   0.552  16.186 -0.2299 -0.1952  0.1863
 8041TIP3    H145614   3.587   0.636  16.141  0.7062 -0.5526 -0.7642
 8041TIP3    H245615   3.678   0.515  16.145 -0.0941 -1.1023  1.2623
 8042TIP3   OH245616   4.226   3.134  11.612 -0.0570  0.1110  0.1602
 8042TIP3    H145617   4.306   3.099  11.651 -0.7785 -0.2402  1.3462
 8042TIP3    H245618   4.200   3.068  11.547  2.0372  1.4599 -2.1434
 8043TIP3   OH245619   6.381   1.775  17.234  0.1018  0.3675 -0.0259
 8043TIP3    H145620   6.291   1.770  17.267 -0.2692  0.7568 -0.9604
 8043TIP3    H245621   6.432   1.803  17.309 -0.0613 -2.8765  1.3816
 8044TIP3   OH245622   5.246   4.853   5.557 -0.0927  0.1340 -0.0529
 8044TIP3    H145623   5.167   4.875   5.507 -1.7599 -0.1146  2.3611
 8044TIP3    H245624   5.253   4.923   5.622  0.4461 -0.9998  1.1193
 8045TIP3   OH245625   3.368   1.459   0.568  1.1482  0.2973  0.6645
 8045TIP3    H145626   3.337   1.383   0.617 -0.1226  1.1102  1.1549
 8045TIP3    H245627   3.381   1.526   0.635 -1.0430  1.5606 -0.1285
 8046TIP3   OH245628   1.909   4.424   2.592  0.0090 -0.2153  0.1039
 8046TIP3    H145629   1.860   4.342   2.593 -0.3193 -0.0156  0.7918
 8046TIP3    H245630   1.989   4.405   2.640 -0.3059  0.0104  0.7212
 8047TIP3   OH245631   3.005   2.414  12.688  0.1299  0.0540 -0.5815
 8047TIP3    H145632   2.948   2.465  12.746 -1.0824 -0.1969 -1.5400
 8047TIP3    H245633   2.979   2.323  12.703  1.0250 -0.1452 -0.2284
 8048TIP3   OH245634   5.051   1.714   4.716  0.3463 -0.4404  0.4643
 8048TIP3    H145635   5.077   1.622   4.708 -1.0569 -0.7526 -0.8171
 8048TIP3    H245636   4.958   1.714   4.691  0.8121  1.5988 -1.3866
 8049TIP3   OH245637   2.187   2.554  14.247  0.4559  0.3905 -0.3168
 8049TIP3    H145638   2.176   2.628  14.187  1.1048  0.3085 -0.5316
 8049TIP3    H245639   2.098   2.536  14.278  0.0327  0.0519 -1.6999
 8050TIP3   OH245640   2.609   5.632  14.015 -0.0587  0.5410  0.0602
 8050TIP3    H145641   2.652   5.614  13.931 -0.5824 -0.5530  0.0082
 8050TIP3    H245642   2.662   5.701  14.055  2.6584 -1.7571  0.6385
 8051TIP3   OH245643   4.956   6.727  15.159 -0.0932  0.5434 -0.2009
 8051TIP3    H145644   5.048   6.746  15.180 -0.5607  0.9632  1.4917
 8051TIP3    H245645   4.909   6.741  15.241 -1.6564  0.1516 -1.0163
 8052TIP3   OH245646   3.547   1.501   3.709  0.6073 -0.3723  0.2565
 8052TIP3    H145647   3.523   1.412   3.734  2.3164 -0.7435  0.6291
 8052TIP3    H245648   3.473   1.555   3.737  0.2173 -1.4796  1.3851
 8053TIP3   OH245649   2.498   6.418  12.064  0.3465  0.2582  0.4708
 8053TIP3    H145650   2.491   6.334  12.018 -0.0734  0.8721 -0.6249
 8053TIP3    H245651   2.429   6.415  12.131 -0.8759  0.4342 -0.7486
 8054TIP3   OH245652   2.824   5.149   3.297 -0.0300  0.1409 -0.5519
 8054TIP3    H145653   2.823   5.120   3.389  1.1237  1.8913  0.0322
 8054TIP3    H245654   2.755   5.215   3.293 -0.8959 -0.7978 -1.2506
 8055TIP3   OH245655   5.312   0.369   4.176  0.1795  0.4968 -0.0350
 8055TIP3    H145656   5.291   0.403   4.263 -0.3308 -1.3976  0.6096
 8055TIP3    H245657   5.230   0.330   4.146  0.2016  1.6515 -1.6180
 8056TIP3   OH245658   0.065   2.472  14.410  0.0060 -0.4793 -0.1068
 8056TIP3    H145659   0.058   2.567  14.403 -1.7007 -0.7185 -2.0347
 8056TIP3    H245660   0.142   2.458  14.464 -0.2730  2.0134  1.0091
 8057TIP3   OH245661   0.078   2.042   5.971 -0.1215 -0.5636 -0.2109
 8057TIP3    H145662   0.127   2.058   5.890  0.4669 -2.2779 -0.2256
 8057TIP3    H245663   0.146   2.025   6.037 -0.6018  0.5581  0.5791
 8058TIP3   OH245664   5.994   1.970   5.624 -0.0111  0.2706  0.2583
 8058TIP3    H145665   6.056   1.899   5.637  0.9822  1.4060  1.9579
 8058TIP3    H245666   6.039   2.047   5.659 -2.1244  1.2228  0.9413
 8059TIP3   OH245667   5.416   2.134  16.413 -0.0666 -0.1829  0.4398
 8059TIP3    H145668   5.435   2.159  16.503  0.3720  1.6029 -0.1205
 8059TIP3    H245669   5.436   2.040  16.409  2.4975  0.2672  1.5322
 8060TIP3   OH245670   5.271   2.175   3.344 -0.2672  0.3658 -0.2174
 8060TIP3    H145671   5.181   2.150   3.366 -0.7019  2.2431  0.1993
 8060TIP3    H245672   5.288   2.254   3.396  1.0095  1.0459 -1.6247
 8061TIP3   OH245673   3.172   2.750  16.243  0.2010  0.3030 -0.1442
 8061TIP3    H145674   3.206   2.791  16.164  0.5740  0.9097  0.3218
 8061TIP3    H245675   3.191   2.657  16.232 -0.5538  0.2656 -1.1604
 8062TIP3   OH245676   2.688   5.586   0.819 -0.2362  0.1569  0.2828
 8062TIP3    H145677   2.744   5.625   0.887  1.1355 -0.3013 -0.5622
 8062TIP3    H245678   2.643   5.514   0.864  0.7246 -0.1964  0.6973
 8063TIP3   OH245679   4.532   6.287  12.486 -0.4883  0.2602  0.7492
 8063TIP3    H145680   4.537   6.358  12.423 -1.1509 -0.9254 -0.6579
 8063TIP3    H245681   4.600   6.226  12.458 -0.4907 -0.0610  1.4417
 8064TIP3   OH245682   0.783   4.226  15.149 -0.7211  0.0846 -0.3268
 8064TIP3    H145683   0.796   4.144  15.101 -0.7605  0.9205 -1.8041
 8064TIP3    H245684   0.699   4.215  15.192 -0.3187 -0.9933  0.2213
 8065TIP3   OH245685   4.390   3.215  12.954  0.0041 -0.3822  0.3607
 8065TIP3    H145686   4.298   3.186  12.954  0.1738 -0.9319  0.0111
 8065TIP3    H245687   4.430   3.165  13.025  0.4357 -1.4877 -0.6311
 8066TIP3   OH245688   2.295   2.811   1.862 -0.0044 -0.3165  0.2989
 8066TIP3    H145689   2.334   2.868   1.928 -1.9573  0.1024  1.1259
 8066TIP3    H245690   2.242   2.869   1.808  0.5047 -0.8692 -0.8182
 8067TIP3   OH245691   4.505   1.126  15.158  0.0602 -0.4823  0.3121
 8067TIP3    H145692   4.448   1.193  15.195 -1.0369 -0.4844 -1.3724
 8067TIP3    H245693   4.594   1.160  15.173 -0.4770  1.2743 -0.3947
 8068TIP3   OH245694   2.358   4.575   4.527 -0.0921  0.4621  0.6331
 8068TIP3    H145695   2.324   4.641   4.588  0.5543  0.1820  1.3144
 8068TIP3    H245696   2.410   4.625   4.464 -0.1058  0.6736  0.7881
 8069TIP3   OH245697   5.981   3.965  10.006 -0.1541 -0.5167  0.6713
 8069TIP3    H145698   5.955   3.989  10.095 -0.2000 -1.2034  0.8488
 8069TIP3    H245699   6.035   4.038   9.976  2.1643 -1.5098  2.2913
 8070TIP3   OH245700   0.858   1.369  14.049 -0.0780 -0.3590 -0.0331
 8070TIP3    H145701   0.779   1.329  14.086  0.8535 -1.9349  0.2718
 8070TIP3    H245702   0.905   1.404  14.125 -0.0072 -0.2747 -0.1140
 8071TIP3   OH245703   1.724   6.768   5.301  0.2988 -0.3535  0.2560
 8071TIP3    H145704   1.781   6.815   5.240 -0.7638 -0.1981 -0.6476
 8071TIP3    H245705   1.730   6.676   5.273 -2.0520  0.0156 -1.6964
 8072TIP3   OH245706   5.991   0.519   1.038 -0.0697 -0.2057 -0.1778
 8072TIP3    H145707   6.008   0.554   1.125  1.1375 -0.3092 -0.3633
 8072TIP3    H245708   6.073   0.477   1.012 -0.9977 -1.7640 -0.6272
 8073TIP3   OH245709   2.345   1.905   5.823  0.0123 -0.2391 -0.3340
 8073TIP3    H145710   2.288   1.948   5.886 -0.2314  1.9968 -2.0219
 8073TIP3    H245711   2.295   1.829   5.793 -0.3395 -0.6595  1.2861
 8074TIP3   OH245712   2.784   2.561   2.005  0.4083 -0.2240  0.2398
 8074TIP3    H145713   2.866   2.606   1.988 -0.0335  0.7412  0.6288
 8074TIP3    H245714   2.801   2.509   2.083  0.7313 -0.2373  0.1623
 8075TIP3   OH245715   3.544   5.571   4.993 -0.2252  0.7292  0.2518
 8075TIP3    H145716   3.549   5.562   5.088 -1.9846 -1.6156  0.1569
 8075TIP3    H245717   3.526   5.483   4.961 -0.5079  1.6384 -2.2089
 8076TIP3   OH245718   1.361   1.739  16.061 -0.1343 -0.4182  0.5303
 8076TIP3    H145719   1.455   1.738  16.043 -0.1114 -1.7067  0.6790
 8076TIP3    H245720   1.321   1.719  15.977 -0.2888  0.3466  0.4201
 8077TIP3   OH245721   5.553   5.541   2.568  0.0138 -0.1861 -0.0226
 8077TIP3    H145722   5.558   5.588   2.651  1.8816 -0.3593 -0.0127
 8077TIP3    H245723   5.635   5.562   2.523 -0.1816 -1.5258 -1.0539
 8078TIP3   OH245724   3.399   4.379  16.624 -0.0681 -0.3213 -0.3752
 8078TIP3    H145725   3.480   4.396  16.577 -0.4156  0.0687 -0.8432
 8078TIP3    H245726   3.330   4.397  16.560 -0.5077 -1.4761 -0.2558
 8079TIP3   OH245727   4.120   3.979  15.606  0.0864 -0.9117 -0.1599
 8079TIP3    H145728   4.071   4.061  15.601 -0.4344 -1.1928  0.2196
 8079TIP3    H245729   4.212   4.006  15.606 -0.0779 -0.3430 -0.2674
 8080TIP3   OH245730   6.707   3.409  11.140  0.1628  0.4171 -0.2869
 8080TIP3    H145731   6.699   3.372  11.228  1.1954  3.0633  0.9608
 8080TIP3    H245732   6.619   3.442  11.121  0.3673  1.4324  0.4980
 8081TIP3   OH245733   3.031   0.136  11.511 -0.0222 -0.2851  0.4986
 8081TIP3    H145734   3.115   0.113  11.471 -0.3800 -0.2059 -0.3107
 8081TIP3    H245735   3.008   0.219  11.471 -1.2970 -1.1300 -0.5310
 8082TIP3   OH245736   2.929   2.469   4.457 -0.0548 -0.2056 -0.7675
 8082TIP3    H145737   2.910   2.514   4.540 -1.3507 -0.8384 -0.6995
 8082TIP3    H245738   3.022   2.447   4.462 -0.2749 -0.8729  0.8403
 8083TIP3   OH245739   1.544   0.709   5.884 -0.0925 -0.1302 -0.6475
 8083TIP3    H145740   1.480   0.707   5.956  1.1518  1.6342  0.5334
 8083TIP3    H245741   1.586   0.623   5.887 -0.6102 -0.3572  0.2148
 8084TIP3   OH245742   3.829   2.189   4.081  0.0239  0.3260  0.0780
 8084TIP3    H145743   3.757   2.179   4.018  0.2885 -0.0090 -0.1798
 8084TIP3    H245744   3.787   2.181   4.166 -0.1757 -0.4160 -0.0770
 8085TIP3   OH245745   6.751   1.046   1.426  0.5443  0.1157 -0.3622
 8085TIP3    H145746   6.832   1.048   1.478  0.9680 -0.4775 -0.9986
 8085TIP3    H245747   6.769   1.104   1.352  0.2653  0.2395 -0.3327
 8086TIP3   OH245748   4.447   1.189  16.943  0.4878  0.1174 -0.7600
 8086TIP3    H145749   4.403   1.146  16.870  2.2242 -1.6838 -0.7799
 8086TIP3    H245750   4.539   1.166  16.933  1.1484  2.1471  0.4319
 8087TIP3   OH245751   4.131   2.255   2.734  0.1331 -0.4031 -0.0143
 8087TIP3    H145752   4.204   2.292   2.784 -0.5995 -0.3574  1.0334
 8087TIP3    H245753   4.106   2.175   2.781 -1.2224  0.1783  0.2963
 8088TIP3   OH245754   5.390   6.092   4.484  0.0880 -0.4154  0.4518
 8088TIP3    H145755   5.353   6.007   4.458 -0.8881  0.5726 -1.5128
 8088TIP3    H245756   5.473   6.097   4.436 -0.2114  0.0455 -0.0268
 8089TIP3   OH245757   4.605   3.123  12.512  0.2569 -0.1208 -0.2437
 8089TIP3    H145758   4.663   3.123  12.587  0.4651 -0.6256 -0.4031
 8089TIP3    H245759   4.653   3.075  12.444 -0.2083 -0.2585 -0.4777
 8090TIP3   OH245760   3.012   6.438  13.598  0.3296 -0.2788  0.1115
 8090TIP3    H145761   2.920   6.461  13.607  0.5815  1.6590 -1.9065
 8090TIP3    H245762   3.045   6.436  13.688 -0.9836  1.9982  0.6903
 8091TIP3   OH245763   0.332   6.554  14.567 -0.1855  0.0331  0.1696
 8091TIP3    H145764   0.300   6.592  14.649  0.6966 -0.5130  0.7767
 8091TIP3    H245765   0.400   6.492  14.594  0.0498 -0.2213 -0.9703
 8092TIP3   OH245766   4.892   2.214  14.217 -0.1361  0.3399 -0.5339
 8092TIP3    H145767   4.870   2.270  14.142  2.5567  1.3256 -0.6583
 8092TIP3    H245768   4.961   2.262  14.262 -0.1148 -1.3469  1.2776
 8093TIP3   OH245769   4.408   2.609   5.303 -0.2970  0.4803 -0.1247
 8093TIP3    H145770   4.328   2.658   5.284 -0.9506 -0.2880  0.6237
 8093TIP3    H245771   4.441   2.646   5.385  0.2290  0.9374 -0.5401
 8094TIP3   OH245772   6.132   0.183   2.640 -0.6129  0.3772  0.2238
 8094TIP3    H145773   6.150   0.130   2.718  0.0218  0.1175 -0.0999
 8094TIP3    H245774   6.081   0.125   2.584  1.2806 -0.4040 -0.7446
 8095TIP3   OH245775   2.439   0.623  12.724 -0.6342 -0.1805  0.3063
 8095TIP3    H145776   2.443   0.671  12.806 -1.4218  0.3688  0.0319
 8095TIP3    H245777   2.374   0.670  12.672 -1.7102 -1.7402  0.1783
 8096TIP3   OH245778   5.666   3.998  15.867 -0.0155 -0.3745 -0.2291
 8096TIP3    H145779   5.665   4.030  15.957  2.0425 -2.9034  0.7761
 8096TIP3    H245780   5.736   4.047  15.825  0.2051 -0.4391  0.0602
 8097TIP3   OH245781   6.608   0.473  11.988 -0.3773 -0.1258  0.0906
 8097TIP3    H145782   6.633   0.484  11.897  2.3456 -4.0997  0.2142
 8097TIP3    H245783   6.662   0.536  12.036 -0.6039  0.8147 -0.8728
 8098TIP3   OH245784   0.208   2.515  14.084 -0.1393 -0.6060 -1.3146
 8098TIP3    H145785   0.219   2.477  14.171  0.7338 -1.1803 -1.6642
 8098TIP3    H245786   0.289   2.492  14.038 -1.1511 -1.4755 -2.7001
 8099TIP3   OH245787   0.869   2.524   1.194  0.0524  0.8300 -0.1549
 8099TIP3    H145788   0.871   2.460   1.123 -0.4173  1.1562 -0.4638
 8099TIP3    H245789   0.793   2.499   1.247  0.6313  0.3483  0.4604
 8100TIP3   OH245790   2.306   1.458  14.606  0.2342  0.3668  0.2444
 8100TIP3    H145791   2.261   1.400  14.546 -1.2568  1.0290  0.6875
 8100TIP3    H245792   2.331   1.402  14.679 -1.2280  0.2514  0.6879
 8101TIP3   OH245793   5.161   0.441  12.781 -0.4356  0.2891 -0.2819
 8101TIP3    H145794   5.177   0.479  12.695 -0.6265  0.2060 -0.3536
 8101TIP3    H245795   5.147   0.517  12.839  1.2447  0.4115 -0.0018
 8102TIP3   OH245796   5.308   0.159   2.211 -0.4396  0.2751 -0.0061
 8102TIP3    H145797   5.322   0.162   2.305  0.1961 -0.7150 -0.0555
 8102TIP3    H245798   5.300   0.066   2.191 -0.9433  0.5027 -0.8772
 8103TIP3   OH245799   1.985   1.178  15.744 -0.5677  0.1455 -0.4045
 8103TIP3    H145800   1.898   1.162  15.780 -0.1638  0.2865  0.6653
 8103TIP3    H245801   1.977   1.158  15.651 -1.2468 -1.7245  0.0329
 8104TIP3   OH245802   6.232   5.018  13.229  0.5856 -0.5183  0.1302
 8104TIP3    H145803   6.163   4.998  13.293  1.4728 -0.8559  0.9939
 8104TIP3    H245804   6.242   4.937  13.179 -0.7212  0.0214 -1.0344
 8105TIP3   OH245805   1.086   1.607   1.854 -0.3429 -0.4798 -0.2091
 8105TIP3    H145806   1.153   1.574   1.914 -1.1499  0.2485  1.1291
 8105TIP3    H245807   1.102   1.702   1.850 -1.3476 -0.2823  0.2243
 8106TIP3   OH245808   1.986   2.155  10.733 -0.3038  0.2812 -0.0840
 8106TIP3    H145809   1.932   2.160  10.655 -0.0107 -0.9032 -0.3792
 8106TIP3    H245810   2.071   2.191  10.707  0.0976 -1.0096 -0.6038
 8107TIP3   OH245811   1.020   0.461   3.664 -0.5510  0.3024  0.3494
 8107TIP3    H145812   0.969   0.469   3.584 -1.5794  2.0449  1.1713
 8107TIP3    H245813   1.111   0.466   3.634 -0.9066  0.2920 -0.7702
 8108TIP3   OH245814   1.326   0.219   4.283 -0.4968 -0.0910  0.1184
 8108TIP3    H145815   1.415   0.249   4.301 -0.9116 -0.2421  2.6490
 8108TIP3    H245816   1.307   0.249   4.194  2.3798 -0.8065 -0.7873
 8109TIP3   OH245817   2.176   5.864   1.509 -0.1380 -0.5142 -0.5286
 8109TIP3    H145818   2.249   5.825   1.460  0.6541 -0.9860  0.9750
 8109TIP3    H245819   2.213   5.944   1.546 -0.3163 -0.8616  0.4045
 8110TIP3   OH245820   0.118   0.095   0.642  0.1564  0.1789  0.5621
 8110TIP3    H145821   0.183   0.032   0.610  0.0505 -0.3374  1.3533
 8110TIP3    H245822   0.135   0.174   0.591 -0.4052 -0.8116 -1.2123
 8111TIP3   OH245823   0.709   1.016  13.182  0.5538  0.6672  0.9097
 8111TIP3    H145824   0.774   1.022  13.252  1.0725 -0.7756  0.5702
 8111TIP3    H245825   0.715   0.925  13.151  0.1396  1.2039 -0.8118
 8112TIP3   OH245826   5.500   6.515   4.150  0.1387 -0.3756  0.0754
 8112TIP3    H145827   5.482   6.602   4.114 -0.9560  0.1263  1.7816
 8112TIP3    H245828   5.433   6.459   4.112 -0.2639 -0.0966  0.3660
 8113TIP3   OH245829   2.219   4.532   1.391  0.3114 -0.7844 -0.2556
 8113TIP3    H145830   2.277   4.603   1.367 -0.0284 -0.6888 -0.8006
 8113TIP3    H245831   2.159   4.523   1.317 -0.1939 -1.0629  0.1793
 8114TIP3   OH245832   1.485   2.093   1.007  0.1230 -0.3390 -0.5028
 8114TIP3    H145833   1.403   2.134   0.979 -0.0524 -0.9331 -0.8607
 8114TIP3    H245834   1.552   2.156   0.981 -0.2758  0.5612  0.5857
 8115TIP3   OH245835   2.712   4.657   2.929  0.1029 -0.0718  0.0422
 8115TIP3    H145836   2.639   4.646   2.868 -0.6440 -1.0368  1.0842
 8115TIP3    H245837   2.684   4.727   2.988 -0.0915 -0.5955  0.5813
 8116TIP3   OH245838   0.994   4.341   6.278 -0.0604 -0.3875  0.1836
 8116TIP3    H145839   0.943   4.260   6.273  1.5730 -1.3950 -0.5759
 8116TIP3    H245840   1.018   4.361   6.188  1.0915 -0.0608  0.5503
 8117TIP3   OH245841   2.713   1.561   4.894 -0.1335 -0.2066 -0.2200
 8117TIP3    H145842   2.789   1.620   4.896  0.5816 -1.1462  0.7665
 8117TIP3    H245843   2.723   1.507   4.972 -2.1148  0.0090  0.2069
 8118TIP3   OH245844   0.500   3.275  16.070  0.3337 -0.0518 -0.3294
 8118TIP3    H145845   0.534   3.330  16.141  0.2265 -1.2448  0.6486
 8118TIP3    H245846   0.415   3.314  16.048  0.7736  0.8614 -0.4370
 8119TIP3   OH245847   1.008   4.556   5.231 -0.0418 -0.5945  0.8608
 8119TIP3    H145848   1.019   4.522   5.142  1.7681 -0.4304  1.0015
 8119TIP3    H245849   0.936   4.504   5.268  0.6367 -2.1626  0.0230
 8120TIP3   OH245850   2.846   4.587  11.115  0.4730 -0.2010 -0.1196
 8120TIP3    H145851   2.814   4.673  11.089 -1.6039 -0.1990  2.2190
 8120TIP3    H245852   2.778   4.527  11.086  0.9031 -0.8175  0.1475
 8121TIP3   OH245853   0.472   4.406   5.689 -0.4246 -0.3728  0.0836
 8121TIP3    H145854   0.395   4.352   5.709  0.4766 -1.0491  1.8400
 8121TIP3    H245855   0.458   4.434   5.599 -3.1932  0.2661  0.6482
 8122TIP3   OH245856   2.957   6.377  12.162 -0.3056  0.8822 -0.8754
 8122TIP3    H145857   2.958   6.379  12.067  0.5920  5.3891 -0.9158
 8122TIP3    H245858   2.880   6.428  12.187 -0.2304  0.2343  0.8064
 8123TIP3   OH245859   6.234   2.453   3.108 -0.2033 -0.3682 -0.2309
 8123TIP3    H145860   6.142   2.480   3.100 -0.6736 -1.2987  1.7387
 8123TIP3    H245861   6.255   2.469   3.200  2.2804  1.8861 -1.1315
 8124TIP3   OH245862   0.734   6.696   5.519  0.0422  0.3270  0.4115
 8124TIP3    H145863   0.742   6.785   5.487  0.0110  0.4936  0.8609
 8124TIP3    H245864   0.740   6.704   5.614  0.8690 -0.2394  0.4126
 8125TIP3   OH245865   1.172   2.636   3.740 -0.2415 -0.2795  0.0648
 8125TIP3    H145866   1.188   2.575   3.812  0.7893  0.0749  0.1396
 8125TIP3    H245867   1.164   2.579   3.663 -1.5570 -0.6748  0.4668
 8126TIP3   OH245868   5.288   3.901  16.658 -0.2230 -1.2819 -0.0736
 8126TIP3    H145869   5.346   3.846  16.604 -1.5239 -0.8018 -2.0041
 8126TIP3    H245870   5.287   3.986  16.613 -1.8431 -1.0628  0.3451
 8127TIP3   OH245871   2.980   3.312  12.686  0.2036 -0.9958 -0.1739
 8127TIP3    H145872   3.057   3.265  12.718  0.2760 -1.4004 -0.9335
 8127TIP3    H245873   2.975   3.289  12.594  2.0436  2.8988 -1.3490
 8128TIP3   OH245874   6.787   2.641   2.146 -0.6657 -0.5213 -0.1720
 8128TIP3    H145875   6.702   2.602   2.167 -1.3190  0.2082 -1.3775
 8128TIP3    H245876   6.781   2.731   2.178 -0.6548 -0.2258 -0.9820
 8129TIP3   OH245877   4.677   5.607  16.493  0.5724  0.3723  0.1617
 8129TIP3    H145878   4.584   5.629  16.501  0.9885  1.5959  1.8349
 8129TIP3    H245879   4.696   5.552  16.569  1.2996  0.4500  0.0419
 8130TIP3   OH245880   4.650   0.603   3.928  0.0675  0.0165  0.2894
 8130TIP3    H145881   4.699   0.625   4.007  3.4206 -1.5548 -1.2409
 8130TIP3    H245882   4.683   0.664   3.862 -0.9004 -0.3100 -0.5050
 8131TIP3   OH245883   5.923   1.346   4.568 -0.3926  0.3656 -0.1854
 8131TIP3    H145884   5.910   1.330   4.661  1.6972  0.6406  0.1772
 8131TIP3    H245885   5.884   1.270   4.525 -0.9471  0.0059  0.9348
 8132TIP3   OH245886   5.957   1.721  12.621  0.0240  0.4625  0.6158
 8132TIP3    H145887   5.867   1.738  12.648  0.0877 -0.3229  1.3570
 8132TIP3    H245888   5.971   1.777  12.545 -1.5271 -0.3939 -0.3175
 8133TIP3   OH245889   2.224   6.441  12.848 -0.5534  0.3635 -0.1003
 8133TIP3    H145890   2.222   6.386  12.927  0.5889 -0.4457 -0.6270
 8133TIP3    H245891   2.269   6.388  12.783  0.3494  1.8426 -0.6886
 8134TIP3   OH245892   5.660   3.519  12.291 -0.4892 -0.4259  0.4305
 8134TIP3    H145893   5.693   3.581  12.226  1.2396 -1.9315 -0.1474
 8134TIP3    H245894   5.575   3.491  12.257 -0.2189 -0.1625 -0.4668
 8135TIP3   OH245895   1.186   5.772   0.732  0.1861  0.8320 -0.5518
 8135TIP3    H145896   1.111   5.800   0.783  0.1040 -1.0650  0.4140
 8135TIP3    H245897   1.150   5.753   0.645 -0.4265  0.1325 -0.1510
 8136TIP3   OH245898   0.947   5.042   5.584 -0.0352 -0.7189 -0.2251
 8136TIP3    H145899   0.962   4.949   5.595 -1.9348 -1.1583 -1.1881
 8136TIP3    H245900   1.030   5.083   5.608  0.9214 -2.6630 -0.1660
 8137TIP3   OH245901   3.810   3.604  11.419 -0.0682  0.9196 -0.6214
 8137TIP3    H145902   3.806   3.535  11.484 -0.5845  0.2211 -1.3911
 8137TIP3    H245903   3.878   3.576  11.357 -2.3393 -0.3974 -2.6096
 8138TIP3   OH245904   3.777   4.580   0.404  0.6540 -0.3932 -0.0971
 8138TIP3    H145905   3.741   4.623   0.482  0.7112 -0.1175 -0.2224
 8138TIP3    H245906   3.864   4.551   0.431  1.1603  0.7905 -0.4293
 8139TIP3   OH245907   0.772   5.135   6.577 -0.4379  0.3497  0.0954
 8139TIP3    H145908   0.751   5.183   6.657 -0.8365  0.6080 -0.1613
 8139TIP3    H245909   0.754   5.044   6.598 -0.2777  0.3867  0.3900
 8140TIP3   OH245910   4.836   5.281  12.309  0.2079 -0.2158 -0.2544
 8140TIP3    H145911   4.837   5.252  12.400  0.4146  0.1492 -0.1402
 8140TIP3    H245912   4.802   5.371  12.312 -1.4651 -0.8223 -0.7130
 8141TIP3   OH245913   4.259   6.211  12.575  0.2755 -0.0787  0.5130
 8141TIP3    H145914   4.253   6.275  12.646 -1.6477 -0.2762  0.5528
 8141TIP3    H245915   4.352   6.208  12.553  0.5083  2.0599  1.1269
 8142TIP3   OH245916   3.925   0.355   0.548 -0.3842  0.1659 -0.3003
 8142TIP3    H145917   3.856   0.393   0.602 -0.3019  0.5359 -0.4577
 8142TIP3    H245918   3.978   0.303   0.609 -0.6927  0.0269 -0.1482
 8143TIP3   OH245919   3.557   5.180   2.044  0.1967  0.0962 -0.3534
 8143TIP3    H145920   3.612   5.132   1.982  1.7466  1.6852 -0.2444
 8143TIP3    H245921   3.617   5.212   2.111 -0.8068  2.0233 -0.3241
 8144TIP3   OH245922   4.430   0.337   2.495  0.6885  0.2377 -0.1922
 8144TIP3    H145923   4.526   0.340   2.489  0.6546 -0.9014 -1.2723
 8144TIP3    H245924   4.410   0.248   2.522 -0.1040  0.3541 -0.3920
 8145TIP3   OH245925   0.203   4.532   5.152 -0.1719  0.3908  0.0366
 8145TIP3    H145926   0.228   4.455   5.203  0.6885  0.1305 -0.7510
 8145TIP3    H245927   0.116   4.512   5.118 -0.7837  0.6026  1.4551
 8146TIP3   OH245928   2.895   2.352   5.680  0.1411 -0.0186  0.3267
 8146TIP3    H145929   2.903   2.446   5.663 -0.1420  0.0618  0.6259
 8146TIP3    H245930   2.902   2.345   5.775 -0.5772 -0.2231  0.3630
 8147TIP3   OH245931   2.973   5.092   6.430 -0.3627  0.3438  0.2770
 8147TIP3    H145932   2.972   5.078   6.335  2.2359 -0.7381  0.3823
 8147TIP3    H245933   2.943   5.009   6.467 -0.4234  0.4448  0.4586
 8148TIP3   OH245934   6.199   5.251   1.777  0.0682 -0.1916  0.4187
 8148TIP3    H145935   6.212   5.159   1.750 -0.0039  0.0811 -0.5755
 8148TIP3    H245936   6.113   5.273   1.744  0.4654  0.5198 -0.1457
 8149TIP3   OH245937   0.083   6.000  15.824 -0.8485  0.0600  0.3194
 8149TIP3    H145938   0.075   6.084  15.869 -1.5913 -0.5866  1.4073
 8149TIP3    H245939   0.172   5.970  15.845 -0.1836  1.0561 -0.9575
 8150TIP3   OH245940   3.375   6.264  11.086 -0.3959 -0.1342  0.3083
 8150TIP3    H145941   3.415   6.328  11.026 -0.8411 -0.2605 -0.1211
 8150TIP3    H245942   3.313   6.316  11.137 -0.5394 -0.1619  0.1646
 8151TIP3   OH245943   1.092   2.935   1.085  0.0974  0.1778 -0.3927
 8151TIP3    H145944   1.067   3.011   1.138  0.2814  0.6729 -1.0084
 8151TIP3    H245945   1.188   2.939   1.082  0.1900 -0.9022  0.7759
 8152TIP3   OH245946   1.659   2.264  15.274 -0.6187  0.3214 -0.3545
 8152TIP3    H145947   1.661   2.314  15.192 -1.1707  1.9047  0.5807
 8152TIP3    H245948   1.605   2.188  15.255 -0.4742  0.5093 -1.5538
 8153TIP3   OH245949   0.378   3.884   5.661 -0.1087 -0.0534 -0.1752
 8153TIP3    H145950   0.295   3.915   5.699 -0.2872 -1.2657  0.4332
 8153TIP3    H245951   0.445   3.928   5.712 -0.3499  1.6460 -1.2497
 8154TIP3   OH245952   4.350   5.000  12.211 -0.2760 -0.1815  0.3682
 8154TIP3    H145953   4.360   4.925  12.153 -1.5316  1.5652 -2.1905
 8154TIP3    H245954   4.418   5.062  12.184  0.2416 -0.0321  1.9270
 8155TIP3   OH245955   0.514   1.298   1.023 -0.2956 -0.0754  0.2695
 8155TIP3    H145956   0.436   1.242   1.030 -0.6133  0.2480 -0.5891
 8155TIP3    H245957   0.527   1.309   0.929 -0.2810  1.3609  0.4352
 8156TIP3   OH245958   2.260   2.564   1.237 -0.0666  0.2231 -0.2924
 8156TIP3    H145959   2.206   2.493   1.272 -0.5064  0.3445 -0.7289
 8156TIP3    H245960   2.250   2.635   1.300  0.3088 -0.0723  0.1026
 8157TIP3   OH245961   3.516   4.973  14.319  0.3585  0.4599  0.2920
 8157TIP3    H145962   3.580   5.011  14.379  0.2231 -0.5411  1.0829
 8157TIP3    H245963   3.548   4.995  14.231  1.5223  0.3793  0.6950
 8158TIP3   OH245964   3.792   5.401   6.316  0.4688  0.3071 -0.1733
 8158TIP3    H145965   3.720   5.386   6.377 -0.6344 -0.4863 -1.6301
 8158TIP3    H245966   3.843   5.472   6.355 -0.4420  0.0921  1.4475
 8159TIP3   OH245967   3.016   2.533   4.918 -0.7226  0.0110 -0.0457
 8159TIP3    H145968   2.930   2.502   4.946  0.6666 -2.4095  1.7992
 8159TIP3    H245969   3.045   2.591   4.988 -0.4945  0.1313 -0.2389
 8160TIP3   OH245970   3.572   6.792  11.405  0.0204  0.6962  0.2948
 8160TIP3    H145971   3.648   6.747  11.442 -0.4912  0.0136  0.5094
 8160TIP3    H245972   3.584   6.883  11.431  1.1675  0.7404 -0.3236
 8161TIP3   OH245973   0.903   4.126   5.814 -0.5775  0.3223  0.2095
 8161TIP3    H145974   0.934   4.143   5.725 -0.1070  0.4274  0.3939
 8161TIP3    H245975   0.962   4.059   5.847 -0.1869  0.9359  0.7644
 8162TIP3   OH245976   4.969   4.141  12.883  0.3702 -0.7079 -0.2084
 8162TIP3    H145977   5.037   4.202  12.914 -0.7633  0.2435  0.4577
 8162TIP3    H245978   5.013   4.089  12.815  1.1039  1.4972 -1.4797
 8163TIP3   OH245979   4.686   3.132  10.640 -0.5856 -0.2762 -0.2053
 8163TIP3    H145980   4.635   3.180  10.575  0.3384 -1.2284 -1.6447
 8163TIP3    H245981   4.645   3.046  10.644  0.8124 -1.0156 -1.2961
 8164TIP3   OH245982   2.672   3.290   0.575 -0.1180 -0.3272 -0.9417
 8164TIP3    H145983   2.727   3.258   0.645 -3.1539  0.2222  1.8180
 8164TIP3    H245984   2.684   3.385   0.576 -3.0781  0.1079  1.5618
 8165TIP3   OH245985   2.569   1.402  14.354 -1.0686 -0.1628 -0.1545
 8165TIP3    H145986   2.579   1.333  14.288  2.0815 -0.3745  0.4743
 8165TIP3    H245987   2.588   1.358  14.437  1.2943  1.5010  0.2266
 8166TIP3   OH245988   6.456   1.380  11.746  0.2334  0.0015  0.0953
 8166TIP3    H145989   6.489   1.455  11.696  1.1716 -1.1921 -1.1214
 8166TIP3    H245990   6.528   1.316  11.742 -1.3288 -1.7449 -0.6046
 8167TIP3   OH245991   6.093   0.020   1.887  0.1894  0.0512  0.4006
 8167TIP3    H145992   6.014   0.038   1.937 -0.1994 -0.9304  0.1560
 8167TIP3    H245993   6.160   0.002   1.953  0.2800  1.1708  0.6127
 8168TIP3   OH245994   3.978   2.245   0.694  0.1829  0.1371  0.3171
 8168TIP3    H145995   3.925   2.324   0.690 -0.7445 -0.4689  0.3788
 8168TIP3    H245996   4.030   2.246   0.614  0.3307  0.9131  0.4215
 8169TIP3   OH245997   1.850   0.789  16.569  0.4192  0.3208 -0.0658
 8169TIP3    H145998   1.764   0.767  16.535  0.6140 -0.0367 -0.3270
 8169TIP3    H245999   1.884   0.855  16.509 -0.2475  1.4896  0.8299
 8170TIP3   OH246000   2.989   1.910  16.077  0.3996 -0.3129  0.2924
 8170TIP3    H146001   2.966   1.905  15.984  0.6581 -1.5709  0.2945
 8170TIP3    H246002   2.964   1.999  16.102  0.5068  0.1092 -1.0258
 8171TIP3   OH246003   2.681   6.479  16.221  0.7289 -0.1803 -0.1287
 8171TIP3    H146004   2.586   6.490  16.213  0.3851 -2.9617 -0.4888
 8171TIP3    H246005   2.695   6.451  16.311  1.0947 -0.6051 -0.3115
 8172TIP3   OH246006   4.177   3.536   2.269  0.8377  0.5184  0.3172
 8172TIP3    H146007   4.229   3.565   2.194 -1.2077  2.4946 -0.3827
 8172TIP3    H246008   4.228   3.564   2.345  1.9158  0.3506 -0.3306
 8173TIP3   OH246009   0.219   5.835   2.982 -0.0138 -0.3323  0.1850
 8173TIP3    H146010   0.282   5.780   3.028  0.9537 -0.5222 -1.3598
 8173TIP3    H246011   0.181   5.890   3.051 -0.7604 -2.6592  1.6973
 8174TIP3   OH246012   5.740   2.235   2.886 -0.1468  0.4532 -0.0645
 8174TIP3    H146013   5.695   2.224   2.802 -3.3314  0.2730  1.5877
 8174TIP3    H246014   5.717   2.156   2.936  0.4036  1.2937  1.5413
 8175TIP3   OH246015   4.657   0.486  12.002  0.1789 -0.3537  0.2084
 8175TIP3    H146016   4.642   0.578  12.022  1.8668 -0.3436  1.5464
 8175TIP3    H246017   4.585   0.440  12.045  1.2407  0.0698  2.5331
 8176TIP3   OH246018   4.145   0.709  11.355  0.2680 -0.1197 -0.6588
 8176TIP3    H146019   4.126   0.801  11.332 -2.1758 -0.2809  0.5463
 8176TIP3    H246020   4.102   0.659  11.285 -0.8636 -0.3997  0.2223
 8177TIP3   OH246021   2.003   1.467  15.280  0.1262  0.3039 -0.2490
 8177TIP3    H146022   1.979   1.413  15.205 -1.2600 -2.0005  1.7977
 8177TIP3    H246023   1.925   1.468  15.335  0.9803  2.3356  0.9524
 8178TIP3   OH246024   2.060   6.774   0.468 -0.0585  0.0225  0.0007
 8178TIP3    H146025   2.095   6.806   0.551  0.6746  0.3257 -0.4275
 8178TIP3    H246026   2.131   6.786   0.405 -1.0813  1.1227 -0.9732
 8179TIP3   OH246027   1.119   2.651  11.332  0.2126  0.0284 -0.0787
 8179TIP3    H146028   1.028   2.681  11.332  0.0675 -0.3304 -2.2383
 8179TIP3    H246029   1.161   2.702  11.263  1.9051  0.8219  1.4757
 8180TIP3   OH246030   6.602   6.782   3.711 -0.1720  0.0879 -0.2133
 8180TIP3    H146031   6.620   6.728   3.788  1.9887  0.3224 -0.5069
 8180TIP3    H246032   6.528   6.740   3.668  0.7787 -2.0348  0.1604
 8181TIP3   OH246033   1.005   1.965   0.328  0.3486 -0.3617  0.1910
 8181TIP3    H146034   0.995   1.872   0.350 -2.0948 -0.3434 -0.6159
 8181TIP3    H246035   0.932   2.008   0.374  1.1562  1.0741  0.1398
 8182TIP3   OH246036   1.788   4.943   4.733  0.3130  0.2911 -0.5107
 8182TIP3    H146037   1.785   4.847   4.725 -0.7295  0.3134 -0.5133
 8182TIP3    H246038   1.719   4.963   4.796  0.2771  1.0778 -0.7994
 8183TIP3   OH246039   2.090   1.442  12.797  0.3904  0.5268 -0.6463
 8183TIP3    H146040   2.089   1.475  12.707 -0.4089 -0.4160 -0.9940
 8183TIP3    H246041   1.998   1.442  12.824  0.5357 -0.0012 -0.1330
 8184TIP3   OH246042   5.996   4.978   4.335  0.2651  0.3077  0.2143
 8184TIP3    H146043   6.074   4.959   4.283 -2.3130 -2.3177 -2.8959
 8184TIP3    H246044   6.029   4.997   4.422  4.5041  1.2951 -1.5017
 8185TIP3   OH246045   6.624   6.048  13.762  0.0508 -0.3307  0.2716
 8185TIP3    H146046   6.646   5.995  13.685  0.2394  0.9595 -0.5683
 8185TIP3    H246047   6.677   6.011  13.833 -0.4628 -1.8160 -0.0992
 8186TIP3   OH246048   4.122   3.755  16.781 -0.2738 -0.2885  0.3866
 8186TIP3    H146049   4.167   3.706  16.713 -0.8349 -1.9545  1.1796
 8186TIP3    H246050   4.148   3.711  16.863 -0.3625  1.0758  1.1634
 8187TIP3   OH246051   6.002   2.914   4.204 -0.0273  0.1068 -0.2177
 8187TIP3    H146052   5.937   2.879   4.144  1.3546 -2.1315 -0.4511
 8187TIP3    H246053   5.966   2.898   4.291 -1.3729  2.0698 -0.3694
 8188TIP3   OH246054   2.809   5.042  12.875  0.1634 -0.0587  0.4856
 8188TIP3    H146055   2.760   5.116  12.911 -0.8617 -0.7284  0.4861
 8188TIP3    H246056   2.755   5.012  12.801  0.3132 -1.1394  0.8162
 8189TIP3   OH246057   5.403   4.791  16.145 -0.1478 -0.3480 -0.1835
 8189TIP3    H146058   5.318   4.832  16.163 -0.4594 -0.7795 -0.6582
 8189TIP3    H246059   5.396   4.762  16.054  1.3038  1.5774 -0.9486
 8190TIP3   OH246060   2.084   5.121   3.292 -0.2761  0.1072  0.2988
 8190TIP3    H146061   2.044   5.160   3.214 -1.2657 -1.0434  0.2118
 8190TIP3    H246062   2.068   5.184   3.362 -0.4232  0.6044 -0.1818
 8191TIP3   OH246063   1.070   3.738   2.626  0.1440 -0.4032 -0.6066
 8191TIP3    H146064   1.017   3.812   2.597  1.6170  0.8101 -0.2382
 8191TIP3    H246065   1.007   3.666   2.637 -1.3263  0.8529 -0.7239
 8192TIP3   OH246066   0.621   2.265  12.899 -0.4807 -0.2045  0.1852
 8192TIP3    H146067   0.570   2.324  12.954 -0.2726  0.6956 -0.5743
 8192TIP3    H246068   0.702   2.313  12.881  0.2317 -1.2350  0.5963
 8193TIP3   OH246069   3.493   2.839   4.730  0.3704 -0.7641  0.2633
 8193TIP3    H146070   3.455   2.918   4.768 -1.1578 -1.7093  0.7844
 8193TIP3    H246071   3.584   2.840   4.758  0.2415  0.5704  0.6600
 8194TIP3   OH246072   5.745   3.011  15.281 -0.0625  0.0286 -0.4127
 8194TIP3    H146073   5.748   3.071  15.356  0.4883 -0.2544 -0.2087
 8194TIP3    H246074   5.804   3.050  15.216 -0.3910  0.1725 -0.6255
 8195TIP3   OH246075   2.135   2.957  14.702  0.2901 -0.3906  0.0497
 8195TIP3    H146076   2.052   2.998  14.678  0.8264 -0.5232 -2.1750
 8195TIP3    H246077   2.186   3.027  14.742 -0.1963  0.1734 -0.3050
 8196TIP3   OH246078   6.648   0.452   5.362 -0.0576 -0.3041 -0.2018
 8196TIP3    H146079   6.702   0.397   5.419 -1.5669 -1.6811 -0.0493
 8196TIP3    H246080   6.710   0.493   5.302  1.4521  0.3926  1.7870
 8197TIP3   OH246081   6.261   2.449  17.033 -0.1426 -0.1892  0.1837
 8197TIP3    H146082   6.270   2.540  17.005  0.3041 -0.1779  0.3615
 8197TIP3    H246083   6.196   2.412  16.973  1.2449 -0.3188 -1.2644
 8198TIP3   OH246084   1.558   3.361   3.341  0.0555 -0.1696  0.4293
 8198TIP3    H146085   1.545   3.319   3.426 -0.7582 -2.2803 -0.7190
 8198TIP3    H246086   1.650   3.387   3.341  0.1652 -0.5173  1.7834
 8199TIP3   OH246087   3.944   4.463   3.500 -0.4328 -0.7929 -0.5259
 8199TIP3    H146088   3.889   4.525   3.452  0.9301 -0.0690 -1.1849
 8199TIP3    H246089   4.016   4.444   3.440 -1.0569 -3.3865 -0.5162
 8200TIP3   OH246090   5.988   5.137  13.807 -0.4196 -0.4624 -0.7976
 8200TIP3    H146091   6.068   5.098  13.843 -0.2328 -1.1502 -1.9451
 8200TIP3    H246092   5.970   5.212  13.864  0.6551 -0.7111 -0.1225
 8201TIP3   OH246093   0.193   2.150   4.124 -0.1752  0.2212  0.3614
 8201TIP3    H146094   0.203   2.058   4.148  1.6171  0.4540  0.5793
 8201TIP3    H246095   0.280   2.176   4.095 -0.8783  1.6208 -0.5109
 8202TIP3   OH246096   1.128   6.060  16.761  0.4292  0.2002  0.7882
 8202TIP3    H146097   1.111   6.131  16.700  3.0201  0.3959  0.2579
 8202TIP3    H246098   1.213   6.080  16.800 -0.2157 -1.0028  2.9405
 8203TIP3   OH246099   3.240   3.175  11.000 -0.0812  0.2602 -0.1144
 8203TIP3    H146100   3.322   3.170  11.049  1.4121  1.6709 -2.3855
 8203TIP3    H246101   3.265   3.156  10.909 -2.3695  0.1664 -0.7546
 8204TIP3   OH246102   0.632   4.161  15.371 -0.6077 -0.2430 -0.0176
 8204TIP3    H146103   0.573   4.095  15.336 -1.7433 -0.7932  2.8434
 8204TIP3    H246104   0.716   4.117  15.379 -0.8886 -0.7721  0.0466
 8205TIP3   OH246105   2.220   4.528  12.929  0.4965  0.3780  0.0265
 8205TIP3    H146106   2.172   4.572  12.860  0.3769 -0.6975 -0.5833
 8205TIP3    H246107   2.154   4.477  12.976  1.1334 -1.6904 -1.2769
 8206TIP3   OH246108   6.077   5.870   6.179 -0.6661 -0.0924 -0.5001
 8206TIP3    H146109   6.086   5.922   6.099 -0.0329 -0.9248 -0.9909
 8206TIP3    H246110   6.131   5.915   6.243 -0.0714 -0.1689 -0.9385
 8207TIP3   OH246111   5.702   2.434   5.495  0.0326 -0.0632 -0.6953
 8207TIP3    H146112   5.623   2.459   5.543  0.3202 -0.7576  0.1497
 8207TIP3    H246113   5.755   2.386   5.559  1.3876  0.8723 -1.0910
 8208TIP3   OH246114   2.469   0.365   2.815  0.6571  0.3822  0.2404
 8208TIP3    H146115   2.447   0.277   2.784  1.3186  0.3425 -0.1488
 8208TIP3    H246116   2.386   0.412   2.814  0.1616 -0.4514  1.1834
 8209TIP3   OH246117   4.185   3.100  14.434 -0.1893 -0.3931 -0.1335
 8209TIP3    H146118   4.249   3.107  14.504  0.8249  3.0713 -1.2952
 8209TIP3    H246119   4.224   3.040  14.371 -0.8824 -3.1283  1.9291
 8210TIP3   OH246120   3.443   2.426   2.201 -0.4641 -0.4981  0.0882
 8210TIP3    H146121   3.424   2.370   2.276 -1.7403 -1.5467 -0.9920
 8210TIP3    H246122   3.361   2.472   2.184  0.2225  0.7861  0.2026
 8211TIP3   OH246123   3.213   4.265  16.394 -0.3689 -0.0918  0.4321
 8211TIP3    H146124   3.201   4.277  16.300  0.3029  1.2599  0.5018
 8211TIP3    H246125   3.293   4.213  16.403  0.9182  1.8151  0.2994
 8212TIP3   OH246126   6.579   4.070  13.771 -0.0941 -0.8993  0.3484
 8212TIP3    H146127   6.520   4.068  13.846 -1.3087 -2.2376 -0.6064
 8212TIP3    H246128   6.542   4.135  13.712 -0.5183 -1.5923 -0.1597
 8213TIP3   OH246129   5.085   2.448   3.297 -0.6639 -0.3451 -0.1181
 8213TIP3    H146130   5.002   2.446   3.346 -0.0396 -1.4756  0.9215
 8213TIP3    H246131   5.085   2.367   3.247 -0.2827 -0.2279 -0.3070
 8214TIP3   OH246132   2.610   2.206  14.688  0.3362  0.0585 -0.0664
 8214TIP3    H146133   2.695   2.212  14.645  0.1025 -0.3970 -0.5914
 8214TIP3    H246134   2.620   2.259  14.768  1.4534 -0.8776  0.4303
 8215TIP3   OH246135   2.194   2.110  16.005  0.3398  0.8005  0.7622
 8215TIP3    H146136   2.289   2.108  16.017  0.4992  0.2651 -0.4813
 8215TIP3    H246137   2.177   2.040  15.942 -0.8165  1.2998  0.5110
 8216TIP3   OH246138   3.153   3.819  14.168  0.4685 -0.2004  0.7998
 8216TIP3    H146139   3.206   3.785  14.241 -0.7228  0.2255  1.8788
 8216TIP3    H246140   3.119   3.903  14.200  0.4684  0.3057 -0.4997
 8217TIP3   OH246141   0.517   4.380   5.340  0.2270 -0.4990 -0.5006
 8217TIP3    H146142   0.487   4.437   5.410  0.1858 -1.6272  0.4250
 8217TIP3    H246143   0.437   4.348   5.298  0.2123 -0.7276 -0.3045
 8218TIP3   OH246144   0.719   2.624  15.334 -0.2943 -0.0667  0.3134
 8218TIP3    H146145   0.705   2.705  15.383  0.8485  0.1577  0.2712
 8218TIP3    H246146   0.735   2.558  15.402 -0.0851 -0.0288  0.3007
 8219TIP3   OH246147   6.675   3.644  13.292 -0.0091 -0.4497 -0.5987
 8219TIP3    H146148   6.670   3.551  13.314  0.6346 -0.2039  0.6675
 8219TIP3    H246149   6.717   3.684  13.368  1.4259  0.6087 -1.9187
 8220TIP3   OH246150   5.857   2.476  14.468  0.1069 -0.5562 -0.3085
 8220TIP3    H146151   5.825   2.554  14.513 -0.3846 -1.3094  0.6840
 8220TIP3    H246152   5.946   2.497  14.442  0.4757 -0.1719  1.2343
 8221TIP3   OH246153   5.935   4.678   0.556 -0.4646 -0.1866 -0.1836
 8221TIP3    H146154   5.910   4.586   0.564 -0.3367 -0.2639 -0.6535
 8221TIP3    H246155   5.992   4.694   0.631 -0.3893 -0.5236 -0.1676
 8222TIP3   OH246156   4.247   4.879   1.337 -0.2302 -0.4574 -0.6286
 8222TIP3    H146157   4.176   4.944   1.332 -1.0333 -1.3765 -1.4160
 8222TIP3    H246158   4.227   4.828   1.415  0.0637 -0.1492 -0.3506
 8223TIP3   OH246159   1.685   5.702  13.951  0.6346  0.3074 -0.2791
 8223TIP3    H146160   1.767   5.652  13.947  0.5766  0.1501  0.4982
 8223TIP3    H246161   1.617   5.637  13.933  0.6934  0.4860 -1.1714
 8224TIP3   OH246162   0.750   3.463   3.380  0.3842 -0.4248  0.2107
 8224TIP3    H146163   0.775   3.372   3.367  1.1911 -0.1108 -0.5109
 8224TIP3    H246164   0.825   3.514   3.347  1.0853  0.4881  3.0802
 8225TIP3   OH246165   1.693   1.587   1.194 -0.3502  0.1101  0.2781
 8225TIP3    H146166   1.677   1.507   1.143 -1.9486 -0.4304  1.5592
 8225TIP3    H246167   1.749   1.558   1.267 -1.0663  0.1170  0.8352
 8226TIP3   OH246168   1.931   0.265  14.682 -0.0736 -0.1138  0.3333
 8226TIP3    H146169   1.937   0.169  14.676  1.2418 -0.0836  1.0067
 8226TIP3    H246170   1.870   0.289  14.612 -0.5163 -1.4546  0.2359
 8227TIP3   OH246171   3.515   1.039  16.962  0.1437 -0.0463  0.0143
 8227TIP3    H146172   3.533   0.988  17.041 -0.5334  1.0598  0.8950
 8227TIP3    H246173   3.420   1.051  16.962  0.4111  2.3267  0.5470
 8228TIP3   OH246174   2.030   0.114  14.945 -0.5999 -0.0482  0.1703
 8228TIP3    H146175   2.033   0.090  14.852  1.4406  2.9573 -0.6339
 8228TIP3    H246176   2.067   0.039  14.991  1.9425 -0.1238 -1.8525
 8229TIP3   OH246177   5.755   4.325   2.208 -0.5721  0.4850  0.9144
 8229TIP3    H146178   5.678   4.284   2.170  0.1262  1.2309 -1.3397
 8229TIP3    H246179   5.808   4.252   2.241 -0.4749 -0.2997 -0.9190
 8230TIP3   OH246180   1.712   4.944  15.084  0.3821 -0.5496 -0.2260
 8230TIP3    H146181   1.740   4.863  15.126 -0.2793 -0.5551  0.2087
 8230TIP3    H246182   1.618   4.949  15.102  0.6295  0.8664  0.6626
 8231TIP3   OH246183   1.233   3.175   0.867  0.1898 -0.4908 -0.5596
 8231TIP3    H146184   1.200   3.264   0.869 -0.1577 -0.6055 -1.2331
 8231TIP3    H246185   1.307   3.178   0.806  1.0327 -0.3733  0.4499
 8232TIP3   OH246186   2.577   5.867  17.113 -0.3841 -0.4578  0.5369
 8232TIP3    H146187   2.547   5.882  17.023 -0.1064  3.1196  0.9632
 8232TIP3    H246188   2.593   5.773  17.118  1.3623 -0.4925 -3.7318
 8233TIP3   OH246189   3.862   4.372   0.060  0.2703  0.6486  0.2530
 8233TIP3    H146190   3.780   4.419   0.044  0.6335  2.1141  2.4257
 8233TIP3    H246191   3.841   4.309   0.129  0.7183  0.2286  0.0154
 8234TIP3   OH246192   3.694   2.811   0.880 -0.0631  0.2989  0.3120
 8234TIP3    H146193   3.662   2.750   0.814  1.5961  0.4848 -0.6834
 8234TIP3    H246194   3.747   2.874   0.832 -0.2319  1.4497  1.5887
 8235TIP3   OH246195   2.583   1.190   1.919  0.3086 -0.1203 -0.6972
 8235TIP3    H146196   2.526   1.125   1.879  0.1264 -0.5068  0.1718
 8235TIP3    H246197   2.619   1.239   1.846  1.1188 -1.7693 -1.4289
 8236TIP3   OH246198   3.527   2.592   6.396 -0.1961  0.6488 -0.1161
 8236TIP3    H146199   3.495   2.538   6.469  0.5661 -1.4160 -1.2936
 8236TIP3    H246200   3.564   2.670   6.439 -0.7590 -0.0223  1.6323
 8237TIP3   OH246201   6.737   4.773  12.716  0.0876 -0.0130  0.2232
 8237TIP3    H146202   6.779   4.787  12.801  0.2739  0.2845  0.0827
 8237TIP3    H246203   6.682   4.850  12.703 -0.0714 -0.1378  0.1523
 8238TIP3   OH246204   1.339   3.936   1.827 -0.1650  0.2869 -0.2209
 8238TIP3    H146205   1.373   4.025   1.819 -0.8927  0.4619 -1.3539
 8238TIP3    H246206   1.308   3.914   1.740  2.1027 -1.9270 -0.5264
 8239TIP3   OH246207   5.276   5.579  16.436 -0.5768 -0.0124 -0.1927
 8239TIP3    H146208   5.362   5.620  16.442  0.0301 -1.2751 -0.3224
 8239TIP3    H246209   5.272   5.544  16.347 -2.3729  2.5622 -1.2113
 8240TIP3   OH246210   4.234   2.716  15.096  0.4185 -0.1362 -0.1398
 8240TIP3    H146211   4.204   2.784  15.158  1.9580  0.3416  0.1042
 8240TIP3    H246212   4.288   2.764  15.033 -0.6258 -0.7295 -1.4953
 8241TIP3   OH246213   2.688   1.527  15.512 -0.0226 -0.4568 -0.2088
 8241TIP3    H146214   2.596   1.500  15.504 -0.7751  1.6533  0.9717
 8241TIP3    H246215   2.705   1.527  15.607  0.1281  2.4621 -0.1806
 8242TIP3   OH246216   3.590   5.460  15.734 -0.0511 -0.4930  0.2919
 8242TIP3    H146217   3.556   5.473  15.645 -0.6439 -1.6757  0.3403
 8242TIP3    H246218   3.578   5.545  15.777  1.5928  0.5311 -1.1967
 8243TIP3   OH246219   6.659   2.158  13.882  0.5931  0.4557  0.7339
 8243TIP3    H146220   6.582   2.213  13.869 -0.1619 -0.3863  1.5578
 8243TIP3    H246221   6.661   2.101  13.805  0.2468  0.3119  0.8318
 8244TIP3   OH246222   0.726   2.694  17.067  0.2691 -0.4922 -0.7609
 8244TIP3    H146223   0.721   2.762  17.000  0.8806  0.6707  0.3718
 8244TIP3    H246224   0.798   2.720  17.123  0.0361 -1.6910  0.1158
 8245TIP3   OH246225   3.324   6.702  11.865  0.3368 -0.5998 -0.1165
 8245TIP3    H146226   3.314   6.766  11.936 -1.5906  0.6673 -1.4634
 8245TIP3    H246227   3.324   6.617  11.908  1.0004  0.2429  1.5555
 8246TIP3   OH246228   1.091   6.679   2.051  0.1319  0.3642  0.1156
 8246TIP3    H146229   1.153   6.711   1.986  1.2172  0.5832  1.2461
 8246TIP3    H246230   1.127   6.707   2.135 -1.4228  0.3670  0.7966
 8247TIP3   OH246231   3.344   1.622  14.713 -0.3901  0.1133 -0.4682
 8247TIP3    H146232   3.253   1.644  14.691  0.3253  2.5090 -1.1418
 8247TIP3    H246233   3.336   1.551  14.778 -2.6879 -1.0139 -1.9035
 8248TIP3   OH246234   3.095   6.346  11.061  0.3852  0.3373  0.9106
 8248TIP3    H146235   3.049   6.275  11.106 -0.5189  0.8922  0.8625
 8248TIP3    H246236   3.058   6.346  10.973  0.8290  0.4663  0.7207
 8249TIP3   OH246237   3.468   0.957   5.540 -0.5311  0.1109 -0.1780
 8249TIP3    H146238   3.525   0.905   5.483 -1.2753 -1.0937  0.1589
 8249TIP3    H246239   3.510   1.043   5.544  0.2132 -0.1799 -1.5041
 8250TIP3   OH246240   6.234   2.259   0.128 -0.0096  0.0005 -0.0318
 8250TIP3    H146241   6.301   2.204   0.168  0.2910 -0.4532 -1.1185
 8250TIP3    H246242   6.282   2.335   0.095 -0.3791  0.7783  1.1917
 8251TIP3   OH246243   4.528   0.163   6.123 -0.7798  0.0915 -0.0790
 8251TIP3    H146244   4.577   0.204   6.051 -0.9024 -0.3536 -0.4193
 8251TIP3    H246245   4.550   0.070   6.117 -0.1803  0.1656  0.9452
 8252TIP3   OH246246   1.474   3.537  12.416 -0.0180  0.4147  0.3218
 8252TIP3    H146247   1.400   3.487  12.450  0.5441 -0.4450  0.3038
 8252TIP3    H246248   1.459   3.627  12.447 -0.8131  0.1509  0.7142
 8253TIP3   OH246249   6.221   3.121   0.705  0.1027 -0.5795  0.4993
 8253TIP3    H146250   6.151   3.096   0.766 -1.5006  0.5128 -0.8348
 8253TIP3    H246251   6.300   3.124   0.759 -1.4122  1.0825  2.7214
 8254TIP3   OH246252   4.465   3.650  11.580 -0.2685 -0.0012 -0.5013
 8254TIP3    H146253   4.557   3.665  11.602  0.0369 -0.8975 -1.1424
 8254TIP3    H246254   4.416   3.697  11.647  0.6385 -1.9549  1.5793
 8255TIP3   OH246255   3.080   3.400   3.108 -0.3404  0.1459  0.4246
 8255TIP3    H146256   3.149   3.466   3.117  1.0616 -0.9865 -1.6497
 8255TIP3    H246257   3.023   3.433   3.039  1.2934 -1.5173 -1.8059
 8256TIP3   OH246258   0.405   2.532  15.558  0.0648  0.0198 -0.3582
 8256TIP3    H146259   0.353   2.572  15.489 -1.1453  0.7752  0.9735
 8256TIP3    H246260   0.365   2.446  15.571 -1.0579  0.6928  0.8318
 8257TIP3   OH246261   0.038   2.367   2.101  0.2899 -0.7657 -0.1011
 8257TIP3    H146262  -0.037   2.345   2.046 -0.3871  1.1276  0.0290
 8257TIP3    H246263   0.111   2.377   2.039  0.8034 -4.0242 -0.0873
 8258TIP3   OH246264   1.184   5.258   0.157  0.7874 -0.6372 -0.7236
 8258TIP3    H146265   1.109   5.200   0.142 -0.4966  1.3336 -2.2792
 8258TIP3    H246266   1.158   5.311   0.232 -0.4702  1.6612 -2.6970
 8259TIP3   OH246267   2.796   5.661  12.889 -0.1423 -0.0180  0.3303
 8259TIP3    H146268   2.837   5.575  12.880 -0.2634 -0.0858  0.4216
 8259TIP3    H246269   2.852   5.708  12.951 -0.2704 -0.1534  0.5490
 8260TIP3   OH246270   2.605   5.728   5.711  0.2417 -0.2658  0.0928
 8260TIP3    H146271   2.575   5.671   5.782 -1.3331 -0.4937 -0.7383
 8260TIP3    H246272   2.527   5.774   5.682  1.0173  0.4008 -0.9844
 8261TIP3   OH246273   3.043   1.003   6.321 -0.2157  0.6224 -0.2255
 8261TIP3    H146274   2.959   0.971   6.289 -0.1264  2.1837 -2.1371
 8261TIP3    H246275   3.074   0.935   6.381 -2.0178 -0.7696 -0.8306
 8262TIP3   OH246276   3.829   6.693   3.372  0.3942  0.4469  0.3137
 8262TIP3    H146277   3.784   6.663   3.293  0.0089  1.5200  0.1213
 8262TIP3    H246278   3.803   6.630   3.440  0.4168 -0.2494 -0.3180
 8263TIP3   OH246279   2.857   0.313  16.130  0.1132 -0.4056 -0.5438
 8263TIP3    H146280   2.778   0.264  16.154  0.3501 -0.0736  0.9245
 8263TIP3    H246281   2.923   0.245  16.115 -0.5247 -0.7086 -2.1740
 8264TIP3   OH246282   6.554   1.360  16.749  0.3164 -0.8555 -0.0553
 8264TIP3    H146283   6.488   1.339  16.682  1.6674 -2.2602 -0.9827
 8264TIP3    H246284   6.514   1.334  16.831 -0.8616 -0.3079 -0.4341
 8265TIP3   OH246285   6.183   2.105   0.798  0.5479 -0.5615 -0.5260
 8265TIP3    H146286   6.211   2.033   0.741 -0.0897 -1.3171  0.0986
 8265TIP3    H246287   6.264   2.147   0.825  0.9157 -0.9013 -1.0962
 8266TIP3   OH246288   3.316   6.289  15.997 -0.1682  0.0721  0.3093
 8266TIP3    H146289   3.363   6.274  15.914 -0.5198  1.3027 -0.1137
 8266TIP3    H246290   3.301   6.201  16.031  2.2676 -0.3803  0.3460
 8267TIP3   OH246291   6.564   1.118   5.950 -0.4519 -0.3458  0.1758
 8267TIP3    H146292   6.497   1.144   6.013 -1.3124  0.5116 -1.0674
 8267TIP3    H246293   6.618   1.197   5.939 -1.4515  0.1247 -1.5728
 8268TIP3   OH246294   1.187   4.448   0.658  0.4228 -0.2885  0.2196
 8268TIP3    H146295   1.154   4.429   0.746  1.2992 -2.0405  0.1797
 8268TIP3    H246296   1.282   4.454   0.669  0.6424 -1.7455 -0.8193
 8269TIP3   OH246297   2.483   0.802   3.512 -0.3662 -0.2512 -0.3289
 8269TIP3    H146298   2.420   0.815   3.582  0.2484  0.0403  0.1781
 8269TIP3    H246299   2.549   0.869   3.527  1.0929 -1.7860  0.3384
 8270TIP3   OH246300   5.639   4.120   4.293  0.3151  0.4387  0.0598
 8270TIP3    H146301   5.685   4.146   4.213 -0.7619  0.6527 -0.4984
 8270TIP3    H246302   5.707   4.084   4.349  1.3084  1.5650 -0.4114
 8271TIP3   OH246303   0.874   5.827  14.974  0.1232  0.2692  0.3393
 8271TIP3    H146304   0.869   5.772  15.052  0.1174  1.2405  1.0401
 8271TIP3    H246305   0.937   5.783  14.917 -1.8401 -1.8196 -0.2449
 8272TIP3   OH246306   1.271   0.348   1.670  0.5268  0.5151  0.5066
 8272TIP3    H146307   1.272   0.442   1.688 -0.9388  0.8990 -1.2056
 8272TIP3    H246308   1.214   0.340   1.594  0.0478 -1.8549  1.0963
 8273TIP3   OH246309   1.361   2.148   1.460 -0.1703  0.3071  0.4653
 8273TIP3    H146310   1.284   2.179   1.508 -0.2319  1.2943 -0.2823
 8273TIP3    H246311   1.387   2.221   1.404  1.0484 -0.1741  0.3769
 8274TIP3   OH246312   3.224   3.490  10.857 -0.5330  0.4926  0.4763
 8274TIP3    H146313   3.232   3.448  10.771  2.8366  0.7956  0.5957
 8274TIP3    H246314   3.145   3.544  10.849 -1.1907 -0.7201 -1.8880
 8275TIP3   OH246315   3.408   5.489   3.655 -0.3719  0.3102  0.1879
 8275TIP3    H146316   3.406   5.512   3.563 -0.8060 -0.1050  0.0929
 8275TIP3    H246317   3.486   5.533   3.689  1.4308 -1.8505 -0.9972
 8276TIP3   OH246318   3.309   2.165   3.935  0.1599  0.0882  0.1878
 8276TIP3    H146319   3.241   2.198   3.877  1.5717 -0.2292 -1.7214
 8276TIP3    H246320   3.334   2.081   3.897  1.4113  0.0612  1.0299
 8277TIP3   OH246321   5.294   0.236  16.702  0.1293 -0.2162 -0.1620
 8277TIP3    H146322   5.387   0.252  16.686  0.3785  0.3362  1.7406
 8277TIP3    H246323   5.292   0.172  16.773 -0.9466 -1.7419 -1.5299
 8278TIP3   OH246324   6.648   5.907   2.696 -0.6535 -0.0538  0.9089
 8278TIP3    H146325   6.559   5.942   2.705 -2.0382 -3.1308 -0.2491
 8278TIP3    H246326   6.673   5.882   2.785 -1.2709  0.0959  1.1272
 8279TIP3   OH246327   2.341   4.234   5.071 -0.0871 -0.1666  0.0790
 8279TIP3    H146328   2.435   4.238   5.052  0.0400 -1.5008  0.3800
 8279TIP3    H246329   2.302   4.194   4.993  0.1196 -3.3094  1.5032
 8280TIP3   OH246330   6.148   6.777  14.899  0.6432  0.1525 -0.0080
 8280TIP3    H146331   6.088   6.731  14.959 -0.9548  2.1523  0.0114
 8280TIP3    H246332   6.154   6.866  14.935  1.2893  0.8047 -1.6662
 8281TIP3   OH246333   1.881   5.134  15.625  0.4419  0.4695  0.0710
 8281TIP3    H146334   1.829   5.203  15.584  0.7350  0.4808 -0.2773
 8281TIP3    H246335   1.926   5.178  15.698  1.5665  0.9213 -0.8784
 8282TIP3   OH246336   3.012   5.175   2.595 -0.1784  0.0829 -0.3350
 8282TIP3    H146337   2.931   5.129   2.616  0.7462 -0.6933  1.6948
 8282TIP3    H246338   3.071   5.153   2.667  0.5914  3.8000  0.2712
 8283TIP3   OH246339   0.769   1.407  10.756 -0.2957 -0.5643  0.1967
 8283TIP3    H146340   0.749   1.336  10.695  1.9885 -1.1733  0.1016
 8283TIP3    H246341   0.816   1.472  10.703 -1.5000  0.5844  0.5090
 8284TIP3   OH246342   1.152   6.415   2.358 -0.6229  0.3491  0.3221
 8284TIP3    H146343   1.240   6.399   2.392 -0.5218 -0.0921 -0.1607
 8284TIP3    H246344   1.149   6.510   2.346 -0.7238  0.5440  1.7542
 8285TIP3   OH246345   2.351   2.831   4.217  0.0454  0.2584  0.3144
 8285TIP3    H146346   2.372   2.808   4.127  1.7971  1.3104  0.4252
 8285TIP3    H246347   2.345   2.747   4.263  2.5908 -0.1460 -0.0577
 8286TIP3   OH246348   6.388   2.604  15.298  0.0499 -0.1278 -0.2492
 8286TIP3    H146349   6.376   2.540  15.367 -1.7522 -0.3305 -0.7440
 8286TIP3    H246350   6.480   2.594  15.272 -0.1611 -2.3798 -0.2010
 8287TIP3   OH246351   5.618   2.830  15.620 -0.0001  0.5749  0.0769
 8287TIP3    H146352   5.537   2.879  15.606  0.7702  1.1885 -2.6596
 8287TIP3    H246353   5.687   2.892  15.596  1.3352  0.1397  2.5969
 8288TIP3   OH246354   6.111   4.408   5.199  0.2209 -0.6392  0.0140
 8288TIP3    H146355   6.190   4.442   5.157 -0.9260 -0.7928 -2.3932
 8288TIP3    H246356   6.088   4.473   5.265  1.4882  0.1758 -0.3379
 8289TIP3   OH246357   2.186   2.825  12.873 -0.3491 -0.4350 -0.0838
 8289TIP3    H146358   2.179   2.799  12.781  0.0619 -1.5271  0.1836
 8289TIP3    H246359   2.157   2.748  12.922  1.6124 -0.6720  0.7590
 8290TIP3   OH246360   6.814   4.765   0.683 -0.1308  0.2096  0.0699
 8290TIP3    H146361   6.846   4.855   0.676 -0.9127  0.4044 -0.9956
 8290TIP3    H246362   6.888   4.717   0.720  0.6195  1.0944 -0.2521
 8291TIP3   OH246363   4.974   4.683  14.848 -0.1436 -0.1547 -0.2133
 8291TIP3    H146364   4.985   4.708  14.940  0.3684 -1.6417  0.1467
 8291TIP3    H246365   5.044   4.619  14.832 -0.0730  0.2786 -1.7135
 8292TIP3   OH246366   3.308   1.965  16.586  0.1033  0.0082 -0.0218
 8292TIP3    H146367   3.376   1.925  16.533  0.6164 -1.1171  1.4583
 8292TIP3    H246368   3.282   2.044  16.537  0.9700 -0.6818 -1.6143
 8293TIP3   OH246369   6.505   5.647   4.253  0.5023  0.1359 -0.2572
 8293TIP3    H146370   6.511   5.578   4.319  0.3668  0.9438  0.6100
 8293TIP3    H246371   6.501   5.728   4.303  2.8617  0.9480 -1.3290
 8294TIP3   OH246372   5.542   3.782  15.614 -0.1548  0.6521  0.6090
 8294TIP3    H146373   5.511   3.779  15.705  0.9145  0.0092  0.9678
 8294TIP3    H246374   5.495   3.856  15.575  0.9552  2.2735  2.2643
 8295TIP3   OH246375   3.279   5.695  13.549 -0.3388  0.8040 -0.1458
 8295TIP3    H146376   3.272   5.601  13.538  0.2279  0.6007  1.1605
 8295TIP3    H246377   3.190   5.728  13.536 -0.5604  0.0866 -0.4550
 8296TIP3   OH246378   3.709   2.879  10.039 -0.6921  0.4311 -0.7713
 8296TIP3    H146379   3.634   2.936  10.023  1.1653  2.6650 -1.9227
 8296TIP3    H246380   3.745   2.909  10.122 -0.5013  0.0040 -0.6962
 8297TIP3   OH246381   0.552   2.245  15.277 -0.1349 -0.3179 -0.3543
 8297TIP3    H146382   0.463   2.222  15.304 -0.0096  0.7610  1.0818
 8297TIP3    H246383   0.604   2.166  15.295 -0.3452 -0.1169  1.2218
 8298TIP3   OH246384   4.984   0.990  16.354  0.0746  0.3195  0.4003
 8298TIP3    H146385   5.071   0.953  16.341  0.5174  0.1279  3.5860
 8298TIP3    H246386   4.995   1.084  16.342  1.1238  0.4910  2.4946
 8299TIP3   OH246387   4.702   6.042  14.165  0.2243 -0.0528  0.6321
 8299TIP3    H146388   4.766   6.093  14.214  0.5035 -0.1610  0.3836
 8299TIP3    H246389   4.739   6.036  14.077 -0.0287 -0.2897  0.5417
 8300TIP3   OH246390   3.376   1.724  12.649  0.3416 -0.0506  0.2731
 8300TIP3    H146391   3.394   1.799  12.706  0.9239 -0.8824  1.1822
 8300TIP3    H246392   3.412   1.750  12.564  0.9542  0.5202  0.7046
 8301TIP3   OH246393   5.003   5.348   3.360  0.7047 -0.0775  0.3383
 8301TIP3    H146394   5.010   5.432   3.406  1.3323  0.5331 -0.8586
 8301TIP3    H246395   4.989   5.284   3.430 -0.0602  1.0500  1.2374
 8302TIP3   OH246396   5.017   6.513  16.138  0.2489 -0.0211  0.4576
 8302TIP3    H146397   4.932   6.475  16.159  0.6479 -1.0035  0.3794
 8302TIP3    H246398   5.003   6.559  16.055 -0.8644  2.2249  1.8759
 8303TIP3   OH246399   0.474   0.752  15.162 -0.4559 -0.4427  0.0705
 8303TIP3    H146400   0.570   0.746  15.170 -0.5287 -1.0473  0.6000
 8303TIP3    H246401   0.459   0.774  15.071  0.1912 -0.4459 -0.0432
 8304TIP3   OH246402   2.150   3.466  14.501 -0.2125 -0.1790 -0.3265
 8304TIP3    H146403   2.099   3.513  14.567  1.2433  0.3890  0.4191
 8304TIP3    H246404   2.167   3.380  14.540  0.9126  0.2660  0.1895
 8305TIP3   OH246405   2.661   3.694   0.994 -0.1186 -0.2144 -0.1465
 8305TIP3    H146406   2.752   3.702   1.021  0.2910 -0.8114 -1.3028
 8305TIP3    H246407   2.611   3.695   1.076  0.7862  1.9006  0.3952
 8306TIP3   OH246408   2.281   6.400   3.984  0.0909 -0.1489  0.0584
 8306TIP3    H146409   2.234   6.372   4.062 -0.5369 -0.3170 -0.3734
 8306TIP3    H246410   2.213   6.429   3.924  0.3529 -2.3027 -1.3509
 8307TIP3   OH246411   5.789   3.185  14.531 -0.3191  0.3192  0.2204
 8307TIP3    H146412   5.722   3.251  14.512 -0.5524  0.6821  2.2067
 8307TIP3    H246413   5.743   3.118  14.581  0.3169 -0.5213 -0.3097
 8308TIP3   OH246414   4.358   4.104   6.512 -0.8764 -0.4602  0.3795
 8308TIP3    H146415   4.378   4.082   6.421 -1.0893 -0.2597  0.2842
 8308TIP3    H246416   4.273   4.064   6.529 -0.5982 -0.9458  0.6551
 8309TIP3   OH246417   3.994   2.091  16.415 -0.6615  0.0291 -0.2139
 8309TIP3    H146418   4.011   2.186  16.416 -0.9590  0.1894 -3.3434
 8309TIP3    H246419   4.077   2.051  16.439 -0.1230  1.0729 -0.3013
 8310TIP3   OH246420   6.773   1.215   1.919 -0.3854 -0.2152 -0.0923
 8310TIP3    H146421   6.852   1.266   1.937 -0.8226  0.6472 -0.5875
 8310TIP3    H246422   6.702   1.280   1.921 -0.7987 -0.5805 -1.9669
 8311TIP3   OH246423   3.953   0.907   4.675 -0.1151  0.0702  0.0108
 8311TIP3    H146424   3.953   0.906   4.771 -0.5421 -0.7649 -0.0001
 8311TIP3    H246425   4.044   0.889   4.651  0.1347  0.9339  0.2565
 8312TIP3   OH246426   6.681   0.424  16.399  0.1677 -0.9263  0.5443
 8312TIP3    H146427   6.745   0.354  16.413  0.5532 -0.6852 -0.0407
 8312TIP3    H246428   6.628   0.423  16.479  1.0978 -0.9041  1.1680
 8313TIP3   OH246429   3.719   5.799   5.164 -0.0639  0.6097 -0.5290
 8313TIP3    H146430   3.670   5.717   5.153  1.7725 -0.4020 -1.2966
 8313TIP3    H246431   3.768   5.808   5.083 -1.0045  3.0129 -0.8606
 8314TIP3   OH246432   6.374   0.880  12.001 -0.0463 -0.1072  0.3644
 8314TIP3    H146433   6.450   0.834  12.036 -1.1704 -1.0955  1.5175
 8314TIP3    H246434   6.303   0.816  12.003 -0.9942  0.8981 -0.4229
 8315TIP3   OH246435   5.486   3.824   0.885  0.0698  0.3166  0.1781
 8315TIP3    H146436   5.582   3.829   0.888 -0.0069  2.2428 -0.0588
 8315TIP3    H246437   5.461   3.877   0.810 -1.1251 -1.3484 -0.6168
 8316TIP3   OH246438   4.060   5.736  13.549  0.3591  0.0760 -0.2464
 8316TIP3    H146439   4.107   5.697  13.623 -0.4597 -0.1791  0.1377
 8316TIP3    H246440   3.975   5.692  13.548  0.4303 -0.0528 -1.4533
 8317TIP3   OH246441   0.091   2.053   4.360 -0.1508 -0.6047 -0.1280
 8317TIP3    H146442   0.104   2.128   4.302 -2.7296 -0.8401 -1.0894
 8317TIP3    H246443   0.126   2.081   4.445  1.6591  0.5519 -1.2381
 8318TIP3   OH246444   2.730   5.467   2.646  0.0662 -0.4431 -0.4851
 8318TIP3    H146445   2.770   5.467   2.733  2.0504 -2.5724 -1.3232
 8318TIP3    H246446   2.769   5.542   2.602  0.7336 -0.6330 -0.2343
 8319TIP3   OH246447   4.426   6.430  13.454  0.1887 -0.4575 -0.0598
 8319TIP3    H146448   4.421   6.343  13.414  0.0195  0.0047 -1.0745
 8319TIP3    H246449   4.340   6.444  13.493 -1.2290  0.8634 -3.4054
 8320TIP3   OH246450   6.522   2.038   4.817 -0.0270  0.2061 -0.2140
 8320TIP3    H146451   6.565   1.965   4.772 -0.0920 -0.5328  0.9121
 8320TIP3    H246452   6.430   2.011   4.821  0.1896 -0.3156  1.4912
 8321TIP3   OH246453   3.566   3.034   6.133 -0.0824 -0.1876  0.3552
 8321TIP3    H146454   3.486   2.982   6.128  0.1190 -0.4666  0.0355
 8321TIP3    H246455   3.542   3.119   6.095  0.1197 -0.6971 -0.9208
 8322TIP3   OH246456   1.146   3.538  12.253 -0.2511 -0.0298  0.1035
 8322TIP3    H146457   1.182   3.495  12.175  0.0141 -0.5546  0.5155
 8322TIP3    H246458   1.078   3.596  12.218  0.9303  0.9155 -0.6677
 8323TIP3   OH246459   2.695   3.489  11.984 -0.0663 -0.6598  0.2520
 8323TIP3    H146460   2.746   3.423  12.032 -0.4321 -1.2917 -0.2203
 8323TIP3    H246461   2.733   3.488  11.896 -0.4169 -0.6114  0.1013
 8324TIP3   OH246462   3.336   5.093  12.173  0.2872  0.0361 -0.1812
 8324TIP3    H146463   3.242   5.105  12.186  0.4409  0.1181  0.9594
 8324TIP3    H246464   3.359   5.154  12.103 -0.7526 -1.0034 -1.4468
 8325TIP3   OH246465   6.109   5.266   1.150  0.1550  0.1657 -0.5566
 8325TIP3    H146466   6.129   5.190   1.204  0.7073  0.7559  0.0816
 8325TIP3    H246467   6.103   5.232   1.061  0.0912 -0.6698 -0.2395
 8326TIP3   OH246468   6.192   4.812   1.458  0.1117  0.2714  0.3047
 8326TIP3    H146469   6.260   4.869   1.421  0.1277  0.5770  0.7976
 8326TIP3    H246470   6.239   4.745   1.506  0.0340  2.1176  3.0487
 8327TIP3   OH246471   5.096   5.691  16.932 -0.3131  0.0058  0.0183
 8327TIP3    H146472   5.103   5.606  16.889 -1.6126  0.7376 -1.6935
 8327TIP3    H246473   5.010   5.690  16.974 -0.0031  0.1753  0.6601
 8328TIP3   OH246474   4.638   2.709   0.885 -0.1804  0.6015 -0.2714
 8328TIP3    H146475   4.711   2.696   0.824  0.7425  0.7744  0.7776
 8328TIP3    H246476   4.675   2.690   0.971 -1.5442  0.0593  0.2154
 8329TIP3   OH246477   5.113   2.236  13.646 -0.3087  0.1163  0.2539
 8329TIP3    H146478   5.181   2.254  13.711  1.0501 -2.9932 -0.2417
 8329TIP3    H246479   5.077   2.151  13.670 -3.4381  1.2750 -0.0519
 8330TIP3   OH246480   0.537   2.962  10.957  0.5116 -0.0595 -0.2269
 8330TIP3    H146481   0.578   2.947  10.872 -1.0351 -0.3154 -0.9520
 8330TIP3    H246482   0.598   2.926  11.020  2.0471  0.8272 -1.1734
 8331TIP3   OH246483   5.906   5.279  13.381 -0.0373  0.5909 -0.0370
 8331TIP3    H146484   5.854   5.352  13.414 -0.9865 -1.1380  2.4975
 8331TIP3    H246485   5.981   5.274  13.440 -0.4428 -1.0202  0.3630
 8332TIP3   OH246486   5.349   6.148   3.352  0.2257 -0.5228  0.1819
 8332TIP3    H146487   5.414   6.186   3.412 -0.0575  1.2412 -0.6161
 8332TIP3    H246488   5.401   6.118   3.278  0.2757 -0.2478  0.1034
 8333TIP3   OH246489   2.353   4.619  16.052 -0.4039 -0.8770 -0.3268
 8333TIP3    H146490   2.275   4.572  16.081  0.0100 -2.4974 -1.7440
 8333TIP3    H246491   2.424   4.582  16.106 -0.4856  0.0180  0.3986
 8334TIP3   OH246492   4.809   2.071   4.737 -0.1875  0.1957  0.0175
 8334TIP3    H146493   4.832   2.054   4.829 -0.5539 -2.7202 -0.3890
 8334TIP3    H246494   4.879   2.127   4.705 -0.6871  2.2849  2.3880
 8335TIP3   OH246495   6.508   4.293   2.423  0.2103  0.1297  0.0167
 8335TIP3    H146496   6.456   4.230   2.373 -0.5445  2.2979 -2.0161
 8335TIP3    H246497   6.584   4.310   2.368  0.2200  1.2853  0.3836
 8336TIP3   OH246498   4.571   3.778  10.899  0.4015  0.6222 -0.0180
 8336TIP3    H146499   4.659   3.807  10.920  0.7826  0.3726 -1.2056
 8336TIP3    H246500   4.564   3.791  10.804 -0.9731  1.0085  0.1267
 8337TIP3   OH246501   0.144   3.541  16.706  0.3756 -0.3353  0.2167
 8337TIP3    H146502   0.224   3.510  16.664  2.2529  1.6465  2.1976
 8337TIP3    H246503   0.167   3.628  16.740 -2.7490  0.4579  0.4623
 8338TIP3   OH246504   4.757   5.616   0.808  0.1864 -0.0140  0.4125
 8338TIP3    H146505   4.763   5.554   0.736 -0.9245  0.4297 -0.0715
 8338TIP3    H246506   4.751   5.702   0.766  1.7283  0.4376  1.0774
 8339TIP3   OH246507   3.716   0.806   1.707 -0.0980  0.3642  0.3967
 8339TIP3    H146508   3.764   0.781   1.785  1.9195  0.8283 -0.6629
 8339TIP3    H246509   3.696   0.723   1.663 -0.6248  0.1499  1.0270
 8340TIP3   OH246510   0.347   4.917   3.177  0.0490  0.1523  0.0246
 8340TIP3    H146511   0.436   4.884   3.164 -0.1012 -0.5950  0.8455
 8340TIP3    H246512   0.345   5.000   3.130  1.7002  1.0190  1.4396
 8341TIP3   OH246513   1.752   3.464   6.136 -0.5252  0.0731  0.2667
 8341TIP3    H146514   1.784   3.377   6.160 -1.4342 -0.3603 -0.0728
 8341TIP3    H246515   1.747   3.512   6.219  2.2918  0.6024  0.1846
 8342TIP3   OH246516   0.410   6.710   2.546  0.1531 -0.5549  0.0564
 8342TIP3    H146517   0.343   6.695   2.613  0.6353 -0.8188  0.4836
 8342TIP3    H246518   0.481   6.754   2.594  0.2792 -0.2586 -0.3984
 8343TIP3   OH246519   6.775   6.241  13.193  0.4428  0.3980 -0.0543
 8343TIP3    H146520   6.700   6.277  13.239  0.6275  2.4906 -1.3098
 8343TIP3    H246521   6.775   6.148  13.215 -1.3616  0.7455  1.5067
 8344TIP3   OH246522   6.461   2.873   4.784 -0.0581 -0.6778 -0.4587
 8344TIP3    H146523   6.556   2.858   4.786  0.3815  1.9043  3.7327
 8344TIP3    H246524   6.452   2.966   4.763 -1.7035 -1.0049 -1.2436
 8345TIP3   OH246525   5.134   3.700   3.139 -0.1991  0.0491 -0.2153
 8345TIP3    H146526   5.125   3.740   3.225 -0.1721  0.5219 -0.4271
 8345TIP3    H246527   5.202   3.633   3.150  1.4375  1.6259 -0.3746
 8346TIP3   OH246528   6.700   1.445  16.261  0.1666  0.1869 -0.3421
 8346TIP3    H146529   6.720   1.536  16.240 -2.4205  1.2620  1.5712
 8346TIP3    H246530   6.693   1.444  16.357  0.9067 -2.1905 -0.2796
 8347TIP3   OH246531   3.505   1.000   2.146  0.5850 -0.2480 -0.4318
 8347TIP3    H146532   3.470   0.979   2.060  0.0850  1.2928 -0.6298
 8347TIP3    H246533   3.584   1.052   2.128  2.5291 -2.9587  0.0216
 8348TIP3   OH246534   3.467   3.558   0.554  0.2482 -0.3490 -0.4314
 8348TIP3    H146535   3.547   3.539   0.505  1.1452  1.1307  0.4092
 8348TIP3    H246536   3.495   3.566   0.645 -0.7371  0.8154 -0.2100
 8349TIP3   OH246537   5.104   0.685  14.674 -0.2102 -0.0128  0.3828
 8349TIP3    H146538   5.181   0.663  14.621 -0.0443  1.6224 -0.1139
 8349TIP3    H246539   5.030   0.670  14.616 -0.4016 -2.9892  1.3335
 8350TIP3   OH246540   1.774   4.559  13.864  0.1998  0.3582 -0.2423
 8350TIP3    H146541   1.805   4.492  13.924 -0.7937 -1.2999 -1.5362
 8350TIP3    H246542   1.846   4.622  13.859  0.6070  0.0914  2.0132
 8351TIP3   OH246543   4.738   3.124   5.084  0.1364 -0.0617 -0.7889
 8351TIP3    H146544   4.722   3.085   5.170 -1.7812  0.5716 -0.8371
 8351TIP3    H246545   4.804   3.192   5.101 -0.1845  0.0236  0.1552
 8352TIP3   OH246546   6.817   1.692  11.537  0.0323  0.0845  0.5040
 8352TIP3    H146547   6.739   1.709  11.589  2.2956  1.9571  3.4414
 8352TIP3    H246548   6.880   1.656  11.600  2.1909  0.4572 -1.3952
 8353TIP3   OH246549   2.797   5.013   1.787 -0.6450 -0.1961  0.3149
 8353TIP3    H146550   2.864   5.019   1.855 -0.9639 -1.0124  0.7118
 8353TIP3    H246551   2.715   5.034   1.833 -0.6371  1.0522 -0.2217
 8354TIP3   OH246552   2.581   5.767  16.677 -0.7021  0.1906  0.0887
 8354TIP3    H146553   2.493   5.759  16.639 -0.8205  2.5680 -0.1745
 8354TIP3    H246554   2.605   5.859  16.664  2.3587 -0.6892 -1.0130
 8355TIP3   OH246555   3.742   0.992  16.010 -0.3967 -0.5974  0.1459
 8355TIP3    H146556   3.752   1.073  15.960  0.2574 -0.6278  0.2172
 8355TIP3    H246557   3.678   1.013  16.078 -2.9278 -1.1682 -1.9911
 8356TIP3   OH246558   2.210   3.282  15.069  0.3903 -0.0462  0.2813
 8356TIP3    H146559   2.219   3.253  14.979  1.1814 -0.0419  0.3547
 8356TIP3    H246560   2.272   3.355  15.077  0.3656 -0.0819  0.8372
 8357TIP3   OH246561   6.164   1.194  11.133 -0.1016  0.0910 -0.3513
 8357TIP3    H146562   6.243   1.238  11.164 -0.1432  0.3344 -0.5854
 8357TIP3    H246563   6.154   1.223  11.043 -0.1918 -0.3156 -0.4746
 8358TIP3   OH246564   2.534   3.149   3.902 -0.3777  0.7171  0.3776
 8358TIP3    H146565   2.449   3.105   3.904 -0.4757  0.8832 -0.1083
 8358TIP3    H246566   2.538   3.190   3.815  1.3095 -1.5136 -0.6660
 8359TIP3   OH246567   2.281   0.857  12.638 -0.3097  0.1424  0.6181
 8359TIP3    H146568   2.243   0.832  12.554  0.0362 -0.0918  0.5337
 8359TIP3    H246569   2.237   0.939  12.660  0.8127  1.0977 -0.6043
 8360TIP3   OH246570   0.844   6.034  17.274 -0.5742 -0.6266 -0.0516
 8360TIP3    H146571   0.894   5.952  17.267 -0.7249 -0.7407  0.2033
 8360TIP3    H246572   0.775   6.025  17.208  1.6880  0.9275 -2.7417
 8361TIP3   OH246573   5.857   3.719  16.329 -0.6351  0.1981  0.3862
 8361TIP3    H146574   5.844   3.631  16.364  0.3851 -0.2291 -0.2702
 8361TIP3    H246575   5.952   3.727  16.321 -0.8253  0.1669 -2.5300
 8362TIP3   OH246576   6.654   3.138   1.443  0.2337 -0.0698  0.1746
 8362TIP3    H146577   6.708   3.061   1.428  0.0769  0.1912 -1.8454
 8362TIP3    H246578   6.642   3.141   1.538  1.7781 -1.4677  0.4303
 8363TIP3   OH246579   5.450   4.969   2.922  0.6319  0.3080  0.1257
 8363TIP3    H146580   5.495   5.028   2.862  1.3762  1.1381  1.4717
 8363TIP3    H246581   5.487   4.883   2.903  0.0383  0.3717 -1.3704
 8364TIP3   OH246582   2.353   2.619   0.970  0.5824  0.3285 -0.0631
 8364TIP3    H146583   2.274   2.626   0.917  1.8467 -1.4823 -2.2535
 8364TIP3    H246584   2.321   2.615   1.060 -1.7751  0.2316 -0.8711
 8365TIP3   OH246585   6.036   3.666   0.083  0.6929  0.1080 -0.2299
 8365TIP3    H146586   6.054   3.625   0.167 -1.7104 -1.1482 -0.2891
 8365TIP3    H246587   6.083   3.612   0.019  0.6774 -0.2701  0.0776
 8366TIP3   OH246588   6.388   1.072  14.606 -0.6328 -0.1553  0.0694
 8366TIP3    H146589   6.418   1.031  14.687 -0.2953 -0.1424 -0.0487
 8366TIP3    H246590   6.304   1.031  14.588  0.1412 -1.4953 -0.5669
 8367TIP3   OH246591   2.586   1.299  13.235 -0.1718  0.1577  0.2107
 8367TIP3    H146592   2.509   1.293  13.293 -0.1162 -1.0635  0.1682
 8367TIP3    H246593   2.631   1.215  13.246  0.7254  0.5541 -0.3798
 8368TIP3   OH246594   3.157   5.326   3.637  0.0929  0.3061 -0.8578
 8368TIP3    H146595   3.142   5.314   3.544  0.0368  1.7335 -1.0495
 8368TIP3    H246596   3.089   5.388   3.664 -0.4217 -0.7490  0.3062
 8369TIP3   OH246597   4.839   1.799   6.616 -0.0642  0.1049  0.4535
 8369TIP3    H146598   4.903   1.857   6.657  1.0718 -0.8285  0.0436
 8369TIP3    H246599   4.892   1.729   6.577 -1.2201  0.1492 -1.2599
 8370TIP3   OH246600   1.241   3.588  14.478 -0.0162 -0.7724 -0.4540
 8370TIP3    H146601   1.302   3.648  14.522 -0.8108 -0.2516 -0.0592
 8370TIP3    H246602   1.258   3.601  14.385  0.1152 -0.2477 -0.3584
 8371TIP3   OH246603   0.617   1.843  15.689  0.0662  0.0625 -0.3735
 8371TIP3    H146604   0.527   1.867  15.713  0.1476 -0.7899  0.8394
 8371TIP3    H246605   0.669   1.866  15.766  0.8615  0.3060 -0.9757
 8372TIP3   OH246606   3.755   0.709  13.872  0.5434  1.0020 -0.3205
 8372TIP3    H146607   3.684   0.770  13.850  0.2540  0.7195 -0.1784
 8372TIP3    H246608   3.828   0.736  13.818  0.0555  0.7451 -1.1164
 8373TIP3   OH246609   0.221   2.598   0.652 -0.4299 -0.0244 -0.6752
 8373TIP3    H146610   0.251   2.679   0.610 -0.8084 -0.6121 -2.0950
 8373TIP3    H246611   0.131   2.618   0.680 -0.4594  0.1111 -0.8624
 8374TIP3   OH246612   1.718   6.525   5.150 -0.6701 -0.0766  0.0918
 8374TIP3    H146613   1.759   6.491   5.070  0.7343  1.0084  0.3299
 8374TIP3    H246614   1.630   6.488   5.150 -1.1055  0.8623 -2.5929
 8375TIP3   OH246615   3.010   2.174  12.959  0.4585 -0.6485 -0.6188
 8375TIP3    H146616   2.953   2.207  13.028  0.0470 -1.0183 -0.7772
 8375TIP3    H246617   3.092   2.223  12.969 -0.4864  1.1562 -1.4972
 8376TIP3   OH246618   0.644   4.820   5.553  0.1856 -0.2684  0.6988
 8376TIP3    H146619   0.664   4.901   5.601  1.7262 -1.0709  1.4256
 8376TIP3    H246620   0.658   4.750   5.617  0.3485 -1.2102 -0.3563
 8377TIP3   OH246621   2.121   4.057   5.821 -0.1138 -0.3654 -0.3203
 8377TIP3    H146622   2.046   4.058   5.762 -2.0005  0.1140  1.9809
 8377TIP3    H246623   2.130   3.965   5.847 -1.7561 -0.0342  1.5801
 8378TIP3   OH246624   3.153   6.558   0.147  0.3074 -0.1331 -0.3356
 8378TIP3    H146625   3.064   6.533   0.172 -0.9125  1.4930 -2.8470
 8378TIP3    H246626   3.174   6.501   0.073  1.0545 -0.0200 -0.2096
 8379TIP3   OH246627   1.029   4.378   0.916  0.3733  0.4568 -0.3777
 8379TIP3    H146628   0.951   4.387   0.861  0.4532 -2.1738 -0.9858
 8379TIP3    H246629   0.995   4.360   1.003  0.2862  0.7232 -0.3568
 8380TIP3   OH246630   3.813   0.819   1.264 -0.1313  0.3275  0.0589
 8380TIP3    H146631   3.761   0.853   1.192  1.6884  3.6987  0.2549
 8380TIP3    H246632   3.798   0.880   1.336  1.5106 -0.5204  1.1624
 8381TIP3   OH246633   1.236   6.062   4.151  0.0164 -0.2559 -0.1562
 8381TIP3    H146634   1.183   6.069   4.230  0.3164 -0.6827  0.0812
 8381TIP3    H246635   1.313   6.117   4.168  0.7251 -1.3958  0.3750
 8382TIP3   OH246636   0.757   6.751   6.533  0.1328  0.5841  0.1432
 8382TIP3    H146637   0.778   6.843   6.516  1.3058  0.2117 -0.5067
 8382TIP3    H246638   0.833   6.718   6.582 -0.0926 -0.1320  0.0202
 8383TIP3   OH246639   0.132   1.109   2.585  0.2811  0.5443 -0.2029
 8383TIP3    H146640   0.222   1.080   2.599 -0.1101 -0.2912  0.5891
 8383TIP3    H246641   0.140   1.202   2.565  1.2649  0.6090  0.4654
 8384TIP3   OH246642   1.781   1.816   3.061 -0.4410  0.1457  0.4460
 8384TIP3    H146643   1.762   1.810   3.155 -1.6910  0.2047  0.2060
 8384TIP3    H246644   1.808   1.728   3.036 -1.9553 -0.3511  0.4859
 8385TIP3   OH246645   4.658   3.189   3.664  0.2291 -0.6222 -0.3669
 8385TIP3    H146646   4.649   3.170   3.758  1.6463 -3.1694 -0.6983
 8385TIP3    H246647   4.742   3.235   3.657 -0.6236  0.9946 -0.2253
 8386TIP3   OH246648   3.662   0.296  15.403 -0.1419 -0.0385 -0.5039
 8386TIP3    H146649   3.629   0.265  15.318 -0.5559  0.5892 -0.5743
 8386TIP3    H246650   3.610   0.248  15.467 -2.7962  2.5181 -0.6018
 8387TIP3   OH246651   4.241   6.410  13.879 -0.0490  0.5650  0.1153
 8387TIP3    H146652   4.246   6.503  13.904  0.4193  0.1154  1.7446
 8387TIP3    H246653   4.322   6.372  13.913 -0.8405 -0.7047  0.5786
 8388TIP3   OH246654   3.634   2.332   0.583 -0.2294  0.0533  0.0834
 8388TIP3    H146655   3.650   2.414   0.537 -0.1720 -0.4769 -0.8629
 8388TIP3    H246656   3.571   2.285   0.528 -1.6307  0.2172  1.5203
 8389TIP3   OH246657   1.533   1.568  16.767  0.1166 -0.2999  0.1527
 8389TIP3    H146658   1.594   1.600  16.832  1.1345  0.3204 -1.0848
 8389TIP3    H246659   1.492   1.492  16.808  1.1369 -0.2494  1.2958
 8390TIP3   OH246660   0.033   4.064   0.471 -0.3332 -0.1164 -0.3535
 8390TIP3    H146661   0.071   4.012   0.542 -0.6958  0.3217  0.1637
 8390TIP3    H246662   0.108   4.102   0.426 -0.1388  0.3987  0.4012
 8391TIP3   OH246663   0.087   2.122  12.860  0.2403 -0.5349  0.3745
 8391TIP3    H146664   0.153   2.170  12.910  2.3985 -2.5380 -0.4493
 8391TIP3    H246665   0.082   2.036  12.903 -2.0450 -0.3438  0.5708
 8392TIP3   OH246666   2.562   4.309   0.306 -0.6686  0.0202 -0.3459
 8392TIP3    H146667   2.520   4.224   0.292  1.3195 -0.9899 -0.4086
 8392TIP3    H246668   2.549   4.356   0.224  0.7539 -1.3744 -1.4127
 8393TIP3   OH246669   2.090   2.140   5.821 -0.0281 -0.9190  0.0591
 8393TIP3    H146670   2.032   2.122   5.895  0.5656  0.9077  0.9994
 8393TIP3    H246671   2.093   2.235   5.815  0.3221 -1.0334 -2.0226
 8394TIP3   OH246672   1.723   1.004   6.050 -0.4524  0.4551  0.3929
 8394TIP3    H146673   1.700   1.067   6.118 -0.9071  0.6336  0.0696
 8394TIP3    H246674   1.642   0.956   6.032 -0.5459  0.9951 -0.6448
 8395TIP3   OH246675   4.808   0.458   0.372  0.1962  0.1759 -0.4167
 8395TIP3    H146676   4.808   0.476   0.278  1.2052 -0.9049 -0.6387
 8395TIP3    H246677   4.900   0.462   0.397  0.0074 -0.2535  0.3783
 8396TIP3   OH246678   4.457   2.162   6.657  0.3708 -0.0476 -1.1023
 8396TIP3    H146679   4.362   2.152   6.658  0.4285 -0.5973 -0.3128
 8396TIP3    H246680   4.486   2.106   6.586  0.2447 -1.3654 -0.1458
 8397TIP3   OH246681   5.690   2.519  16.499  0.2869  0.0445 -0.3834
 8397TIP3    H146682   5.743   2.448  16.462  1.1007  0.8246 -0.7545
 8397TIP3    H246683   5.724   2.530  16.588  0.3700  0.1631 -0.4291
 8398TIP3   OH246684   1.555   3.318  13.098  0.4969 -0.2723 -0.0531
 8398TIP3    H146685   1.526   3.294  13.010 -1.2914 -0.2894  0.5338
 8398TIP3    H246686   1.486   3.374  13.132  1.7037  0.6436  0.9419
 8399TIP3   OH246687   4.800   4.034   4.036 -0.3762 -0.3026 -0.5312
 8399TIP3    H146688   4.891   4.053   4.015 -0.2896  1.3806  1.1986
 8399TIP3    H246689   4.794   3.938   4.034  1.2154 -0.3893 -1.4653
 8400TIP3   OH246690   6.235   1.364   1.088 -0.4483 -0.1153  0.1524
 8400TIP3    H146691   6.164   1.339   1.029 -0.7654  0.4851  0.2739
 8400TIP3    H246692   6.248   1.457   1.072 -0.2697 -0.0330  0.7506
 8401TIP3   OH246693   4.262   1.899   4.540  0.3193 -0.4143 -0.0160
 8401TIP3    H146694   4.252   1.868   4.450  1.5220 -1.7516  0.2851
 8401TIP3    H246695   4.185   1.865   4.585 -0.5324  0.6646 -0.6353
 8402TIP3   OH246696   5.804   0.407   4.534  0.5684 -0.8082  0.0895
 8402TIP3    H146697   5.808   0.336   4.598  1.9390 -0.3489  0.5308
 8402TIP3    H246698   5.759   0.477   4.580  2.9220  0.0747  1.1346
 8403TIP3   OH246699   2.875   1.955  13.674 -0.3744  0.3771 -0.4607
 8403TIP3    H146700   2.801   1.986  13.727 -0.3229  0.0137 -0.1758
 8403TIP3    H246701   2.900   2.031  13.622 -0.8259  0.5590 -0.4172
 8404TIP3   OH246702   1.810   5.663   3.650  0.1349  0.0230  0.3350
 8404TIP3    H146703   1.749   5.602   3.609 -0.2809  0.4216  0.3646
 8404TIP3    H246704   1.857   5.609   3.714  0.2545 -0.4242 -0.1261
 8405TIP3   OH246705   1.511   2.330   2.468  0.3291  0.1186  0.2852
 8405TIP3    H146706   1.430   2.380   2.465 -0.1354 -0.5966  0.6263
 8405TIP3    H246707   1.529   2.308   2.376  0.9726  1.5677  0.0450
 8406TIP3   OH246708   5.825   0.837   6.223 -0.3508  0.1135 -0.0414
 8406TIP3    H146709   5.751   0.897   6.229  0.7916  1.5097  0.5535
 8406TIP3    H246710   5.806   0.769   6.286 -0.6883  0.9730  0.7992
 8407TIP3   OH246711   1.519   1.847   4.178  0.6043 -0.4077 -0.4767
 8407TIP3    H146712   1.480   1.905   4.244 -0.3283 -2.1120  0.5054
 8407TIP3    H246713   1.582   1.902   4.132 -0.1158  1.3306  0.5682
 8408TIP3   OH246714   0.653   3.171  11.303 -0.4891  0.3680 -0.2755
 8408TIP3    H146715   0.566   3.148  11.333 -1.3020 -0.2605 -3.0018
 8408TIP3    H246716   0.652   3.267  11.297 -1.5497  0.2747 -1.8571
 8409TIP3   OH246717   1.623   3.610   4.448 -0.3712 -0.0321  0.2868
 8409TIP3    H146718   1.651   3.528   4.408 -0.9201 -0.7497  1.3455
 8409TIP3    H246719   1.675   3.617   4.528 -0.3557  0.6353  0.2259
 8410TIP3   OH246720   1.112   6.129   1.288  0.0963  0.0529 -0.3072
 8410TIP3    H146721   1.200   6.164   1.306 -0.2878  0.2812  1.1207
 8410TIP3    H246722   1.057   6.166   1.356 -0.9430 -0.8490 -0.6533
 8411TIP3   OH246723   4.921   0.267  11.016  0.2071 -0.1018  0.4843
 8411TIP3    H146724   5.011   0.232  11.019  0.8239  1.5693  1.8873
 8411TIP3    H246725   4.871   0.197  10.974  2.0682 -1.2633  0.0959
 8412TIP3   OH246726   6.794   6.132  16.221  0.0509 -0.4845  0.1433
 8412TIP3    H146727   6.749   6.182  16.153 -0.0073 -0.3612  0.2700
 8412TIP3    H246728   6.743   6.149  16.300  1.0478  0.6734  0.5482
 8413TIP3   OH246729   1.871   5.228   0.341 -0.5945  0.3413 -0.3397
 8413TIP3    H146730   1.954   5.262   0.374  0.2677 -1.9060 -0.1341
 8413TIP3    H246731   1.896   5.172   0.267 -1.8271 -1.3232  0.4855
 8414TIP3   OH246732   6.414   0.237  13.904  0.8054 -0.2711 -0.0625
 8414TIP3    H146733   6.495   0.230  13.853 -0.1847  1.2827 -1.8965
 8414TIP3    H246734   6.379   0.147  13.904  1.6195 -0.6049 -0.7923
 8415TIP3   OH246735   6.342   3.686  16.165 -0.0365 -0.4883  0.2289
 8415TIP3    H146736   6.261   3.688  16.216 -0.1057 -0.5210  0.1192
 8415TIP3    H246737   6.315   3.707  16.076  0.6118  3.5201  0.8793
 8416TIP3   OH246738   5.222   5.195  11.471  0.1471 -0.5825 -0.3194
 8416TIP3    H146739   5.305   5.147  11.469  0.3507 -0.3868  1.7929
 8416TIP3    H246740   5.201   5.211  11.379  2.2684 -0.9300 -0.8949
 8417TIP3   OH246741   0.771   3.722  17.256 -0.1177  0.1585 -0.2046
 8417TIP3    H146742   0.797   3.814  17.251 -3.9167  1.3782  0.5154
 8417TIP3    H246743   0.797   3.694  17.343  0.6052  0.7017 -0.2447
 8418TIP3   OH246744   1.413   5.652   5.734  0.1160 -0.5173 -0.4176
 8418TIP3    H146745   1.409   5.737   5.690 -0.7934 -1.3738 -2.0271
 8418TIP3    H246746   1.459   5.595   5.673 -0.2344 -1.4711  0.1972
 8419TIP3   OH246747   2.851   5.114  11.067  0.7558  0.1908 -0.0949
 8419TIP3    H146748   2.812   5.031  11.094  1.5663 -0.2915 -0.3922
 8419TIP3    H246749   2.882   5.098  10.978 -0.9703  1.4551 -0.9705
 8420TIP3   OH246750   5.796   4.003   4.948 -0.2127  0.3785  0.1487
 8420TIP3    H146751   5.807   3.943   4.874 -1.2684 -1.0286  1.1087
 8420TIP3    H246752   5.703   4.026   4.947 -0.0755  0.9614  0.5838
 8421TIP3   OH246753   2.234   2.374  13.992 -0.4084 -0.8178  0.1420
 8421TIP3    H146754   2.296   2.420  13.935 -0.9009 -0.1982  0.1031
 8421TIP3    H246755   2.238   2.421  14.075 -1.8090  0.0588 -0.2712
 8422TIP3   OH246756   6.280   3.178  14.163 -0.5148 -0.0307 -0.2056
 8422TIP3    H146757   6.335   3.140  14.094  0.3602  2.4185 -0.8900
 8422TIP3    H246758   6.191   3.173  14.128 -0.3953 -1.3158 -0.3388
 8423TIP3   OH246759   4.499   4.799  13.459 -0.5884  0.4012 -0.3292
 8423TIP3    H146760   4.585   4.824  13.490  0.4502 -2.6044 -0.5716
 8423TIP3    H246761   4.438   4.834  13.524  1.1938 -1.6593  2.5758
 8424TIP3   OH246762   2.660   4.410  11.993 -0.1672  0.0204  0.3472
 8424TIP3    H146763   2.643   4.439  11.904  2.0468 -0.7335 -0.3563
 8424TIP3    H246764   2.744   4.450  12.016  0.5613 -1.8942  1.1123
 8425TIP3   OH246765   6.324   2.010   1.366 -0.5722  0.1028 -0.2297
 8425TIP3    H146766   6.236   1.973   1.371 -0.4583  0.0760  1.8880
 8425TIP3    H246767   6.371   1.972   1.440  0.5996  1.7426 -0.0966
 8426TIP3   OH246768   5.419   2.398  14.020  0.6515  0.7796  0.0713
 8426TIP3    H146769   5.474   2.453  13.964 -0.2549  0.5471 -1.0796
 8426TIP3    H246770   5.337   2.447  14.029  0.2828  0.1814  0.0384
 8427TIP3   OH246771   1.784   4.301  10.761 -0.2570  0.0720 -0.1960
 8427TIP3    H146772   1.799   4.207  10.763 -0.0760  0.1108  0.2942
 8427TIP3    H246773   1.841   4.336  10.830  0.2527  0.6207 -0.8863
 8428TIP3   OH246774   3.143   2.507   3.200  0.1648  0.0596  0.5073
 8428TIP3    H146775   3.139   2.460   3.116 -3.4393 -0.5120  0.8893
 8428TIP3    H246776   3.217   2.469   3.246  1.3840 -0.5433 -1.8867
 8429TIP3   OH246777   5.304   4.794   4.833  0.0361  0.3057 -0.1468
 8429TIP3    H146778   5.378   4.810   4.775 -0.1145 -1.1375 -0.7611
 8429TIP3    H246779   5.310   4.700   4.854 -3.4641 -0.6307 -2.8204
 8430TIP3   OH246780   5.224   3.812   4.146 -0.0193 -0.1968  0.2125
 8430TIP3    H146781   5.262   3.884   4.095 -1.1943 -1.0228 -1.9084
 8430TIP3    H246782   5.145   3.849   4.185 -0.7437 -0.3780 -1.0601
 8431TIP3   OH246783   1.881   2.075   6.015  0.4000 -0.2360 -0.3134
 8431TIP3    H146784   1.882   1.995   6.068  1.9482  1.2654  2.0658
 8431TIP3    H246785   1.821   2.133   6.061  1.0335  0.7698 -0.7544
 8432TIP3   OH246786   5.060   5.659  16.092  0.7338  0.4637  0.5049
 8432TIP3    H146787   5.047   5.708  16.011  4.4915  1.4266  0.4023
 8432TIP3    H246788   4.997   5.697  16.154  0.9583  2.8140 -0.6646
 8433TIP3   OH246789   4.461   1.800   5.490 -0.2928  0.0448  0.3310
 8433TIP3    H146790   4.408   1.783   5.412 -0.2025  0.7075  0.1257
 8433TIP3    H246791   4.474   1.894   5.490  1.3398 -0.1677  0.0874
 8434TIP3   OH246792   0.503   4.079   2.006  0.8306  0.4524 -0.6896
 8434TIP3    H146793   0.541   4.119   2.084  0.0942 -4.4593  2.3886
 8434TIP3    H246794   0.574   4.076   1.943  3.6219 -2.0197  2.4047
 8435TIP3   OH246795   5.508   0.511  12.603  0.1823  0.5939  0.1270
 8435TIP3    H146796   5.500   0.422  12.569 -0.6383  0.3306  0.9877
 8435TIP3    H246797   5.429   0.555  12.572  2.1901  2.0424 -3.2207
 8436TIP3   OH246798   4.954   4.381   4.037 -0.1530  0.0766 -0.1938
 8436TIP3    H146799   5.000   4.410   3.959  2.2650 -0.7066  0.8546
 8436TIP3    H246800   4.969   4.286   4.039 -0.3401  0.0656  1.0853
 8437TIP3   OH246801   4.202   3.712  17.053 -0.1842 -0.0198  0.0498
 8437TIP3    H146802   4.174   3.802  17.073 -0.2061 -0.0759  0.2717
 8437TIP3    H246803   4.297   3.718  17.048 -0.2951  0.4007 -1.8471
 8438TIP3   OH246804   5.727   4.477   0.611  0.3895  0.0543 -0.0546
 8438TIP3    H146805   5.706   4.502   0.521  0.3888  0.1637 -0.0249
 8438TIP3    H246806   5.733   4.382   0.610  0.4715  0.0608 -0.1885
 8439TIP3   OH246807   6.041   4.494  14.596  0.0675 -0.0143  0.0870
 8439TIP3    H146808   5.997   4.475  14.678 -2.3841  3.1554 -0.4175
 8439TIP3    H246809   5.994   4.442  14.531  0.5156 -0.7360  0.3383
 8440TIP3   OH246810   0.327   5.118  16.081 -0.1066  0.2435  0.0149
 8440TIP3    H146811   0.302   5.210  16.087 -1.7460 -0.0230 -2.1005
 8440TIP3    H246812   0.415   5.120  16.043 -0.3395  0.9344 -0.4983
 8441TIP3   OH246813   1.124   1.680  16.243 -0.4519 -0.0327 -0.2133
 8441TIP3    H146814   1.190   1.734  16.200 -1.8299  0.7828 -1.3414
 8441TIP3    H246815   1.172   1.633  16.311  1.2486  0.6794 -0.9011
 8442TIP3   OH246816   1.581   3.367  10.828  0.1882  0.4264 -0.4652
 8442TIP3    H146817   1.599   3.444  10.882  1.4321  0.1287 -0.4483
 8442TIP3    H246818   1.492   3.340  10.854  0.7796  0.2584  1.4738
 8443TIP3   OH246819   5.716   0.573   4.743 -0.6938 -0.8212 -0.3796
 8443TIP3    H146820   5.630   0.615   4.741 -0.0221  0.7890  1.9225
 8443TIP3    H246821   5.705   0.500   4.803 -0.0866  0.3555  1.2037
 8444TIP3   OH246822   3.398   5.094   6.251  0.3852  0.4436  0.0201
 8444TIP3    H146823   3.467   5.112   6.315 -1.0213  3.6063  0.7628
 8444TIP3    H246824   3.433   5.128   6.168  0.0852  1.2211  0.2104
 8445TIP3   OH246825   6.007   4.468   1.041 -0.4491 -0.4180  0.7225
 8445TIP3    H146826   5.976   4.500   1.126  0.8869 -0.1592  1.1191
 8445TIP3    H246827   6.097   4.439   1.057 -0.6904 -1.8058 -0.2590
 8446TIP3   OH246828   2.212   1.342  11.141 -0.0241  0.4398  0.3204
 8446TIP3    H146829   2.279   1.323  11.075 -2.0027  1.8442 -2.2292
 8446TIP3    H246830   2.182   1.256  11.170 -0.6315 -0.3055 -2.3240
 8447TIP3   OH246831   0.172   2.338   2.471  0.2887 -0.7466  0.4065
 8447TIP3    H146832   0.225   2.322   2.393  0.1344  1.0756 -0.0911
 8447TIP3    H246833   0.092   2.379   2.438  0.1175 -0.1979  1.4875
 8448TIP3   OH246834   6.590   0.076   4.048  0.0207  0.1608  0.3686
 8448TIP3    H146835   6.620   0.145   3.989 -1.3763 -0.4582 -1.1299
 8448TIP3    H246836   6.615  -0.005   4.004  0.5878 -0.3028  1.5305
 8449TIP3   OH246837   5.086   6.017  11.526  0.3578  0.1449  0.5141
 8449TIP3    H146838   5.072   6.044  11.436  1.4991  1.8978  0.8349
 8449TIP3    H246839   5.023   6.066  11.577  0.0673 -0.4497  0.7348
 8450TIP3   OH246840   4.711   0.177   4.484  0.4023  0.0121  0.0517
 8450TIP3    H146841   4.761   0.099   4.462  0.9127  0.3755 -0.0781
 8450TIP3    H246842   4.664   0.198   4.404 -0.1544 -0.4705  0.2464
 8451TIP3   OH246843   1.195   6.479  16.643  0.2733  0.2675  0.3812
 8451TIP3    H146844   1.156   6.563  16.619  0.1049  0.4345  1.2290
 8451TIP3    H246845   1.137   6.443  16.710 -0.2067 -0.9941 -0.6937
 8452TIP3   OH246846   1.969   5.339  13.359 -0.1322 -0.0380  0.5237
 8452TIP3    H146847   1.996   5.414  13.412  0.2623 -0.7767  1.3768
 8452TIP3    H246848   1.884   5.315  13.395  0.6311 -1.2334  1.5819
 8453TIP3   OH246849   4.097   2.328   4.047 -0.4696 -0.5617  0.2511
 8453TIP3    H146850   4.012   2.309   4.088 -0.6468  2.4909  1.4150
 8453TIP3    H246851   4.158   2.333   4.121  0.2306 -0.1821 -0.3521
 8454TIP3   OH246852   0.009   6.117  11.003  0.2207 -0.8458  0.0348
 8454TIP3    H146853   0.010   6.044  10.942 -1.2548 -0.1229 -0.8905
 8454TIP3    H246854   0.037   6.193  10.952  1.5143 -0.7098  0.9225
 8455TIP3   OH246855   2.533   6.339  12.806  0.2124 -0.0860  0.4504
 8455TIP3    H146856   2.464   6.274  12.817  0.9320 -0.5486  2.4843
 8455TIP3    H246857   2.614   6.289  12.803  0.6928  0.6328  1.0544
 8456TIP3   OH246858   2.204   0.264  14.543  0.3194 -0.0446 -0.5826
 8456TIP3    H146859   2.140   0.312  14.491 -0.9964 -2.8572 -1.6617
 8456TIP3    H246860   2.182   0.287  14.634 -1.2685  0.2021 -1.0028
 8457TIP3   OH246861   1.761   6.802   2.741  0.3922 -0.2915  0.4044
 8457TIP3    H146862   1.692   6.866   2.758  1.1727  0.5171  0.5682
 8457TIP3    H246863   1.761   6.745   2.817 -0.3176 -0.4923  0.2522
 8458TIP3   OH246864   3.418   0.771  12.163  0.1982  0.0472 -0.0658
 8458TIP3    H146865   3.361   0.695  12.153 -1.2188  1.0594  0.2414
 8458TIP3    H246866   3.496   0.736  12.206 -0.2859 -1.2935 -0.2333
 8459TIP3   OH246867   5.317   6.155   5.527 -1.0119  0.0910 -0.5500
 8459TIP3    H146868   5.406   6.170   5.495 -1.3402 -0.9481 -2.0363
 8459TIP3    H246869   5.327   6.128   5.618  0.1322  0.7131 -0.4876
 8460TIP3   OH246870   1.274   0.136   0.024  0.3647  0.0394 -0.6448
 8460TIP3    H146871   1.275   0.201   0.094  0.4651 -1.3127  0.6343
 8460TIP3    H246872   1.332   0.172  -0.043  0.4379  1.2451  0.0559
 8461TIP3   OH246873   2.919   3.457  12.156  0.4590  0.2265 -0.3616
 8461TIP3    H146874   2.918   3.363  12.141 -2.3606  0.4061 -1.5746
 8461TIP3    H246875   2.860   3.471  12.229 -0.2580  1.1815 -1.1068
 8462TIP3   OH246876   1.341   2.342   1.270 -1.2485  0.0919 -0.3683
 8462TIP3    H146877   1.361   2.427   1.230 -1.0557 -0.0521 -0.5759
 8462TIP3    H246878   1.301   2.291   1.199  0.2019 -0.5842 -0.7206
 8463TIP3   OH246879   0.997   3.273  11.228 -0.2078 -0.6578 -0.1902
 8463TIP3    H146880   0.975   3.259  11.135  0.3868  1.3813 -0.6514
 8463TIP3    H246881   1.083   3.232  11.238  2.3524  3.9173 -1.9764
 8464TIP3   OH246882   6.688   4.761  14.469  0.0169  0.4746 -0.4995
 8464TIP3    H146883   6.660   4.670  14.481  0.5400  0.5377  1.4090
 8464TIP3    H246884   6.726   4.763  14.381  0.5368 -1.3088 -0.3389
 8465TIP3   OH246885   3.443   6.693   2.499 -0.0847 -0.4505  0.1288
 8465TIP3    H146886   3.478   6.757   2.438 -1.0008 -1.5532 -1.5968
 8465TIP3    H246887   3.520   6.651   2.537  0.5119 -0.9033 -1.5390
 8466TIP3   OH246888   3.813   3.269  11.225 -0.4558  0.0925 -0.0250
 8466TIP3    H146889   3.859   3.352  11.222 -0.8828  0.3801  0.9345
 8466TIP3    H246890   3.724   3.292  11.252 -0.5688 -0.6722  0.2640
 8467TIP3   OH246891   3.767   6.298  12.967 -0.0876  0.1554  0.2998
 8467TIP3    H146892   3.694   6.248  12.930  1.3083 -1.4511 -0.2969
 8467TIP3    H246893   3.724   6.373  13.009 -1.9591  0.2058 -1.5931
 8468TIP3   OH246894   2.497   2.249  15.920  0.4002  0.5244  0.0546
 8468TIP3    H146895   2.514   2.292  16.003 -0.2054 -1.1079  1.0517
 8468TIP3    H246896   2.529   2.159  15.933  1.6747  0.6358 -1.9689
 8469TIP3   OH246897   6.810   3.894   6.274 -0.0178 -1.1381  0.2554
 8469TIP3    H146898   6.719   3.908   6.299 -0.2085  0.8721 -1.3676
 8469TIP3    H246899   6.813   3.805   6.240 -1.4536 -1.1033  0.0148
 8470TIP3   OH246900   0.219   2.827  14.684 -0.6323  0.5637  0.2634
 8470TIP3    H146901   0.224   2.763  14.613  1.3318  0.1580  0.7374
 8470TIP3    H246902   0.185   2.779  14.758 -0.9243  0.5336  0.1116
 8471TIP3   OH246903   4.915   4.982  11.880  0.5653 -0.4553  0.3203
 8471TIP3    H146904   4.918   5.056  11.820 -0.0482  0.6956  1.6749
 8471TIP3    H246905   4.916   5.022  11.967  0.3892 -2.0505  1.0726
 8472TIP3   OH246906   6.293   4.767  16.597 -0.4725  0.0367 -0.0038
 8472TIP3    H146907   6.321   4.738  16.684  1.1715  0.1462 -0.4661
 8472TIP3    H246908   6.236   4.842  16.613 -0.0860  0.1224  0.9783
 8473TIP3   OH246909   1.556   3.259  13.854  0.0855 -0.4189  0.1998
 8473TIP3    H146910   1.591   3.268  13.943 -1.0424 -2.6469  0.8915
 8473TIP3    H246911   1.603   3.326  13.804  0.2079  1.3770  2.6029
 8474TIP3   OH246912   4.325   5.590  13.157 -0.5542  0.3355 -0.4287
 8474TIP3    H146913   4.258   5.521  13.154 -1.1260  0.8365  0.4708
 8474TIP3    H246914   4.384   5.563  13.227 -0.8736  0.8281  0.0411
 8475TIP3   OH246915   0.642   5.736  17.135  0.4410  0.6498  0.6830
 8475TIP3    H146916   0.689   5.657  17.111  0.0229 -0.1804  2.5497
 8475TIP3    H246917   0.642   5.737  17.231  0.1681  2.7420  0.6939
 8476TIP3   OH246918   3.055   2.094   5.915  0.0915  0.0858  0.7409
 8476TIP3    H146919   3.138   2.138   5.896  0.3604 -0.5100  0.5309
 8476TIP3    H246920   3.079   2.019   5.969 -0.1401 -0.9154 -0.5164
 8477TIP3   OH246921   4.843   5.186  13.603 -0.3253 -0.3639  0.6044
 8477TIP3    H146922   4.881   5.273  13.607 -1.4421  0.1525  0.2925
 8477TIP3    H246923   4.917   5.128  13.583  0.1478  0.7325 -0.9564
 8478TIP3   OH246924   1.259   1.732   6.321 -0.0155 -0.1819 -0.1180
 8478TIP3    H146925   1.289   1.642   6.337  0.8468  0.0785 -0.2521
 8478TIP3    H246926   1.217   1.758   6.403 -1.7762 -1.2961 -0.6290
 8479TIP3   OH246927   0.975   3.322   0.831 -0.4291  0.6810  0.7188
 8479TIP3    H146928   0.966   3.228   0.848 -0.2938  0.5947  0.3269
 8479TIP3    H246929   0.905   3.363   0.881  0.8591  0.5606  2.6737
 8480TIP3   OH246930   5.184   3.546  16.302 -0.6445 -0.0224 -0.5126
 8480TIP3    H146931   5.164   3.555  16.395  0.8476 -1.6209 -0.0015
 8480TIP3    H246932   5.119   3.600  16.257 -1.7813  0.2282  1.4219
 8481TIP3   OH246933   6.441   4.412   5.677  0.4921 -0.7135 -0.1684
 8481TIP3    H146934   6.356   4.384   5.643  1.4122 -1.6317 -1.7950
 8481TIP3    H246935   6.473   4.335   5.725 -0.5669  0.3976  2.4047
 8482TIP3   OH246936   3.926   6.380   3.333  0.1229  0.1056 -0.4693
 8482TIP3    H146937   3.934   6.461   3.284  1.4285 -0.5590 -1.3766
 8482TIP3    H246938   3.868   6.402   3.406 -0.8873  1.4090 -1.6224
 8483TIP3   OH246939   5.640   2.371  13.080  0.2714 -0.6178  0.0127
 8483TIP3    H146940   5.699   2.409  13.014  0.2682  0.0132  0.3649
 8483TIP3    H246941   5.558   2.419  13.069 -0.0564 -1.2340 -0.2237
 8484TIP3   OH246942   2.169   4.484  14.234  0.0941  0.2428 -0.5203
 8484TIP3    H146943   2.098   4.457  14.293 -0.6287  0.6022 -1.2109
 8484TIP3    H246944   2.188   4.574  14.259 -1.1631  0.8689 -1.7206
 8485TIP3   OH246945   4.534   5.082  14.582  0.4289 -0.0425 -0.1969
 8485TIP3    H146946   4.453   5.129  14.564 -0.3131 -1.7960 -1.6058
 8485TIP3    H246947   4.561   5.112  14.669 -1.2557  1.1896 -0.0788
 8486TIP3   OH246948   0.758   1.290   4.675  0.0472  0.8129 -0.5356
 8486TIP3    H146949   0.729   1.255   4.591  0.1839 -0.8368  0.0711
 8486TIP3    H246950   0.678   1.296   4.727  0.2250 -0.0748 -0.1401
 8487TIP3   OH246951   6.251   4.994   5.542  0.1467  0.0359  0.5246
 8487TIP3    H146952   6.187   5.064   5.553 -0.2337  0.2181 -2.5362
 8487TIP3    H246953   6.325   5.021   5.597 -0.4508  2.2896  0.2662
 8488TIP3   OH246954   1.897   0.395  13.267  0.1206  0.5720 -0.0792
 8488TIP3    H146955   1.927   0.389  13.176  1.6873 -0.9817  0.5105
 8488TIP3    H246956   1.802   0.403  13.260 -0.0427 -2.1936 -1.8043
 8489TIP3   OH246957   1.591   6.664   6.537  0.0070 -0.7236  0.1315
 8489TIP3    H146958   1.619   6.755   6.527 -1.1777 -0.3810 -0.1334
 8489TIP3    H246959   1.589   6.630   6.448  0.7867 -1.1270  0.2575
 8490TIP3   OH246960   3.167   2.910  12.005  0.0224  0.1911  0.0601
 8490TIP3    H146961   3.244   2.856  11.987  0.2630  0.6987 -0.4484
 8490TIP3    H246962   3.165   2.973  11.933 -1.4248 -0.4398 -0.4644
 8491TIP3   OH246963   2.791   3.521  16.904 -0.2460  0.1280 -0.2994
 8491TIP3    H146964   2.862   3.573  16.941 -0.9998  0.4730  0.6851
 8491TIP3    H246965   2.833   3.466  16.838  1.3922 -1.5461  2.0838
 8492TIP3   OH246966   5.038   4.958   5.409 -0.2757 -0.2398  0.3393
 8492TIP3    H146967   5.046   4.953   5.314  2.0466 -0.9917  0.5209
 8492TIP3    H246968   5.023   5.051   5.427  0.4553  0.0981 -0.7065
 8493TIP3   OH246969   4.567   4.451   0.564  0.2208  0.5934 -0.8653
 8493TIP3    H146970   4.621   4.416   0.493  0.0725 -0.6720 -0.3814
 8493TIP3    H246971   4.529   4.373   0.605 -1.2418  1.4121 -0.6233
 8494TIP3   OH246972   4.394   1.736   4.305  0.1529  0.3299 -0.0194
 8494TIP3    H146973   4.441   1.717   4.387  0.0234 -1.1724 -0.2926
 8494TIP3    H246974   4.428   1.673   4.242 -1.6522 -0.2629 -0.4354
 8495TIP3   OH246975   4.976   6.205   2.773 -0.1014 -0.4190 -0.0801
 8495TIP3    H146976   4.977   6.155   2.691  0.4089 -1.3774  0.5123
 8495TIP3    H246977   4.895   6.177   2.817  0.2563 -0.8434  0.3171
 8496TIP3   OH246978   2.794   4.909   3.170  0.4821  0.2300  0.3082
 8496TIP3    H146979   2.791   4.988   3.224  0.8249 -0.3321  1.1600
 8496TIP3    H246980   2.842   4.936   3.091  0.3508  0.9460  0.4695
 8497TIP3   OH246981   6.447   4.213   4.721  0.6969 -0.0788  0.0604
 8497TIP3    H146982   6.359   4.216   4.683 -0.5384 -0.2286  2.8009
 8497TIP3    H246983   6.465   4.119   4.731  0.5020 -0.0291  0.9383
 8498TIP3   OH246984   0.340   1.331  11.707  0.1817 -0.2063 -0.1778
 8498TIP3    H146985   0.297   1.303  11.788 -0.1547 -4.2199 -1.6188
 8498TIP3    H246986   0.430   1.302  11.717  0.3339  0.0149 -0.9065
 8499TIP3   OH246987   0.771   0.361   2.869 -0.7205  0.3675  0.0506
 8499TIP3    H146988   0.827   0.438   2.859  2.7021 -1.7484  2.0823
 8499TIP3    H246989   0.685   0.397   2.892  0.7015  3.5917  0.5677
 8500TIP3   OH246990   3.935   4.229  16.724 -0.4073  0.0159  0.2263
 8500TIP3    H146991   3.974   4.143  16.741 -1.2619 -0.3295  0.5306
 8500TIP3    H246992   3.845   4.220  16.758 -0.3979  1.1323  0.5472
 8501TIP3   OH246993   0.557   1.419   2.249 -0.0025 -0.1815  0.0646
 8501TIP3    H146994   0.529   1.356   2.316  1.8827 -1.8725 -0.6778
 8501TIP3    H246995   0.629   1.467   2.288  0.5492 -0.5891 -0.4393
 8502TIP3   OH246996   3.532   5.540  15.182 -0.1990 -0.0425 -0.8039
 8502TIP3    H146997   3.439   5.564  15.190 -0.2572 -0.5392  0.0709
 8502TIP3    H246998   3.533   5.471  15.115 -0.4744 -0.1199 -0.7309
 8503TIP3   OH246999   1.189   4.780   3.778 -0.2258  0.0296 -0.2365
 8503TIP3    H147000   1.190   4.875   3.785  0.2014  0.0383 -0.3509
 8503TIP3    H247001   1.235   4.749   3.856 -0.9912 -0.1125  0.1631
 8504TIP3   OH247002   2.893   0.169  12.038  0.5285  0.0678 -0.4684
 8504TIP3    H147003   2.812   0.185  12.087  0.9345  1.1544 -0.1375
 8504TIP3    H247004   2.871   0.191  11.947  0.0086 -1.1542 -0.6393
 8505TIP3   OH247005   4.108   3.844  14.158 -0.8245  0.1979  0.5083
 8505TIP3    H147006   4.072   3.887  14.080 -0.4678 -0.2178  0.1068
 8505TIP3    H247007   4.191   3.890  14.174 -0.5348 -0.2075  0.1919
 8506TIP3   OH247008   2.162   6.298  10.870 -0.6478  0.2616  0.1121
 8506TIP3    H147009   2.175   6.393  10.877  0.2425  0.2349 -1.1936
 8506TIP3    H247010   2.068   6.287  10.885 -0.9878  1.4790 -1.0236
 8507TIP3   OH247011   2.268   2.407  13.200  0.4251  0.8731 -0.2011
 8507TIP3    H147012   2.300   2.334  13.148 -0.7879  0.2468 -0.0983
 8507TIP3    H247013   2.342   2.433  13.254  0.8595 -0.3000 -0.2201
 8508TIP3   OH247014   0.824   5.058   5.331  0.0626  0.1033  0.0873
 8508TIP3    H147015   0.801   4.965   5.334 -1.2099  0.4236  0.8766
 8508TIP3    H247016   0.864   5.075   5.417 -3.4053  1.1694  1.5783
 8509TIP3   OH247017   2.250   6.428  13.859 -0.3316  0.6472  0.5602
 8509TIP3    H147018   2.205   6.349  13.827 -0.4209  0.3159  1.4903
 8509TIP3    H247019   2.201   6.500  13.820  0.1099  0.2486 -0.7802
 8510TIP3   OH247020   3.148   4.714  11.730 -0.2474  0.5003  0.1896
 8510TIP3    H147021   3.217   4.652  11.751  0.0784  0.2545 -1.5542
 8510TIP3    H247022   3.192   4.799  11.725 -0.0577  0.3555 -0.8356
 8511TIP3   OH247023   2.020   3.249  11.967 -0.1845 -0.0937 -0.3625
 8511TIP3    H147024   2.010   3.155  11.950  0.0094 -0.2123  0.1676
 8511TIP3    H247025   1.948   3.270  12.028  0.4210 -0.1305  0.3735
 8512TIP3   OH247026   5.636   2.083   3.689  0.2317  0.0370  0.2141
 8512TIP3    H147027   5.659   2.174   3.711  0.1067 -0.1169  1.0292
 8512TIP3    H247028   5.542   2.079   3.704 -0.0083  0.1501 -1.2195
 8513TIP3   OH247029   2.419   0.145   1.091  0.1255 -0.1786 -0.1118
 8513TIP3    H147030   2.453   0.079   1.152 -0.8539  0.3807  1.0754
 8513TIP3    H247031   2.338   0.174   1.132 -0.7269 -0.0286 -1.8788
 8514TIP3   OH247032   5.527   1.636  13.199 -0.2529  0.4633  0.3368
 8514TIP3    H147033   5.493   1.610  13.285 -1.4645  0.8985 -0.0020
 8514TIP3    H247034   5.449   1.655  13.147  0.4493 -0.5053 -1.0941
 8515TIP3   OH247035   2.184   6.305   0.363  0.1791 -0.2313  0.7856
 8515TIP3    H147036   2.168   6.394   0.393  0.6766  0.5046 -1.0867
 8515TIP3    H247037   2.103   6.258   0.382  0.1316  0.4629  2.3321
 8516TIP3   OH247038   4.384   6.268  14.212  0.2295  0.2565 -0.3649
 8516TIP3    H147039   4.394   6.363  14.211  2.2003  0.0864  0.2441
 8516TIP3    H247040   4.382   6.243  14.120 -2.6719  1.0798 -0.5670
 8517TIP3   OH247041   6.523   4.229  11.557  0.5888 -0.2993 -0.0333
 8517TIP3    H147042   6.454   4.259  11.617  0.5039  0.2638 -0.4061
 8517TIP3    H247043   6.477   4.180  11.489  0.8045 -1.9089  0.9668
 8518TIP3   OH247044   0.901   5.632   4.193 -0.5255  0.4483 -0.8940
 8518TIP3    H147045   0.945   5.712   4.163  2.0358 -0.2948  0.7590
 8518TIP3    H247046   0.828   5.664   4.246 -2.0899  1.7025 -3.6712
 8519TIP3   OH247047   2.367   5.943   2.829 -0.3805  0.5010  0.4753
 8519TIP3    H147048   2.374   5.935   2.924 -1.3651 -0.1207  0.5075
 8519TIP3    H247049   2.339   6.034   2.816  1.8250  1.2234  0.6462
 8520TIP3   OH247050   4.828   6.487  14.476 -0.4223  0.4954  0.2277
 8520TIP3    H147051   4.869   6.564  14.516  0.9703 -0.7952  1.3026
 8520TIP3    H247052   4.808   6.429  14.549  1.2051 -1.4431 -0.8309
 8521TIP3   OH247053   6.257   5.054  13.836  0.2329  0.4198  0.4349
 8521TIP3    H147054   6.261   4.963  13.865 -1.2340  0.2610  0.1741
 8521TIP3    H247055   6.263   5.106  13.916  0.0110  0.0757  0.6714
 8522TIP3   OH247056   3.198   2.470   1.583 -0.2794  0.2749  0.1188
 8522TIP3    H147057   3.159   2.540   1.532 -1.0117  0.6233  1.1240
 8522TIP3    H247058   3.167   2.390   1.542 -0.1716  0.5417 -0.4851
 8523TIP3   OH247059   6.160   5.956   4.901 -0.2786 -0.2505 -0.1189
 8523TIP3    H147060   6.133   5.933   4.812  1.2592 -0.7173 -0.4868
 8523TIP3    H247061   6.189   6.047   4.895 -0.6177 -0.1370  0.0001
 8524TIP3   OH247062   0.331   6.540   6.074 -0.0165  0.2764 -0.0715
 8524TIP3    H147063   0.236   6.537   6.079 -0.0108 -0.6127 -0.4001
 8524TIP3    H247064   0.358   6.577   6.158 -0.5586 -1.4407  0.8938
 8525TIP3   OH247065   0.635   0.283   4.236  0.7502 -0.4725 -0.3594
 8525TIP3    H147066   0.721   0.247   4.259  0.7696 -1.7455 -2.2818
 8525TIP3    H247067   0.654   0.366   4.192  0.8692  0.2728  1.0611
 8526TIP3   OH247068   4.729   5.858  16.100  0.1884 -0.2606  0.4898
 8526TIP3    H147069   4.800   5.921  16.087  0.3868 -1.1687 -3.3093
 8526TIP3    H247070   4.768   5.789  16.155  0.9741  1.2396  1.8533
 8527TIP3   OH247071   6.023   1.284   3.117  0.4960  0.5805  0.2798
 8527TIP3    H147072   5.938   1.321   3.093  0.6338  1.6739  1.4251
 8527TIP3    H247073   6.017   1.192   3.092 -0.6740  0.8656 -0.5366
 8528TIP3   OH247074   0.451   1.795   2.250 -0.5450  0.8332  0.2909
 8528TIP3    H147075   0.397   1.873   2.239  1.5552  2.1420 -1.1398
 8528TIP3    H247076   0.484   1.801   2.339 -2.3995  0.2334  1.0381
 8529TIP3   OH247077   0.779   1.196  12.096 -0.1519 -0.0446 -0.7973
 8529TIP3    H147078   0.713   1.252  12.054 -0.9304 -0.1091  0.3148
 8529TIP3    H247079   0.784   1.230  12.185  1.5396  0.1370 -0.9532
 8530TIP3   OH247080   3.659   0.227  14.588 -0.4730 -0.1106 -0.0623
 8530TIP3    H147081   3.752   0.230  14.566 -0.2781  2.3356  1.0013
 8530TIP3    H247082   3.641   0.134  14.604  1.9077 -0.5200  0.3287
 8531TIP3   OH247083   1.946   0.305  14.390  0.1608 -0.0906 -0.1065
 8531TIP3    H147084   1.905   0.224  14.360 -0.6504 -0.4708  1.9570
 8531TIP3    H247085   1.873   0.359  14.420  0.7601  1.1623 -0.8580
 8532TIP3   OH247086   0.663   5.233   6.801  0.6690  0.4872 -0.4958
 8532TIP3    H147087   0.568   5.229   6.811  0.5450 -1.1973 -1.8695
 8532TIP3    H247088   0.683   5.326   6.791 -0.8151  0.8712 -0.0083
 8533TIP3   OH247089   0.865   1.689  16.379  0.2622  0.0839  0.3945
 8533TIP3    H147090   0.959   1.703  16.364  0.5692 -1.3713  0.8617
 8533TIP3    H247091   0.856   1.593  16.383 -1.1373  0.2407  1.0155
 8534TIP3   OH247092   5.027   3.826   0.936 -0.9528  0.5412  0.3353
 8534TIP3    H147093   5.041   3.916   0.905 -0.0645  0.0526 -0.7229
 8534TIP3    H247094   5.031   3.773   0.857 -0.5263 -0.5328  1.0716
 8535TIP3   OH247095   4.971   4.731   2.953  0.0053 -0.3288 -0.2443
 8535TIP3    H147096   5.016   4.815   2.955 -0.3320 -0.0626 -2.3890
 8535TIP3    H247097   4.986   4.698   2.864 -1.8505 -1.4391 -0.1635
 8536TIP3   OH247098   1.619   2.807  16.533  0.0688 -0.0804 -0.1816
 8536TIP3    H147099   1.655   2.771  16.614 -1.6251 -0.4788  0.4029
 8536TIP3    H247100   1.531   2.771  16.527  0.3728 -0.5202 -2.5147
 8537TIP3   OH247101   1.396   4.007   3.118 -0.0086  0.2671  0.4102
 8537TIP3    H147102   1.393   3.912   3.125  0.0215  0.1642 -0.8216
 8537TIP3    H247103   1.310   4.031   3.084 -0.2273  0.7388  1.2802
 8538TIP3   OH247104   2.766   5.890  12.734 -0.6497  0.7148  0.0247
 8538TIP3    H147105   2.833   5.879  12.667 -0.7624  0.8309 -0.1072
 8538TIP3    H247106   2.772   5.811  12.788  0.1197  1.0931  0.4878
 8539TIP3   OH247107   0.309   0.021   2.912 -0.8679 -0.5153  0.1471
 8539TIP3    H147108   0.285   0.047   3.001 -0.3769 -2.0193  0.7330
 8539TIP3    H247109   0.349   0.099   2.874  0.2769 -0.2923  1.7553
 8540TIP3   OH247110   6.643   2.094  15.127 -0.1039 -0.2451  0.0634
 8540TIP3    H147111   6.684   2.077  15.212  0.0962 -0.5563 -0.0914
 8540TIP3    H247112   6.550   2.076  15.141  0.2466 -2.6200 -0.3718
 8541TIP3   OH247113   0.501   0.106   2.329 -0.2428  0.2249  0.3452
 8541TIP3    H147114   0.417   0.136   2.363  0.2142  0.4397  1.3063
 8541TIP3    H247115   0.512   0.018   2.366  0.0143  0.2475  0.3259
 8542TIP3   OH247116   5.267   2.564  15.043  0.0154  0.2761 -0.4612
 8542TIP3    H147117   5.259   2.660  15.042 -0.0129  0.2691 -2.0089
 8542TIP3    H247118   5.189   2.534  15.090  0.6179  1.0504  1.0852
 8543TIP3   OH247119   5.517   4.399   4.436 -0.0231 -0.0067 -0.6604
 8543TIP3    H147120   5.472   4.320   4.407 -1.6622  1.0214 -0.9973
 8543TIP3    H247121   5.588   4.411   4.373  0.5805 -1.4872 -0.2911
 8544TIP3   OH247122   4.155   1.860   3.090  0.7789 -0.2370  0.3304
 8544TIP3    H147123   4.132   1.841   2.999 -0.1588  1.6344  0.1448
 8544TIP3    H247124   4.232   1.806   3.108  2.8817  1.6615 -2.5370
 8545TIP3   OH247125   5.036   5.704   1.383 -0.1288 -0.3081  0.5419
 8545TIP3    H147126   4.987   5.629   1.416  2.2408 -1.3138  1.9716
 8545TIP3    H247127   5.066   5.750   1.462  1.0749  0.3540 -0.2745
 8546TIP3   OH247128   3.116   4.676   1.392 -0.0642 -0.1678 -0.1135
 8546TIP3    H147129   3.123   4.721   1.477 -1.4098  0.0772 -0.1306
 8546TIP3    H247130   3.102   4.746   1.329 -0.8638 -0.5019 -0.3078
 8547TIP3   OH247131   5.225   4.833   0.244 -0.3755 -0.4809 -0.2418
 8547TIP3    H147132   5.240   4.764   0.180  0.7062 -0.6024  0.1337
 8547TIP3    H247133   5.199   4.786   0.324 -1.7401 -0.3290 -0.5833
 8548TIP3   OH247134   6.751   3.443  16.344 -0.0121 -0.3142 -0.4022
 8548TIP3    H147135   6.674   3.499  16.335  1.0275  1.4736  1.2106
 8548TIP3    H247136   6.825   3.504  16.341  1.1462 -1.5587  1.5851
 8549TIP3   OH247137   4.849   5.840  13.268 -0.0617 -0.2347 -0.2506
 8549TIP3    H147138   4.765   5.805  13.238 -0.4598 -0.8334  1.5225
 8549TIP3    H247139   4.907   5.764  13.270 -0.3668 -0.4481  1.6035
 8550TIP3   OH247140   1.809   1.820   3.624 -0.2800 -0.1795  0.1569
 8550TIP3    H147141   1.828   1.909   3.655 -1.2543 -0.0417  0.3746
 8550TIP3    H247142   1.883   1.799   3.567 -0.7219  1.3177 -1.0159
 8551TIP3   OH247143   4.185   2.725   1.124  0.5813 -0.1238  0.0556
 8551TIP3    H147144   4.203   2.673   1.046  0.8953  1.4400 -0.9498
 8551TIP3    H247145   4.217   2.813   1.101 -0.4069  0.6257  1.5061
 8552TIP3   OH247146   0.585   5.024  13.009  0.3822  0.2675  0.0153
 8552TIP3    H147147   0.585   5.080  12.931 -0.9971  0.3438  0.0627
 8552TIP3    H247148   0.495   5.027  13.041  0.4650 -1.3583  0.4685
 8553TIP3   OH247149   3.455   1.343   4.515  0.1042  0.3888  0.5939
 8553TIP3    H147150   3.372   1.376   4.479 -0.8280  0.8100  3.0515
 8553TIP3    H247151   3.516   1.416   4.506  0.4294 -0.1491 -1.8499
 8554TIP3   OH247152   5.311   0.575  15.488 -0.2307  0.2145 -0.8906
 8554TIP3    H147153   5.381   0.522  15.450  0.4016  0.9871 -0.7959
 8554TIP3    H247154   5.254   0.595  15.414 -1.0310 -1.4493 -0.7552
 8555TIP3   OH247155   4.469   2.418  15.566  0.0546  0.3252  0.1946
 8555TIP3    H147156   4.401   2.484  15.577 -0.0763  0.1147  0.6726
 8555TIP3    H247157   4.422   2.335  15.557  0.2396  0.1971  0.3817
 8556TIP3   OH247158   2.783   2.085   3.802 -0.1916 -0.2435 -0.3402
 8556TIP3    H147159   2.726   2.018   3.839 -2.6295  0.2742 -2.9199
 8556TIP3    H247160   2.766   2.163   3.856  0.9613 -1.0727  1.2545
 8557TIP3   OH247161   1.435   4.618  13.384 -0.1549  0.1925  0.0611
 8557TIP3    H147162   1.342   4.612  13.406 -0.2385  0.1652 -0.3056
 8557TIP3    H247163   1.469   4.687  13.441 -0.6851  1.1642 -0.7757
 8558TIP3   OH247164   6.302   0.855   6.173  0.3061 -0.4331  0.0719
 8558TIP3    H147165   6.395   0.863   6.156  0.8147 -0.9256  2.4111
 8558TIP3    H247166   6.290   0.894   6.259 -1.8745  0.7598 -0.7329
 8559TIP3   OH247167   1.377   0.785   3.490 -0.1910  0.1220  0.2826
 8559TIP3    H147168   1.407   0.791   3.400 -0.5601 -0.4476  0.1209
 8559TIP3    H247169   1.298   0.839   3.493 -0.7807 -0.7238  0.0046
 8560TIP3   OH247170   3.088   0.798  14.006 -0.2205 -0.3633  0.7910
 8560TIP3    H147171   3.094   0.703  13.994 -0.9368 -0.4635  1.1738
 8560TIP3    H247172   3.178   0.829  13.998  0.5821 -1.5315  4.4146
 8561TIP3   OH247173   4.965   3.991   0.701  0.0329  0.6185  0.6774
 8561TIP3    H147174   4.879   4.023   0.729  0.0471  2.0203 -0.7980
 8561TIP3    H247175   5.017   4.071   0.690  0.5843  0.0003 -1.4326
 8562TIP3   OH247176   4.212   0.663  12.513  0.5170 -0.5193 -0.0292
 8562TIP3    H147177   4.166   0.741  12.484  1.2154 -0.7930 -1.9051
 8562TIP3    H247178   4.145   0.609  12.555 -0.7573 -0.6096 -2.1214
 8563TIP3   OH247179   4.411   2.737  12.181  0.4442  0.1550  0.3952
 8563TIP3    H147180   4.413   2.661  12.124  1.8354  1.0796 -0.8218
 8563TIP3    H247181   4.374   2.705  12.263 -1.4852 -1.2256 -0.9629
 8564TIP3   OH247182   2.993   3.448  15.358 -0.0376  0.4103 -0.0920
 8564TIP3    H147183   3.082   3.476  15.381 -0.0555 -1.0986  1.9580
 8564TIP3    H247184   3.004   3.357  15.329 -0.8261  0.4034 -0.3730
 8565TIP3   OH247185   4.113   1.731  16.253  0.4503 -0.8422 -0.4197
 8565TIP3    H147186   4.085   1.707  16.341 -1.5787  0.0617 -0.8033
 8565TIP3    H247187   4.136   1.648  16.212 -3.3814 -1.8474 -0.6756
 8566TIP3   OH247188   6.729   1.740  10.715 -0.3229 -0.4317 -0.5328
 8566TIP3    H147189   6.731   1.648  10.738  2.5628 -0.2454  0.1822
 8566TIP3    H247190   6.820   1.769  10.722 -1.2359  2.5988 -0.1902
 8567TIP3   OH247191   4.474   0.362   4.488  0.2485  0.0363  0.4256
 8567TIP3    H147192   4.529   0.317   4.424  0.7133 -0.3400  1.0751
 8567TIP3    H247193   4.487   0.312   4.569  1.0166  1.5260  1.2360
 8568TIP3   OH247194   2.773   5.446   5.196 -0.0636  0.6835  0.0311
 8568TIP3    H147195   2.751   5.361   5.235 -0.8653  0.9288  0.1300
 8568TIP3    H247196   2.729   5.510   5.252  0.3498  1.1550 -0.1769
 8569TIP3   OH247197   6.399   4.488   4.747  0.7721  0.1343 -0.0326
 8569TIP3    H147198   6.408   4.393   4.741 -0.6121  0.0411 -0.9676
 8569TIP3    H247199   6.373   4.504   4.838  0.7450 -0.4022  0.0559
 8570TIP3   OH247200   1.064   1.852  17.249  0.2186 -0.7580  0.0219
 8570TIP3    H147201   1.098   1.766  17.272 -0.0613 -0.6185  0.9788
 8570TIP3    H247202   0.992   1.834  17.189  0.1951 -1.1887  0.1805
 8571TIP3   OH247203   5.587   6.190   3.722  0.4084  0.5384 -0.4973
 8571TIP3    H147204   5.538   6.263   3.684 -0.4895  0.9885  1.5047
 8571TIP3    H247205   5.547   6.112   3.684  1.0392  1.0506 -2.2570
 8572TIP3   OH247206   0.997   3.609   3.963 -0.4376 -0.8739  0.4982
 8572TIP3    H147207   0.944   3.608   4.042 -1.9732 -0.3815 -0.5153
 8572TIP3    H247208   1.087   3.598   3.995 -0.9419  0.2207  2.3611
 8573TIP3   OH247209   1.370   5.411   0.975  0.3322  0.1041  0.4031
 8573TIP3    H147210   1.418   5.334   1.005 -0.5339 -0.0151  1.5342
 8573TIP3    H247211   1.336   5.386   0.889  0.5548 -0.5621  0.5035
 8574TIP3   OH247212   0.434   2.204   1.788 -0.1014 -0.0418 -0.3461
 8574TIP3    H147213   0.358   2.167   1.744 -1.7844  3.5557 -0.6261
 8574TIP3    H247214   0.473   2.263   1.724  1.3531  0.1787  0.7154
 8575TIP3   OH247215   5.679   6.806   0.441  0.2585 -0.4196  0.3210
 8575TIP3    H147216   5.699   6.834   0.530 -0.3439  0.9453  0.0345
 8575TIP3    H247217   5.611   6.739   0.452  0.3123 -0.3827  0.8978
 8576TIP3   OH247218   2.947   1.270  11.002 -0.0315 -0.3391 -0.5974
 8576TIP3    H147219   2.905   1.226  10.929  0.2551 -0.0201 -0.9600
 8576TIP3    H247220   2.940   1.364  10.982 -1.1689 -0.1882  0.4543
 8577TIP3   OH247221   5.330   0.034   0.961 -0.1050 -0.4457  0.3776
 8577TIP3    H147222   5.404   0.069   0.911  0.3412 -0.1983  1.1939
 8577TIP3    H247223   5.320   0.095   1.035 -0.3596 -1.1480  0.9289
 8578TIP3   OH247224   6.053   4.723   0.792 -0.2489 -0.1144  0.1566
 8578TIP3    H147225   5.989   4.665   0.833 -1.1695 -0.1594 -1.3158
 8578TIP3    H247226   6.013   4.810   0.796  0.3756  0.1394  0.8293
 8579TIP3   OH247227   5.504   1.390   4.029 -0.2797 -0.8274 -0.1275
 8579TIP3    H147228   5.437   1.343   4.079 -2.0783  2.7343  0.9450
 8579TIP3    H247229   5.543   1.451   4.091  1.3811 -0.2347 -1.6936
 8580TIP3   OH247230   4.756   5.278   4.735 -0.4252  0.1787  0.3499
 8580TIP3    H147231   4.794   5.309   4.652  0.2086 -0.1752  0.5038
 8580TIP3    H247232   4.813   5.206   4.762 -0.9835 -0.1037  0.7897
 8581TIP3   OH247233   5.282   4.340  13.220 -0.0883 -0.0348  0.2278
 8581TIP3    H147234   5.203   4.372  13.263 -0.7127  0.3677 -1.1951
 8581TIP3    H247235   5.347   4.409  13.236 -0.7523  0.8396 -0.7654
 8582TIP3   OH247236   6.780   1.891   2.132  0.1522  0.0966  0.6914
 8582TIP3    H147237   6.792   1.982   2.160 -1.1258  0.7442 -0.8501
 8582TIP3    H247238   6.738   1.849   2.207 -0.0586  0.9863  1.0840
 8583TIP3   OH247239   2.009   5.286   3.530  0.2021 -0.5766 -0.6476
 8583TIP3    H147240   1.976   5.198   3.550 -0.2315 -0.4609 -0.8345
 8583TIP3    H247241   2.006   5.332   3.613  0.3558 -0.7160 -0.5644
 8584TIP3   OH247242   4.425   6.711  12.296  0.0241  0.0475  0.7240
 8584TIP3    H147243   4.482   6.786  12.281 -0.4521  0.0959 -0.9752
 8584TIP3    H247244   4.349   6.747  12.341 -0.3657  0.6784 -0.3972
 8585TIP3   OH247245   4.013   5.841   2.267 -0.1211  0.1795 -0.3426
 8585TIP3    H147246   3.976   5.795   2.342  2.3423 -0.9310  0.2422
 8585TIP3    H247247   3.968   5.925   2.266 -1.7853 -0.6714  1.0254
 8586TIP3   OH247248   5.554   4.839   1.207 -0.5193  0.3956 -0.3233
 8586TIP3    H147249   5.558   4.903   1.278 -0.3551  0.4045 -0.3390
 8586TIP3    H247250   5.646   4.815   1.191 -0.6082 -0.1085 -0.0790
 8587TIP3   OH247251   6.479   1.719   4.553  0.9301 -0.3020  0.5122
 8587TIP3    H147252   6.467   1.814   4.559 -0.6694 -0.5043  0.6681
 8587TIP3    H247253   6.507   1.693   4.641  0.8693 -0.0336  0.6114
 8588TIP3   OH247254   4.479   2.342   1.431  0.2416 -0.3005  0.3184
 8588TIP3    H147255   4.514   2.271   1.485 -0.2253 -0.0106  1.0084
 8588TIP3    H247256   4.488   2.311   1.341  0.9774 -0.8100  0.5660
 8589TIP3   OH247257   1.656   6.678  14.683  0.9073 -0.5757 -0.1349
 8589TIP3    H147258   1.692   6.600  14.640  1.5759 -0.2981 -0.0858
 8589TIP3    H247259   1.686   6.672  14.773  1.9521  0.3352 -0.4060
 8590TIP3   OH247260   1.594   0.557   4.578 -0.1656 -0.2094  0.6153
 8590TIP3    H147261   1.536   0.504   4.635 -1.9893  1.9406  0.8369
 8590TIP3    H247262   1.682   0.536   4.609 -0.9228 -1.8562  1.8120
 8591TIP3   OH247263   3.699   3.458   2.769  0.4195 -0.1339  0.6105
 8591TIP3    H147264   3.764   3.466   2.839  1.1899  0.4481 -0.1583
 8591TIP3    H247265   3.679   3.364   2.766 -0.1885 -0.0678  2.1084
 8592TIP3   OH247266   0.233   3.009   1.221  0.3850  0.3257 -0.4602
 8592TIP3    H147267   0.320   3.050   1.223  0.6513 -0.1266 -2.0467
 8592TIP3    H247268   0.241   2.935   1.282  1.0202  0.4464 -0.3870
 8593TIP3   OH247269   4.935   3.426   3.719 -0.1920 -0.3532  0.6273
 8593TIP3    H147270   4.998   3.382   3.662  0.8056 -0.2320  1.6181
 8593TIP3    H247271   4.966   3.517   3.722 -0.8142 -0.1423  0.5551
 8594TIP3   OH247272   2.881   1.497   1.953  0.3209 -0.2362  0.0466
 8594TIP3    H147273   2.880   1.545   1.871 -1.4039 -1.5919 -0.7605
 8594TIP3    H247274   2.874   1.405   1.927 -1.7484 -0.5965  1.7242
 8595TIP3   OH247275   1.042   3.487   4.770  0.0724  0.0210 -0.0386
 8595TIP3    H147276   1.092   3.447   4.698  1.0280 -0.1999  0.7343
 8595TIP3    H247277   1.060   3.431   4.846 -2.0699 -0.5800  0.0573
 8596TIP3   OH247278   2.801   0.935   5.427  0.2878  0.2054 -0.1772
 8596TIP3    H147279   2.725   0.907   5.377 -0.1153 -1.4698  1.3380
 8596TIP3    H247280   2.871   0.875   5.402 -0.5778 -2.2646  3.0691
 8597TIP3   OH247281   3.955   3.545  11.212 -0.2161 -1.1159  0.5487
 8597TIP3    H147282   3.990   3.630  11.185 -1.7771 -1.0758 -1.4808
 8597TIP3    H247283   4.031   3.486  11.207  0.4350 -0.2537  0.0187
 8598TIP3   OH247284   2.568   2.910  11.938 -0.4245  0.2203  0.1462
 8598TIP3    H147285   2.569   2.949  11.851 -3.1596 -0.6355 -0.2888
 8598TIP3    H247286   2.535   2.821  11.925  0.7953 -0.5159  1.8285
 8599TIP3   OH247287   6.680   0.829  14.460  0.1615 -0.1951 -0.0074
 8599TIP3    H147288   6.664   0.737  14.481  0.3494  0.2250  2.1088
 8599TIP3    H247289   6.600   0.858  14.416  0.0062 -1.3109 -0.4544
 8600TIP3   OH247290   3.038   1.929   4.509  0.6182  0.3428  0.2158
 8600TIP3    H147291   3.071   1.842   4.486 -0.1102 -0.4476  2.0220
 8600TIP3    H247292   3.111   1.988   4.495  1.8579 -0.9263  1.2023
 8601TIP3   OH247293   5.983   6.314  16.014 -0.4717  0.6447 -0.0089
 8601TIP3    H147294   6.043   6.389  16.014 -0.1193  0.3756  1.6434
 8601TIP3    H247295   5.983   6.283  15.924  0.1685  2.0132 -0.4850
 8602TIP3   OH247296   1.220   2.065  15.903 -0.2690  0.0734  0.0489
 8602TIP3    H147297   1.288   2.050  15.838  0.0047  1.2717  0.0539
 8602TIP3    H247298   1.160   1.990  15.893 -0.3539  0.3697 -1.7342
 8603TIP3   OH247299   2.731   4.910  12.338  0.4654  0.1613  0.5175
 8603TIP3    H147300   2.711   4.829  12.384  1.8969 -0.5703 -0.1353
 8603TIP3    H247301   2.724   4.888  12.245  1.7897  0.5373  0.3196
 8604TIP3   OH247302   3.721   4.292   5.961 -0.0765  0.1723  0.0754
 8604TIP3    H147303   3.681   4.294   6.048  2.0662  2.2247  1.0615
 8604TIP3    H247304   3.811   4.263   5.976  0.7486  1.9486 -1.2406
 8605TIP3   OH247305   5.474   4.349   0.194 -0.5779 -0.0113 -0.2155
 8605TIP3    H147306   5.488   4.433   0.237  0.8055 -0.1708 -0.3563
 8605TIP3    H247307   5.459   4.371   0.102 -0.1268  0.0721 -0.2677
 8606TIP3   OH247308   0.279   0.122   5.704  0.1613  0.1689  0.0432
 8606TIP3    H147309   0.286   0.061   5.778  1.7195  0.5902  0.2602
 8606TIP3    H247310   0.356   0.178   5.712  1.0925 -0.6362 -2.6845
 8607TIP3   OH247311   0.606   1.717  16.977  0.0300 -0.2245  0.4094
 8607TIP3    H147312   0.510   1.720  16.976 -0.0121 -1.4618  0.6182
 8607TIP3    H247313   0.629   1.662  16.902  0.5699 -0.0480  0.4440
 8608TIP3   OH247314   2.106   4.672  11.316 -0.4994  0.8302 -0.3939
 8608TIP3    H147315   2.018   4.641  11.338 -0.1469  0.0821 -0.0510
 8608TIP3    H247316   2.127   4.629  11.233  0.3236 -0.5122  0.5016
 8609TIP3   OH247317   4.562   2.166  11.869  0.4261  0.0205 -0.1872
 8609TIP3    H147318   4.482   2.177  11.818 -0.6482  2.1923  1.8470
 8609TIP3    H247319   4.533   2.132  11.953  1.9750 -1.8036 -0.3505
 8610TIP3   OH247320   4.041   2.217  15.145  0.0683 -0.1484 -0.5169
 8610TIP3    H147321   4.034   2.239  15.238  1.1317 -1.1361 -0.1944
 8610TIP3    H247322   4.061   2.300  15.102 -3.1939  0.8644 -0.2431
 8611TIP3   OH247323   0.137   0.154   0.139  0.1555  0.4471 -0.3434
 8611TIP3    H147324   0.114   0.247   0.137  2.1833  0.9572 -2.7538
 8611TIP3    H247325   0.180   0.138   0.055  0.4438 -2.5230  0.3125
 8612TIP3   OH247326   6.363   2.197  16.836 -0.1049 -0.8167 -0.7472
 8612TIP3    H147327   6.268   2.200  16.826 -0.0155 -1.0024 -1.7643
 8612TIP3    H247328   6.377   2.168  16.926 -1.0079 -0.0087 -0.3372
 8613TIP3   OH247329   2.596   6.708  12.366  0.4536 -0.0100  0.1386
 8613TIP3    H147330   2.561   6.699  12.277 -1.7551  2.0683  0.7415
 8613TIP3    H247331   2.586   6.621  12.405 -1.1351 -0.2501 -0.7726
 8614TIP3   OH247332   0.180   2.955   2.410  0.3986  0.2730 -0.8406
 8614TIP3    H147333   0.230   3.021   2.361 -1.0962  1.6592 -0.5720
 8614TIP3    H247334   0.184   2.985   2.501 -0.0929 -0.1249 -0.6840
 8615TIP3   OH247335   3.004   3.672  12.776 -0.1049  0.4839  0.1578
 8615TIP3    H147336   3.069   3.741  12.783 -1.6372  2.1432 -1.4111
 8615TIP3    H247337   3.029   3.608  12.843  1.8538  2.1156  1.0203
 8616TIP3   OH247338   2.381   1.451  12.402 -0.4190  0.0310  0.0647
 8616TIP3    H147339   2.430   1.487  12.328 -0.5309  0.6287  0.2780
 8616TIP3    H247340   2.411   1.360  12.408  0.1405  0.1882 -0.2546
 8617TIP3   OH247341   5.231   5.004   1.957 -0.2475 -0.3472  0.3920
 8617TIP3    H147342   5.191   5.090   1.943  0.4814  0.2849  2.0768
 8617TIP3    H247343   5.323   5.023   1.976 -0.0497 -1.5162  0.6547
 8618TIP3   OH247344   0.661   4.294   0.020  0.2469  0.2718 -0.0940
 8618TIP3    H147345   0.610   4.313   0.099 -0.1737 -0.2454 -0.2384
 8618TIP3    H247346   0.626   4.353  -0.046  0.4825  0.5830  0.0531
 8619TIP3   OH247347   0.432   6.029  15.902 -0.2327  0.1795 -0.0523
 8619TIP3    H147348   0.471   6.076  15.828 -0.2561  0.3058  0.0143
 8619TIP3    H247349   0.468   6.073  15.979 -1.5934  1.2060  0.0173
 8620TIP3   OH247350   4.134   6.086   0.586 -0.2015 -0.0891 -0.3931
 8620TIP3    H147351   4.063   6.022   0.593 -0.9988  0.7177 -0.8644
 8620TIP3    H247352   4.150   6.094   0.492 -0.6633  0.9842 -0.3886
 8621TIP3   OH247353   3.221   2.948  14.436  0.4831 -0.2662  0.0212
 8621TIP3    H147354   3.171   2.895  14.497 -0.4750  0.0470 -0.4754
 8621TIP3    H247355   3.278   2.886  14.390 -1.2490 -1.0148 -1.1804
 8622TIP3   OH247356   2.719   1.930   0.360 -0.4461 -0.0460 -0.7236
 8622TIP3    H147357   2.656   1.992   0.398 -0.9134 -0.8091 -0.2518
 8622TIP3    H247358   2.805   1.963   0.388 -0.6964  0.3401 -0.4077
 8623TIP3   OH247359   5.314   1.672  11.797  0.2904 -0.1439 -0.2353
 8623TIP3    H147360   5.226   1.650  11.828  1.0315 -0.3640  1.8651
 8623TIP3    H247361   5.360   1.588  11.791  0.4702  0.0008 -0.9573
 8624TIP3   OH247362   6.799   6.068   3.414  0.5487  0.5664  0.3124
 8624TIP3    H147363   6.734   6.095   3.350  0.8037 -2.0197 -1.0831
 8624TIP3    H247364   6.756   6.081   3.499 -0.0942  3.1920 -0.3683
 8625TIP3   OH247365   4.773   2.057   2.659  0.6265 -1.0468 -0.3382
 8625TIP3    H147366   4.702   1.993   2.668 -1.5607  1.5026  1.5349
 8625TIP3    H247367   4.749   2.127   2.719  4.5479  0.1345  0.0085
 8626TIP3   OH247368   6.259   6.688  12.581 -0.6657 -0.1854  0.0168
 8626TIP3    H147369   6.222   6.668  12.667  2.4629 -0.8211  1.2542
 8626TIP3    H247370   6.280   6.602  12.544 -1.7505  0.0969 -1.3124
 8627TIP3   OH247371   2.398   0.251  14.245 -0.2378 -0.2635  0.0570
 8627TIP3    H147372   2.310   0.218  14.226 -0.1733 -1.9806  2.4537
 8627TIP3    H247373   2.392   0.286  14.334  2.0419 -2.6392  1.2084
 8628TIP3   OH247374   5.834   5.700  15.712  0.3524  0.3405 -0.3383
 8628TIP3    H147375   5.741   5.706  15.690  0.8530  0.1775 -2.6116
 8628TIP3    H247376   5.852   5.606  15.716  0.4985  0.3697 -0.2995
 8629TIP3   OH247377   1.714   3.929   2.220 -0.1937 -0.3912 -0.2263
 8629TIP3    H147378   1.736   3.978   2.298  0.4713 -0.2388 -0.5104
 8629TIP3    H247379   1.618   3.923   2.222 -0.2847  0.9221 -0.2028
 8630TIP3   OH247380   4.495   2.255  11.340  0.0069  0.2221  0.8306
 8630TIP3    H147381   4.444   2.331  11.368 -0.6367 -0.0558  0.4426
 8630TIP3    H247382   4.486   2.192  11.411 -0.0721  0.2307  0.8282
 8631TIP3   OH247383   5.387   3.201  16.754 -0.1694 -0.4498  0.6160
 8631TIP3    H147384   5.474   3.215  16.792 -0.6658  1.9088  0.9611
 8631TIP3    H247385   5.348   3.288  16.752 -0.7844 -0.7162 -3.7991
 8632TIP3   OH247386   3.462   5.358   0.967  0.4134  0.5206 -0.4651
 8632TIP3    H147387   3.487   5.423   0.903  2.9198 -1.6051 -1.7430
 8632TIP3    H247388   3.391   5.309   0.926 -0.6938  1.6736  0.0386
 8633TIP3   OH247389   1.795   3.628   5.482 -0.0857 -0.0836 -0.1303
 8633TIP3    H147390   1.745   3.709   5.476  1.2836  0.6952 -1.5156
 8633TIP3    H247391   1.876   3.647   5.434  0.8066 -1.8472  0.6504
 8634TIP3   OH247392   3.582   2.129  16.471  0.4965 -0.3985  0.2067
 8634TIP3    H147393   3.649   2.072  16.508  0.9468  0.8949  1.4627
 8634TIP3    H247394   3.535   2.163  16.547 -0.7717 -0.3150 -0.5990
 8635TIP3   OH247395   2.260   5.893  12.814 -0.2156 -0.3576  0.3610
 8635TIP3    H147396   2.353   5.874  12.828 -0.2459 -0.1004  0.9599
 8635TIP3    H247397   2.214   5.816  12.848 -0.1665 -1.1669 -1.3722
 8636TIP3   OH247398   1.528   4.995   1.409  0.3773  0.4629 -0.1311
 8636TIP3    H147399   1.603   5.002   1.468  0.7623 -0.4505 -0.5042
 8636TIP3    H247400   1.551   5.050   1.335 -0.1028  1.6052  0.5575
 8637TIP3   OH247401   2.419   0.426  14.472  0.4727 -0.3066 -0.5394
 8637TIP3    H147402   2.436   0.513  14.510  1.4637 -1.7129  2.3465
 8637TIP3    H247403   2.324   0.423  14.462  0.6447  2.4846 -4.1987
 8638TIP3   OH247404   0.744   5.444  16.204  0.0500  0.0182  0.4182
 8638TIP3    H147405   0.781   5.384  16.140 -0.7072  2.0682 -2.0191
 8638TIP3    H247406   0.689   5.388  16.260 -0.8769 -1.5435 -1.9524
 8639TIP3   OH247407   6.706   2.767   5.336  0.2292 -0.0826  0.2360
 8639TIP3    H147408   6.650   2.844   5.344  2.2433  1.3265  1.4421
 8639TIP3    H247409   6.769   2.791   5.267  0.9708 -0.5607  0.7420
 8640TIP3   OH247410   4.561   6.650   0.161 -0.2999  0.5863 -0.1669
 8640TIP3    H147411   4.547   6.578   0.222 -0.3693 -0.3546 -1.2956
 8640TIP3    H247412   4.653   6.673   0.172  0.4597 -1.5486 -1.8339
 8641TIP3   OH247413   0.222   2.506   0.385 -0.5354  0.8335 -0.0843
 8641TIP3    H147414   0.223   2.495   0.480 -2.3858  0.6948 -0.0644
 8641TIP3    H247415   0.294   2.566   0.367  0.4581  0.0915  1.2922
 8642TIP3   OH247416   2.577   5.368   0.314  0.6247  0.9086  0.1772
 8642TIP3    H147417   2.616   5.342   0.398 -0.2383  0.6322  0.5018
 8642TIP3    H247418   2.497   5.315   0.308  0.5023  1.1846 -0.6558
 8643TIP3   OH247419   1.150   2.392   5.690  0.4342 -0.1603 -0.6113
 8643TIP3    H147420   1.064   2.434   5.679  1.1808  1.8346  0.8194
 8643TIP3    H247421   1.213   2.459   5.663  1.6827 -0.1282  2.2291
 8644TIP3   OH247422   1.300   2.220  15.579  0.7034 -0.3627 -0.2172
 8644TIP3    H147423   1.317   2.272  15.657 -1.3253 -1.0709  0.7068
 8644TIP3    H247424   1.382   2.172  15.565  0.5549 -1.4500  2.4059
 8645TIP3   OH247425   5.022   5.682  10.859 -0.0866 -0.0595  0.3902
 8645TIP3    H147426   5.044   5.681  10.765 -0.7010  3.4422  0.1536
 8645TIP3    H247427   5.104   5.660  10.903  0.9975  1.2956 -0.8911
 8646TIP3   OH247428   0.897   6.566   0.367  0.4320  0.0324  0.2115
 8646TIP3    H147429   0.961   6.526   0.308  0.9562  0.7259  0.2990
 8646TIP3    H247430   0.818   6.514   0.356  0.1835  0.8373 -1.9190
 8647TIP3   OH247431   2.056   3.914   3.894  0.6685 -0.5249 -0.1304
 8647TIP3    H147432   1.982   3.854   3.906  0.4846 -0.5135 -1.1371
 8647TIP3    H247433   2.034   3.991   3.945  0.8238 -1.2489  1.0363
 8648TIP3   OH247434   4.528   4.997  11.438  0.5907  0.5224  0.4214
 8648TIP3    H147435   4.552   4.906  11.456  2.9918  1.5750  2.9060
 8648TIP3    H247436   4.463   5.018  11.505 -0.5452  0.4389 -0.6324
 8649TIP3   OH247437   5.607   3.400   3.645  0.5720  0.2081 -0.2688
 8649TIP3    H147438   5.616   3.495   3.654 -0.0191  0.5039 -2.6581
 8649TIP3    H247439   5.524   3.380   3.687  0.5397  0.7894 -0.0495
 8650TIP3   OH247440   2.042   0.899   5.808 -0.1876  0.1569  0.6109
 8650TIP3    H147441   2.109   0.837   5.836  0.3613  0.2853 -0.4009
 8650TIP3    H247442   1.963   0.846   5.798 -0.1619 -0.0569  1.4491
 8651TIP3   OH247443   1.746   6.724   6.163  0.1205  0.0238 -0.1669
 8651TIP3    H147444   1.670   6.764   6.205  0.5300 -0.3662  0.9675
 8651TIP3    H247445   1.710   6.649   6.115 -0.3513  0.4572 -0.4829
 8652TIP3   OH247446   6.429   1.611   3.076  0.1513 -0.4655 -0.0493
 8652TIP3    H147447   6.416   1.697   3.118  1.8967  0.2209 -0.8513
 8652TIP3    H247448   6.364   1.609   3.006  0.1606  0.2482 -0.0879
 8653TIP3   OH247449   0.586   6.328  14.328  0.1738  0.1016 -0.1586
 8653TIP3    H147450   0.579   6.272  14.405 -2.5619 -1.9340 -1.7934
 8653TIP3    H247451   0.596   6.416  14.363 -2.5077 -0.6014  2.5807
 8654TIP3   OH247452   0.946   1.253   5.037 -0.3883  0.0918 -0.1014
 8654TIP3    H147453   0.922   1.183   5.098  1.5724 -0.9991 -0.5377
 8654TIP3    H247454   0.866   1.304   5.027 -2.5480 -3.3864 -1.5208
 8655TIP3   OH247455   6.350   4.597   1.281 -0.3032 -0.1679  0.1345
 8655TIP3    H147456   6.427   4.623   1.331  0.2369 -0.8474 -0.3368
 8655TIP3    H247457   6.340   4.666   1.215 -1.8079  1.4403  1.9866
 8656TIP3   OH247458   4.984   4.288  13.228  0.0638 -0.2819  0.1190
 8656TIP3    H147459   4.964   4.202  13.191 -0.0407 -0.0057 -0.4784
 8656TIP3    H247460   4.904   4.339  13.216  0.2505  0.0165  0.1156
 8657TIP3   OH247461   3.713   3.383  13.269 -0.3567 -0.2150  0.1766
 8657TIP3    H147462   3.627   3.391  13.228  0.2761  0.7105 -1.0350
 8657TIP3    H247463   3.719   3.291  13.296 -1.0648 -0.6983 -1.2575
 8658TIP3   OH247464   1.807   3.379   3.249 -0.2180 -0.0100 -0.6240
 8658TIP3    H147465   1.842   3.449   3.193 -0.3174 -1.6102 -2.7686
 8658TIP3    H247466   1.885   3.334   3.281 -0.0825  2.1575  2.2833
 8659TIP3   OH247467   0.716   2.032  12.751 -0.4770  0.6266  0.1725
 8659TIP3    H147468   0.659   2.096  12.795 -0.0586  0.3267  1.1820
 8659TIP3    H247469   0.798   2.080  12.735 -1.1791  1.2101 -1.7447
 8660TIP3   OH247470   6.627   0.243   1.450  0.4743  0.2811  0.6804
 8660TIP3    H147471   6.678   0.316   1.486 -0.3015  0.6569  1.0314
 8660TIP3    H247472   6.559   0.227   1.516  0.8203 -0.9596  0.7443
 8661TIP3   OH247473   4.601   0.913   3.467 -0.5986 -0.3395  0.0932
 8661TIP3    H147474   4.544   0.839   3.445 -0.7471 -0.9110  2.2161
 8661TIP3    H247475   4.672   0.873   3.518  2.6941  0.0805 -3.9442
 8662TIP3   OH247476   3.024   4.352   0.713  0.0215  0.6742 -0.3989
 8662TIP3    H147477   3.040   4.281   0.650 -2.6111 -0.0661 -0.2759
 8662TIP3    H247478   3.094   4.343   0.778  0.1932 -1.3191 -0.8386
 8663TIP3   OH247479   6.454   0.189  11.172  0.5818 -0.0846 -0.7363
 8663TIP3    H147480   6.505   0.116  11.207  0.5531 -0.6597 -1.8731
 8663TIP3    H247481   6.377   0.148  11.131 -2.2451  0.9159  3.2822
 8664TIP3   OH247482   3.002   4.144   0.509 -0.2946  0.3663  0.1432
 8664TIP3    H147483   2.993   4.053   0.483  0.8409  0.4997 -0.7657
 8664TIP3    H247484   2.940   4.192   0.454 -1.2257  0.0911  0.9481
 8665TIP3   OH247485   1.869   4.617  12.990  0.5538 -0.5301 -0.0791
 8665TIP3    H147486   1.943   4.580  13.037  0.9861 -1.1742 -1.2333
 8665TIP3    H247487   1.800   4.550  12.996 -0.4309  0.6327  2.1515
 8666TIP3   OH247488   4.858   2.014   4.999  0.1954  0.2057 -0.0658
 8666TIP3    H147489   4.770   2.045   5.022  0.7893  1.5874  0.3592
 8666TIP3    H247490   4.864   1.929   5.042 -0.8336  0.2203  0.1400
 8667TIP3   OH247491   6.051   0.042   5.711  0.0436 -0.2578 -0.4743
 8667TIP3    H147492   5.955   0.044   5.703  0.0971  1.1709 -0.8398
 8667TIP3    H247493   6.081   0.007   5.627 -0.0919  0.5571 -0.8588
 8668TIP3   OH247494   5.223   2.016   4.009  0.7746 -0.4120  0.0311
 8668TIP3    H147495   5.159   2.080   3.979 -0.2933 -1.7353 -0.5529
 8668TIP3    H247496   5.182   1.973   4.085  1.3183 -0.6727  0.1877
 8669TIP3   OH247497   3.909   1.192   0.996 -0.0719  0.0813  0.0250
 8669TIP3    H147498   3.836   1.190   1.057 -2.6253  2.7006 -2.7682
 8669TIP3    H247499   3.876   1.151   0.916  1.8446  0.3390 -0.9494
 8670TIP3   OH247500   4.079   5.963  13.364 -0.2456 -0.2986  0.2274
 8670TIP3    H147501   4.069   5.898  13.433 -0.5811 -0.4446  0.0439
 8670TIP3    H247502   4.000   6.017  13.371  0.2193  0.3364  0.6374
 8671TIP3   OH247503   1.345   6.549  14.743  0.1006  0.2235 -0.1276
 8671TIP3    H147504   1.298   6.604  14.680  0.4419 -0.7194 -1.2169
 8671TIP3    H247505   1.399   6.491  14.689 -0.3263 -1.2453  0.9801
 8672TIP3   OH247506   3.350   2.504   5.604 -0.2567  0.5394 -0.1560
 8672TIP3    H147507   3.372   2.519   5.512  0.7078  0.4334  0.0501
 8672TIP3    H247508   3.271   2.450   5.602  1.5865 -2.2373 -0.9511
 8673TIP3   OH247509   5.095   2.122   5.902 -0.3664 -0.0406  0.0281
 8673TIP3    H147510   5.187   2.097   5.897 -0.7994 -1.6078 -0.7279
 8673TIP3    H247511   5.078   2.134   5.995  0.0349 -2.1256  0.3998
 8674TIP3   OH247512   6.228   5.578   4.698  0.4381 -0.2615 -0.1934
 8674TIP3    H147513   6.293   5.628   4.649 -0.1640  1.4763  0.7196
 8674TIP3    H247514   6.144   5.603   4.660 -0.0155  0.9256  1.5441
 8675TIP3   OH247515   6.694   0.584  11.751 -0.6044 -0.0457 -0.1763
 8675TIP3    H147516   6.667   0.674  11.730 -2.3589 -0.0399  1.8088
 8675TIP3    H247517   6.782   0.576  11.717 -0.8591  2.0721 -1.4062
 8676TIP3   OH247518   0.356   1.198   4.865  0.4877  0.1079  0.0199
 8676TIP3    H147519   0.324   1.126   4.920 -2.4400  0.8341 -0.6150
 8676TIP3    H247520   0.447   1.210   4.890 -0.1180 -1.1759  2.9772
 8677TIP3   OH247521   1.852   6.368   5.796  0.4205  0.3351 -0.3451
 8677TIP3    H147522   1.885   6.278   5.788 -1.2353 -0.2890 -0.3126
 8677TIP3    H247523   1.874   6.409   5.713 -0.1763 -0.5762 -0.9620
 8678TIP3   OH247524   1.445   3.198   1.903 -0.4058 -0.3103  0.1442
 8678TIP3    H147525   1.537   3.174   1.906 -0.0631  1.0604  1.0794
 8678TIP3    H247526   1.413   3.183   1.992 -0.8415  0.1269  0.0684
 8679TIP3   OH247527   3.001   2.326  15.146 -0.4280 -0.3476  0.5400
 8679TIP3    H147528   2.930   2.360  15.200 -1.7065 -1.9849 -0.0661
 8679TIP3    H247529   3.000   2.232  15.161  0.3058 -0.6242 -1.0505
 8680TIP3   OH247530   4.158   6.423   4.429 -0.2799 -0.1951  0.2246
 8680TIP3    H147531   4.153   6.499   4.488  1.7146 -0.7229  1.0977
 8680TIP3    H247532   4.222   6.365   4.469 -0.0564 -1.2983 -1.6634
 8681TIP3   OH247533   6.519   5.728  13.663  0.3525 -0.1379 -0.3310
 8681TIP3    H147534   6.555   5.715  13.751  0.4169  1.4420 -0.1081
 8681TIP3    H247535   6.468   5.809  13.670 -0.3005 -0.4291 -1.5540
 8682TIP3   OH247536   3.834   3.585   3.414 -0.3216  0.1985 -0.0662
 8682TIP3    H147537   3.918   3.609   3.452 -1.4833  1.2993  1.8964
 8682TIP3    H247538   3.820   3.649   3.344 -0.6127  1.5583  1.1966
 8683TIP3   OH247539   1.147   4.898   2.122 -0.3611 -0.1538 -0.5177
 8683TIP3    H147540   1.084   4.892   2.194  1.6407 -1.7531  1.1495
 8683TIP3    H247541   1.122   4.978   2.075 -3.6025 -0.7348  0.0982
 8684TIP3   OH247542   0.515   5.614  16.057  0.3329  0.0778  0.7598
 8684TIP3    H147543   0.466   5.634  16.137 -0.3865 -0.0991  0.3780
 8684TIP3    H247544   0.581   5.683  16.051 -0.3619  0.7712  0.9020
 8685TIP3   OH247545   0.717   6.273   2.976  0.0136  0.5264  0.1547
 8685TIP3    H147546   0.685   6.355   3.015  0.5925  1.2161 -0.7935
 8685TIP3    H247547   0.654   6.207   3.003 -0.4071  1.2731  1.0168
 8686TIP3   OH247548   6.442   5.175   1.242 -0.1478  0.3717 -0.0242
 8686TIP3    H147549   6.417   5.208   1.156 -0.5375  1.5411  0.5209
 8686TIP3    H247550   6.455   5.254   1.295  0.4706 -0.3230  0.8815
 8687TIP3   OH247551   1.633   3.702   3.425  0.2228 -0.1051 -0.3780
 8687TIP3    H147552   1.635   3.770   3.357  0.2770  0.1765 -0.0971
 8687TIP3    H247553   1.559   3.725   3.481  0.4347 -0.0945 -0.0967
 8688TIP3   OH247554   6.535   3.542  12.654 -0.4763 -0.2476  0.4785
 8688TIP3    H147555   6.553   3.601  12.581 -0.8994  0.3501  0.8520
 8688TIP3    H247556   6.446   3.512  12.639 -0.7481  0.2762  1.0162
 8689TIP3   OH247557   3.958   1.386   4.569 -0.3606  0.5733  0.5845
 8689TIP3    H147558   3.954   1.464   4.513 -0.3643  1.1260  1.3386
 8689TIP3    H247559   3.896   1.325   4.530 -1.1484  1.3566  0.5805
 8690TIP3   OH247560   0.875   5.788  13.479 -0.6035 -0.6641 -0.7231
 8690TIP3    H147561   0.943   5.789  13.412 -1.8599 -1.3121 -2.0428
 8690TIP3    H247562   0.915   5.744  13.554  0.2383 -1.5560 -1.6809
 8691TIP3   OH247563   4.339   3.952   0.020 -0.0079 -0.0197  0.1604
 8691TIP3    H147564   4.379   3.974   0.105 -0.7884  0.5155  0.3907
 8691TIP3    H247565   4.307   3.863   0.031  2.8671 -1.2103 -0.6636
 8692TIP3   OH247566   3.990   0.469  14.140  0.2643 -0.1213 -0.3260
 8692TIP3    H147567   4.015   0.472  14.048  0.0882 -1.3792 -0.4249
 8692TIP3    H247568   3.999   0.377  14.164  0.8309  0.2883  1.0622
 8693TIP3   OH247569   3.603   4.272   3.509 -0.2975  0.0034 -0.5508
 8693TIP3    H147570   3.530   4.210   3.515 -0.5248  0.0642 -2.5233
 8693TIP3    H247571   3.673   4.223   3.466  0.3765  0.3694  0.1102
 8694TIP3   OH247572   3.668   0.423   5.189  0.2868 -0.1043 -0.2060
 8694TIP3    H147573   3.613   0.470   5.126 -0.9452 -0.6404  0.4388
 8694TIP3    H247574   3.707   0.352   5.138 -2.7087 -2.0820  0.1381
 8695TIP3   OH247575   2.850   4.530   0.887 -0.1519  0.0297  0.0531
 8695TIP3    H147576   2.896   4.532   0.803 -0.0578 -0.6559  0.0831
 8695TIP3    H247577   2.905   4.475   0.943  0.0830  0.9635  0.7394
 8696TIP3   OH247578   3.674   5.767  14.834 -0.4798 -0.3745 -0.1080
 8696TIP3    H147579   3.604   5.704  14.851 -2.7299  2.2654  0.6942
 8696TIP3    H247580   3.710   5.786  14.921 -2.2721  2.1382  0.1489
 8697TIP3   OH247581   2.389   1.261  14.794 -0.4545 -0.3080 -0.7945
 8697TIP3    H147582   2.331   1.225  14.861  0.2139  1.0037  0.5189
 8697TIP3    H247583   2.458   1.195  14.784 -0.8632 -0.7650 -0.5965
 8698TIP3   OH247584   4.361   6.047  14.868 -0.6084 -0.0730 -0.4964
 8698TIP3    H147585   4.416   6.038  14.790  0.1966 -1.1021  0.1817
 8698TIP3    H247586   4.321   6.134  14.859  0.1886  0.1905 -1.5971
 8699TIP3   OH247587   2.313   6.314  12.356  0.4651  0.3331  0.3836
 8699TIP3    H147588   2.295   6.372  12.430  1.0040  1.2555 -0.2000
 8699TIP3    H247589   2.241   6.331  12.295 -0.5057 -1.1195  1.0879
 8700TIP3   OH247590   3.348   2.679  15.687  0.1274  0.3283 -0.4030
 8700TIP3    H147591   3.296   2.748  15.646  0.3934 -1.7716 -4.5756
 8700TIP3    H247592   3.283   2.620  15.724 -0.2671  0.6262 -0.6152
 8701TIP3   OH247593   5.003   5.512   4.704  0.2214 -0.4967  0.1975
 8701TIP3    H147594   4.919   5.473   4.680 -0.3072  0.3749  0.6336
 8701TIP3    H247595   5.054   5.438   4.740 -0.5206 -0.9315  0.3649
 8702TIP3   OH247596   3.651   0.273  11.736 -0.5630  0.3648  0.2987
 8702TIP3    H147597   3.637   0.345  11.675 -0.4183  0.6720  0.6250
 8702TIP3    H247598   3.584   0.209  11.714 -0.7289  0.6251  0.0466
 8703TIP3   OH247599   2.418   5.526  12.570 -0.2562 -0.1938  0.1891
 8703TIP3    H147600   2.407   5.620  12.558 -1.6952  0.0444  2.8364
 8703TIP3    H247601   2.380   5.487  12.492  1.0370  1.4239 -1.2845
 8704TIP3   OH247602   6.368   5.075  16.409  0.2237  0.4043 -0.2628
 8704TIP3    H147603   6.346   5.162  16.376  0.1554  1.0273  1.3855
 8704TIP3    H247604   6.290   5.048  16.458  0.0268 -0.8317 -1.2288
 8705TIP3   OH247605   1.367   6.512  14.332 -0.5138  0.4862 -0.6292
 8705TIP3    H147606   1.404   6.463  14.404 -0.5568  0.6297 -0.5085
 8705TIP3    H247607   1.415   6.483  14.255 -0.2706  0.5459 -0.4996
 8706TIP3   OH247608   6.690   6.145  14.442 -0.1935 -0.2391 -0.0485
 8706TIP3    H147609   6.665   6.152  14.349  0.4073 -0.6888 -0.2444
 8706TIP3    H247610   6.772   6.193  14.448 -1.5735  2.1089  0.8063
 8707TIP3   OH247611   5.051   0.796   3.312 -0.1702 -0.0745 -0.1487
 8707TIP3    H147612   5.062   0.866   3.248 -0.1321 -0.4565 -0.5591
 8707TIP3    H247613   5.128   0.739   3.299  1.3739  1.3749  2.1682
 8708TIP3   OH247614   1.919   4.842  14.770  0.2924  0.3379  0.2014
 8708TIP3    H147615   1.939   4.748  14.770 -0.7374  0.0992 -1.4083
 8708TIP3    H247616   1.915   4.865  14.863 -3.6999 -2.1503  0.7814
 8709TIP3   OH247617   6.644   4.879   2.999  0.0170 -0.3472 -0.0225
 8709TIP3    H147618   6.647   4.793   3.041  1.8418 -0.6128 -0.6327
 8709TIP3    H247619   6.735   4.897   2.975 -0.2725  1.9504  0.4653
 8710TIP3   OH247620   5.935   6.436   1.406  0.4087  0.0328 -0.5509
 8710TIP3    H147621   5.884   6.432   1.325  0.0292  0.4416 -0.3381
 8710TIP3    H247622   5.916   6.523   1.442 -1.2061 -0.9534  1.1028
 8711TIP3   OH247623   1.562   2.867  14.593 -0.0659 -0.8459  0.5454
 8711TIP3    H147624   1.587   2.940  14.650  0.5729 -0.2013 -0.5490
 8711TIP3    H247625   1.466   2.863  14.600 -0.0826 -0.0879  0.8264
 8712TIP3   OH247626   2.628   5.636  16.368 -0.2038  0.1125 -0.2997
 8712TIP3    H147627   2.548   5.644  16.315 -0.1007  2.4784 -0.1547
 8712TIP3    H247628   2.650   5.726  16.392  1.7018 -0.6373  0.8919
 8713TIP3   OH247629   4.399   5.787  14.882 -0.0601 -0.2446  0.2519
 8713TIP3    H147630   4.333   5.853  14.901 -0.0315 -0.9966  3.2362
 8713TIP3    H247631   4.378   5.757  14.793 -2.3556  1.0825  0.3029
 8714TIP3   OH247632   0.309   1.080  13.915  0.0735 -0.0373 -0.3483
 8714TIP3    H147633   0.319   1.157  13.860 -1.6553  1.3572  1.2498
 8714TIP3    H247634   0.374   1.018  13.881  3.3002  3.0051 -0.0089
 8715TIP3   OH247635   3.300   5.615   5.590  0.2417  0.1563  0.3084
 8715TIP3    H147636   3.331   5.706   5.597 -1.9653  0.9726 -0.1276
 8715TIP3    H247637   3.360   5.574   5.528 -1.6651  2.7180 -3.4080
 8716TIP3   OH247638   2.232   1.979   6.753  0.1909 -0.3937  0.0399
 8716TIP3    H147639   2.174   1.912   6.789  0.2877  0.2551  1.4279
 8716TIP3    H247640   2.258   2.031   6.828 -0.4164  1.6329 -1.1031
 8717TIP3   OH247641   6.601   5.600  12.849 -0.1643 -0.4533 -0.5107
 8717TIP3    H147642   6.619   5.520  12.800  0.7246 -0.5502 -0.0355
 8717TIP3    H247643   6.685   5.646  12.852 -0.6377  0.4390 -0.6784
 8718TIP3   OH247644   2.501   3.006  12.713  0.1354  0.2724  0.0865
 8718TIP3    H147645   2.485   2.936  12.776  0.3018  0.7741  0.6971
 8718TIP3    H247646   2.472   2.971  12.629 -0.0596 -0.4133  0.4415
 8719TIP3   OH247647   5.651   4.665  15.130  0.8491 -0.0562  0.1251
 8719TIP3    H147648   5.668   4.596  15.067  2.1339 -0.5252  0.9754
 8719TIP3    H247649   5.589   4.627  15.192 -1.1641  0.7145 -1.3467
 8720TIP3   OH247650   6.501   5.401   5.712  0.4490  0.4918  0.1359
 8720TIP3    H147651   6.444   5.431   5.782  1.0830 -2.7046  2.1364
 8720TIP3    H247652   6.589   5.418   5.744  0.7619 -1.6116  0.4858
 8721TIP3   OH247653   4.441   4.086  14.270 -0.3025  0.7223 -0.3390
 8721TIP3    H147654   4.514   4.073  14.330 -0.6148 -0.3525 -0.1819
 8721TIP3    H247655   4.384   4.148  14.316 -0.1161  0.5732  0.1013
 8722TIP3   OH247656   4.042   2.324   3.030  0.0918  0.2604 -0.0054
 8722TIP3    H147657   4.056   2.326   3.124 -2.6904 -1.3568  0.5052
 8722TIP3    H247658   4.098   2.394   2.996  1.1649  0.8449  2.8191
 8723TIP3   OH247659   1.408   1.705   1.853  0.3112 -0.6370 -0.0513
 8723TIP3    H147660   1.503   1.707   1.869  0.6431 -0.0893 -2.0391
 8723TIP3    H247661   1.381   1.618   1.885  1.3808 -0.6061  0.9851
 8724TIP3   OH247662   6.191   0.699   5.154  0.4166 -0.2555  0.0215
 8724TIP3    H147663   6.175   0.645   5.076  2.6812 -1.3068  0.2481
 8724TIP3    H247664   6.286   0.698   5.165  0.4009  2.7057  0.8446
 8725TIP3   OH247665   3.880   0.506   5.953 -0.9747  0.0530  0.1952
 8725TIP3    H147666   3.924   0.421   5.959 -0.7464  0.0334 -1.5180
 8725TIP3    H247667   3.933   0.565   6.007 -0.0875 -0.4740 -0.1021
 8726TIP3   OH247668   4.775   5.400   2.387 -0.4150  0.1149 -0.1792
 8726TIP3    H147669   4.786   5.436   2.299  1.0773 -1.3211 -0.6048
 8726TIP3    H247670   4.861   5.365   2.410 -0.7427  0.5995  1.9346
 8727TIP3   OH247671   6.314   4.145   1.920 -0.2477  0.5863 -0.4411
 8727TIP3    H147672   6.375   4.173   1.852 -0.2224 -1.0299 -1.0993
 8727TIP3    H247673   6.240   4.107   1.873  0.3271 -1.6804  0.4150
 8728TIP3   OH247674   2.839   1.684  14.867 -0.6647 -0.6361  0.9015
 8728TIP3    H147675   2.874   1.762  14.909 -2.7145 -0.2281  1.9098
 8728TIP3    H247676   2.906   1.617  14.882  1.8604  1.2849 -1.3892
 8729TIP3   OH247677   2.295   4.052  14.240 -0.0159  0.5795 -0.2515
 8729TIP3    H147678   2.311   3.999  14.318  0.0424  2.6958  1.2269
 8729TIP3    H247679   2.362   4.023  14.178  2.0055  1.0297  1.6256
 8730TIP3   OH247680   4.715   3.093   0.607 -0.0798  0.2600 -0.4462
 8730TIP3    H147681   4.656   3.019   0.594 -0.4869  0.5343 -0.1813
 8730TIP3    H247682   4.662   3.170   0.584 -0.4059  0.6473  1.5153
 8731TIP3   OH247683   1.638   4.002   3.565  0.3762  0.1717  0.8234
 8731TIP3    H147684   1.730   3.975   3.561 -0.4946 -2.7089 -0.4576
 8731TIP3    H247685   1.617   4.029   3.476  0.0449  1.2006  1.1993
 8732TIP3   OH247686   5.744   1.454   0.265 -0.0594 -0.1582  0.2632
 8732TIP3    H147687   5.809   1.440   0.196  0.8323 -1.1027  1.2737
 8732TIP3    H247688   5.666   1.484   0.219  1.5768  2.6463 -0.8375
 8733TIP3   OH247689   5.535   4.802   4.690  0.4362  0.7144  0.3665
 8733TIP3    H147690   5.535   4.889   4.730  0.5489  1.4650 -1.2070
 8733TIP3    H247691   5.599   4.808   4.619 -1.4553  0.1484 -1.4254
 8734TIP3   OH247692   5.277   6.112  11.705 -0.5220  0.0933  0.1940
 8734TIP3    H147693   5.350   6.057  11.734 -0.9334 -0.8224 -0.4875
 8734TIP3    H247694   5.245   6.070  11.626  0.3434  2.3509 -1.4161
 8735TIP3   OH247695   0.580   5.977  15.376  1.0455 -0.5225  0.6312
 8735TIP3    H147696   0.622   6.063  15.364 -0.1986  0.1254  0.8017
 8735TIP3    H247697   0.642   5.915  15.337  2.1918  0.3946  0.9419
 8736TIP3   OH247698   4.589   5.987   2.083  0.1123 -0.3543  0.3704
 8736TIP3    H147699   4.504   5.953   2.054  0.9340 -0.7859 -1.5819
 8736TIP3    H247700   4.650   5.915   2.070  0.8075 -0.0171  1.6929
 8737TIP3   OH247701   6.406   2.237  13.964 -0.1324  0.3032 -0.0243
 8737TIP3    H147702   6.380   2.319  13.922  0.0138  1.2940  1.7983
 8737TIP3    H247703   6.409   2.257  14.057  0.0387 -1.7466  0.4355
 8738TIP3   OH247704   6.799   2.033  12.554 -0.5280  0.4367 -0.3131
 8738TIP3    H147705   6.828   1.998  12.638  0.8266  1.2987 -0.3982
 8738TIP3    H247706   6.803   2.128  12.565 -0.5033  0.5576 -1.2844
 8739TIP3   OH247707   6.362   2.105  15.142  0.0785 -0.1885  0.6526
 8739TIP3    H147708   6.311   2.164  15.087  2.1556  1.0987  0.0492
 8739TIP3    H247709   6.296   2.054  15.189 -1.7562  1.1267 -0.3911
 8740TIP3   OH247710   1.510   1.118  14.808  0.7861  0.3403  0.5380
 8740TIP3    H147711   1.550   1.061  14.874 -2.9135 -2.4743  0.5376
 8740TIP3    H247712   1.562   1.104  14.729  0.6167 -2.2305  0.8534
 8741TIP3   OH247713   5.050   4.128   3.987  0.0703 -0.4805 -0.3600
 8741TIP3    H147714   5.077   4.149   4.077  0.2173  2.0106 -0.9704
 8741TIP3    H247715   5.130   4.137   3.935 -0.2966 -0.6535 -0.9600
 8742TIP3   OH247716   2.348   3.583  14.871  0.1083 -0.6022  0.3748
 8742TIP3    H147717   2.362   3.616  14.960 -0.1727 -0.8595  0.5136
 8742TIP3    H247718   2.437   3.566  14.838  0.1796 -1.3391  0.9233
 8743TIP3   OH247719   4.203   1.453  12.509  0.1806 -0.1188 -0.5122
 8743TIP3    H147720   4.134   1.412  12.562 -1.3826  1.6138 -1.1655
 8743TIP3    H247721   4.157   1.516  12.454  1.9941 -0.7683 -2.8267
 8744TIP3   OH247722   4.917   1.739  11.899 -0.7136  0.1993  0.3759
 8744TIP3    H147723   4.934   1.671  11.964  1.1673 -0.1644 -0.4486
 8744TIP3    H247724   4.895   1.691  11.819  2.0962  0.4486 -0.6184
 8745TIP3   OH247725   1.784   0.565  10.420 -0.4405  0.7512  0.0800
 8745TIP3    H147726   1.750   0.639  10.369 -0.1862 -0.2241 -1.5218
 8745TIP3    H247727   1.709   0.506  10.428  0.3837 -0.6534 -2.0753
 8746TIP3   OH247728   4.766   3.722  11.185 -0.1824  0.6171  0.3847
 8746TIP3    H147729   4.762   3.692  11.094  0.9827  0.5937  0.3395
 8746TIP3    H247730   4.733   3.649  11.236 -0.9492  0.6685 -0.0180
 8747TIP3   OH247731   5.606   2.352   3.441  0.2497 -0.6807 -0.0596
 8747TIP3    H147732   5.563   2.408   3.504 -0.1970 -0.3024 -0.6955
 8747TIP3    H247733   5.619   2.269   3.487 -1.6035 -0.9659 -0.0116
 8748TIP3   OH247734   1.909   0.827  14.680  0.1213 -0.1275  0.0367
 8748TIP3    H147735   1.932   0.736  14.659 -1.2517 -0.4699 -0.0386
 8748TIP3    H247736   1.825   0.841  14.636  0.2149  1.0981  0.2507
 8749TIP3   OH247737   4.529   3.135  17.263 -0.3729 -0.0572  0.2401
 8749TIP3    H147738   4.529   3.202  17.332 -3.2129  0.1417  0.0844
 8749TIP3    H247739   4.466   3.167  17.199  0.4993 -1.4191 -1.3323
 8750TIP3   OH247740   0.359   1.187   1.354 -0.4821 -0.0961  0.2161
 8750TIP3    H147741   0.438   1.234   1.324  0.4091 -0.4563  1.9297
 8750TIP3    H247742   0.372   1.097   1.325 -0.1636 -0.1954  0.6587
 8751TIP3   OH247743   1.384   6.622   3.413  0.0028 -0.4727 -0.0758
 8751TIP3    H147744   1.349   6.533   3.422  1.2391 -0.9204  0.5127
 8751TIP3    H247745   1.451   6.628   3.481  0.2652  0.7456 -0.4303
 8752TIP3   OH247746   3.006   1.839  12.982  0.3830 -0.0633 -0.5218
 8752TIP3    H147747   3.019   1.919  12.932  1.3265  0.3935  0.4309
 8752TIP3    H247748   2.940   1.862  13.047  1.2381  0.1958  0.2715
 8753TIP3   OH247749   2.063   6.511   0.502  0.4576  0.2083  0.3387
 8753TIP3    H147750   2.058   6.606   0.507 -1.3443  0.1501 -0.2718
 8753TIP3    H247751   2.073   6.483   0.593 -0.7203  0.8860  0.6883
 8754TIP3   OH247752   5.742   2.314   3.804  0.1270 -0.0345  0.0194
 8754TIP3    H147753   5.793   2.367   3.743  0.1394  0.2970  0.3160
 8754TIP3    H247754   5.693   2.377   3.857  1.9607 -0.1993  1.9916
 8755TIP3   OH247755   6.072   6.122   4.577 -0.5486  0.6851 -1.1198
 8755TIP3    H147756   6.082   6.121   4.482  0.2356 -0.6939 -1.0396
 8755TIP3    H247757   5.994   6.068   4.593  0.5787 -0.9097 -0.8705
 8756TIP3   OH247758   4.112   1.626   3.350 -0.0849  0.1485 -0.2862
 8756TIP3    H147759   4.157   1.583   3.278  0.4644 -0.9107  0.6792
 8756TIP3    H247760   4.025   1.586   3.352 -0.0986  0.1763 -0.3635
 8757TIP3   OH247761   2.774   2.222   2.581 -0.5066  0.4925  0.2141
 8757TIP3    H147762   2.789   2.219   2.486  0.2131 -1.3145  0.3733
 8757TIP3    H247763   2.701   2.282   2.591 -0.6891  0.5912 -1.5121
 8758TIP3   OH247764   4.616   0.293   6.360  0.6310  0.3011  0.4740
 8758TIP3    H147765   4.600   0.265   6.270  2.0428 -0.1690  0.3711
 8758TIP3    H247766   4.677   0.366   6.352  2.1781 -0.9105  1.1620
 8759TIP3   OH247767   4.364   6.029   3.432  0.0562 -0.2590  0.1395
 8759TIP3    H147768   4.365   6.122   3.453  1.5933 -0.2783  0.2409
 8759TIP3    H247769   4.344   5.986   3.516  1.7383 -0.1156  0.6403
 8760TIP3   OH247770   0.918   2.172   1.906  0.2138  0.4742 -0.4274
 8760TIP3    H147771   0.920   2.231   1.831 -0.2221  0.5938 -0.3446
 8760TIP3    H247772   0.825   2.161   1.927  0.3296  0.4501  0.1011
 8761TIP3   OH247773   4.787   6.032   2.884  0.0717  0.2075 -0.1935
 8761TIP3    H147774   4.694   6.044   2.864 -0.9162 -2.7132  2.2568
 8761TIP3    H247775   4.822   5.984   2.809 -1.5470 -2.8706  0.9492
 8762TIP3   OH247776   4.170   5.509   1.722  0.0080 -0.3186 -0.2397
 8762TIP3    H147777   4.254   5.506   1.678 -0.4353 -0.1941 -1.0998
 8762TIP3    H247778   4.106   5.484   1.655 -0.5820 -0.9845  0.5590
 8763TIP3   OH247779   6.342   3.518  15.910 -0.3744 -0.5264  0.3268
 8763TIP3    H147780   6.423   3.490  15.868  0.3210  0.2910  1.1008
 8763TIP3    H247781   6.296   3.570  15.844  0.4212  0.2270  0.3596
 8764TIP3   OH247782   5.504   3.859   3.288 -0.2068 -0.5845  0.1478
 8764TIP3    H147783   5.438   3.791   3.274  1.1124 -2.4577  2.6049
 8764TIP3    H247784   5.583   3.810   3.312  2.0392  1.5998 -2.4203
 8765TIP3   OH247785   0.332   2.391  15.869 -0.1855  0.2304 -0.4761
 8765TIP3    H147786   0.301   2.388  15.778  0.1697 -0.1989 -0.5857
 8765TIP3    H247787   0.291   2.469  15.906 -2.1184 -0.7942 -0.3667
 8766TIP3   OH247788   0.854   5.346   1.379 -0.0226  1.0262  0.0057
 8766TIP3    H147789   0.892   5.417   1.430 -0.1145  1.0701  0.0121
 8766TIP3    H247790   0.852   5.378   1.289  2.4117  0.0269 -0.4417
 8767TIP3   OH247791   5.914   2.958  13.632  0.2483  0.6000  0.2370
 8767TIP3    H147792   5.989   3.012  13.608  1.9650 -1.1794  1.4574
 8767TIP3    H247793   5.898   2.904  13.555  1.1775 -0.0526  0.4907
 8768TIP3   OH247794   6.460   1.392  14.210  0.3012 -0.1030  0.5360
 8768TIP3    H147795   6.547   1.431  14.204  0.6435 -1.1185 -1.7828
 8768TIP3    H247796   6.474   1.310  14.258  0.6801 -0.3563  0.0034
 8769TIP3   OH247797   6.363   1.599  14.404 -0.1553 -0.5225  0.2275
 8769TIP3    H147798   6.399   1.541  14.336  1.0333 -1.2949  1.4765
 8769TIP3    H247799   6.346   1.540  14.478 -1.7140  0.2591  0.5172
 8770TIP3   OH247800   1.303   6.155  11.800 -0.4085 -0.5128 -0.3461
 8770TIP3    H147801   1.258   6.078  11.766  0.0944 -0.3946 -1.3013
 8770TIP3    H247802   1.389   6.152  11.759 -1.0782  1.6619 -2.0167
 8771TIP3   OH247803   3.511   1.784  16.522  0.0156 -0.1982  0.5958
 8771TIP3    H147804   3.517   1.797  16.428  0.2318 -0.9387  0.5041
 8771TIP3    H247805   3.597   1.752  16.548 -0.1022 -0.1812  1.0160
 8772TIP3   OH247806   4.997   1.124  11.836 -0.0932  0.0951 -0.2166
 8772TIP3    H147807   5.030   1.119  11.746  2.8502  1.0934  0.7488
 8772TIP3    H247808   4.964   1.036  11.854  0.9731 -0.6182 -1.6511
 8773TIP3   OH247809   2.005   4.268  14.758 -0.1328  1.0693 -0.3967
 8773TIP3    H147810   1.977   4.259  14.667 -0.8484 -0.7287 -0.0253
 8773TIP3    H247811   1.929   4.242  14.809  0.1144  2.5073  0.7387
 8774TIP3   OH247812   6.359   0.038  17.114 -0.4830 -0.2530  0.3318
 8774TIP3    H147813   6.273   0.010  17.081 -1.0040  0.9162  0.6849
 8774TIP3    H247814   6.421   0.006  17.048 -1.1686 -1.2039  0.1269
 8775TIP3   OH247815   4.807   0.316   5.211  0.8781  0.1345  0.1080
 8775TIP3    H147816   4.731   0.321   5.268 -0.0002 -1.7369 -0.8472
 8775TIP3    H247817   4.882   0.328   5.269 -0.0304 -0.8595  1.5157
 8776TIP3   OH247818   6.232   2.164   3.043  0.6489  0.3542 -0.3743
 8776TIP3    H147819   6.209   2.257   3.049  0.3479  0.4370 -2.3735
 8776TIP3    H247820   6.327   2.162   3.045  0.7055  0.8659 -1.9985
 8777TIP3   OH247821   0.168   1.931  13.906 -0.3029 -0.2011  0.0228
 8777TIP3    H147822   0.199   1.942  13.996 -0.2280 -1.0189  0.1073
 8777TIP3    H247823   0.187   2.014  13.863 -0.0574  0.0877  0.6844
 8778TIP3   OH247824   6.557   0.212   1.909 -0.3527 -0.0777 -0.1115
 8778TIP3    H147825   6.487   0.191   1.971 -0.2553 -1.4797 -0.4484
 8778TIP3    H247826   6.551   0.307   1.896 -0.2590  0.2503  2.1702
 8779TIP3   OH247827   2.943   0.407  15.356 -0.5877 -0.3374 -0.1423
 8779TIP3    H147828   3.039   0.400  15.353 -0.3891  1.1645  1.6361
 8779TIP3    H247829   2.923   0.424  15.448 -2.6137 -1.0789 -0.4228
 8780TIP3   OH247830   6.558   3.063  12.362  0.0032  0.1987 -0.6793
 8780TIP3    H147831   6.505   2.983  12.366 -0.6382  0.6555  0.0389
 8780TIP3    H247832   6.503   3.125  12.315 -0.6154  1.0618  1.1520
 8781TIP3   OH247833   0.364   2.517   6.155  0.2303 -0.3638 -0.1439
 8781TIP3    H147834   0.418   2.585   6.196  1.8161 -0.6739 -1.6314
 8781TIP3    H247835   0.328   2.466   6.227  0.4475  0.9815  0.9283
 8782TIP3   OH247836   5.994   2.488  15.622 -0.0070  0.2848  0.2967
 8782TIP3    H147837   6.070   2.539  15.650 -0.4184  0.5834  0.8929
 8782TIP3    H247838   6.024   2.439  15.546  1.0793 -0.3691  1.1215
 8783TIP3   OH247839   6.078   6.337  15.452 -0.0479  0.5755 -0.0146
 8783TIP3    H147840   6.043   6.426  15.458  2.1217  1.4191  0.4576
 8783TIP3    H247841   6.133   6.327  15.529  1.5559 -0.3456 -1.2368
 8784TIP3   OH247842   0.779   1.752  12.777  0.3852 -0.0748  0.1573
 8784TIP3    H147843   0.729   1.831  12.760  0.0878 -0.6676 -1.8060
 8784TIP3    H247844   0.847   1.751  12.710 -0.2649 -1.9917 -0.5187
 8785TIP3   OH247845   1.942   1.551  13.704 -0.0967  0.0343 -0.3241
 8785TIP3    H147846   1.956   1.479  13.766 -0.9404 -0.3606 -0.5836
 8785TIP3    H247847   1.973   1.629  13.750 -3.5174  0.2533  1.8525
 8786TIP3   OH247848   0.623   1.117   1.531 -0.1238 -0.1479 -0.1318
 8786TIP3    H147849   0.665   1.195   1.494  0.9894 -1.3921 -1.5278
 8786TIP3    H247850   0.631   1.129   1.626  0.2278  1.3307 -0.3285
 8787TIP3   OH247851   0.912   0.506  11.426  0.5950  0.4555  0.4104
 8787TIP3    H147852   0.830   0.536  11.389  0.8022 -0.8597 -1.2138
 8787TIP3    H247853   0.890   0.424  11.471  0.8348  0.6178  0.8245
 8788TIP3   OH247854   0.641   4.018  14.357 -0.3539 -0.3525 -0.1659
 8788TIP3    H147855   0.605   4.084  14.298  1.3710  0.8675  0.0989
 8788TIP3    H247856   0.569   3.999  14.418 -0.9137  1.2143 -0.3021
 8789TIP3   OH247857   5.812   2.945  14.976 -0.6301 -0.7743 -0.0507
 8789TIP3    H147858   5.741   2.890  14.944 -1.1765 -0.2791  0.3044
 8789TIP3    H247859   5.854   2.894  15.046 -1.8304 -0.3016  1.0384
 8790TIP3   OH247860   0.406   5.485   0.928 -0.4497  0.3824  0.1564
 8790TIP3    H147861   0.445   5.482   0.840 -1.8495  2.8612 -0.5971
 8790TIP3    H247862   0.334   5.421   0.924 -1.5946  1.7030 -1.0952
 8791TIP3   OH247863   3.246   2.136  15.378  0.0452  0.0963 -0.2075
 8791TIP3    H147864   3.254   2.089  15.461 -0.8064 -0.5038 -0.4568
 8791TIP3    H247865   3.298   2.215  15.390  0.7246 -0.4525  0.5575
 8792TIP3   OH247866   4.208   1.182   5.238  0.1275 -0.4597 -0.8192
 8792TIP3    H147867   4.263   1.178   5.160 -0.3227 -1.1458 -1.1072
 8792TIP3    H247868   4.250   1.123   5.301 -0.8925 -1.8793 -1.4423
 8793TIP3   OH247869   1.745   5.681   1.991 -0.0054 -0.3915  0.1775
 8793TIP3    H147870   1.706   5.661   1.905  0.4198  0.7893 -0.2997
 8793TIP3    H247871   1.670   5.710   2.044 -0.0177  0.4980 -0.3098
 8794TIP3   OH247872   2.031   0.778  17.089  0.2437 -0.9289 -0.7589
 8794TIP3    H147873   2.104   0.837  17.107  0.2120 -1.3783  0.9053
 8794TIP3    H247874   2.054   0.697  17.134 -1.5057 -0.9016  0.2411
 8795TIP3   OH247875   1.266   5.027   1.219  0.3692 -0.0054 -0.4623
 8795TIP3    H147876   1.240   4.974   1.294 -0.9713  1.6780  0.3011
 8795TIP3    H247877   1.323   5.095   1.256  0.2755  0.4217 -1.0830
 8796TIP3   OH247878   3.671   5.973   4.345  0.1285  0.1357  0.0384
 8796TIP3    H147879   3.675   6.005   4.435  4.2095 -1.0085  0.3272
 8796TIP3    H247880   3.695   5.881   4.350  0.2817  0.0112 -2.2288
 8797TIP3   OH247881   1.957   5.016  16.621  0.3102 -0.1175  0.0137
 8797TIP3    H147882   1.921   5.055  16.701  0.6066  0.0381  0.0728
 8797TIP3    H247883   2.021   4.952  16.652 -0.4954 -0.9671 -0.0724
 8798TIP3   OH247884   1.706   6.519   3.172 -0.2293  0.4558 -0.5760
 8798TIP3    H147885   1.738   6.445   3.120 -2.3267  0.2951 -1.7089
 8798TIP3    H247886   1.738   6.596   3.125 -0.8896  0.2884 -1.3277
 8799TIP3   OH247887   5.371   4.178   4.334  0.2016  0.2488  0.0935
 8799TIP3    H147888   5.328   4.102   4.372  0.5391  0.1791  0.3357
 8799TIP3    H247889   5.453   4.145   4.298 -0.6110  0.1043 -1.7018
 8800TIP3   OH247890   1.806   3.834  16.178 -0.4141 -0.2971 -0.9476
 8800TIP3    H147891   1.728   3.792  16.211 -1.3459  1.3608 -0.9852
 8800TIP3    H247892   1.855   3.764  16.135 -1.2674 -1.5826  0.1510
 8801TIP3   OH247893   6.351   6.497   5.279  0.1319 -0.3314  0.3261
 8801TIP3    H147894   6.269   6.447   5.279 -0.3219  0.3668 -1.6432
 8801TIP3    H247895   6.324   6.587   5.259  1.2114  0.2452  1.3674
 8802TIP3   OH247896   0.796   2.128   5.289 -0.1257 -0.1361  0.1052
 8802TIP3    H147897   0.743   2.132   5.210  0.5632 -0.4649 -0.3694
 8802TIP3    H247898   0.773   2.208   5.337 -0.9246 -0.1951 -0.1732
 8803TIP3   OH247899   5.794   1.646   3.799 -0.5204  0.2816  0.0864
 8803TIP3    H147900   5.801   1.741   3.805 -1.0342  0.4237 -1.3728
 8803TIP3    H247901   5.723   1.631   3.737  0.3378 -1.0475 -0.5983
 8804TIP3   OH247902   4.170   0.961  16.436  0.1538 -0.3751 -0.1390
 8804TIP3    H147903   4.174   0.900  16.363 -1.1665 -0.7604  0.1028
 8804TIP3    H247904   4.210   1.042  16.402 -0.1684 -0.6455 -1.1820
 8805TIP3   OH247905   3.633   3.599   2.066 -0.4453 -0.4383 -0.4832
 8805TIP3    H147906   3.722   3.572   2.089 -1.1449 -2.4248  0.0123
 8805TIP3    H247907   3.595   3.628   2.148 -1.0731 -2.0236 -0.2060
 8806TIP3   OH247908   3.067   0.240   4.772 -0.5875  0.5475 -0.6764
 8806TIP3    H147909   3.064   0.147   4.746  3.0254 -0.0765  0.7781
 8806TIP3    H247910   3.066   0.287   4.689 -0.3066 -0.9247 -1.5481
 8807TIP3   OH247911   2.415   5.943  16.869  0.3056  0.5462 -0.3845
 8807TIP3    H147912   2.366   6.010  16.821  1.1893 -0.0070 -2.0949
 8807TIP3    H247913   2.348   5.882  16.900 -0.5050  2.1581  1.1356
 8808TIP3   OH247914   0.874   4.570   5.574  0.4224 -0.1437 -0.5049
 8808TIP3    H147915   0.966   4.544   5.575  0.6687  0.7154 -0.4888
 8808TIP3    H247916   0.867   4.633   5.502  0.2321  1.1381  0.6129
 8809TIP3   OH247917   4.301   1.141  15.589 -0.3140 -0.0555  0.3569
 8809TIP3    H147918   4.271   1.062  15.544  1.1115 -0.8769  0.7995
 8809TIP3    H247919   4.233   1.206  15.572 -1.0744 -1.1180 -0.7613
 8810TIP3   OH247920   1.898   4.516  17.154  0.1600 -0.1754 -0.2391
 8810TIP3    H147921   1.895   4.424  17.128  0.3043 -0.0456 -0.7217
 8810TIP3    H247922   1.947   4.516  17.236  3.9928 -0.0596 -2.3955
 8811TIP3   OH247923   5.547   3.116  10.955 -0.0127 -0.6147  0.3323
 8811TIP3    H147924   5.525   3.176  10.883 -3.2223  0.0598  1.7765
 8811TIP3    H247925   5.630   3.077  10.929  0.9106  2.5754 -1.8699
 8812TIP3   OH247926   3.276   5.868  15.855 -0.4383  0.8995 -0.1251
 8812TIP3    H147927   3.330   5.800  15.816  1.3945  2.2565  0.0032
 8812TIP3    H247928   3.205   5.821  15.898  0.1518 -0.8530 -1.0345
 8813TIP3   OH247929   3.872   3.906  14.422 -0.2068 -0.1004 -0.0187
 8813TIP3    H147930   3.935   3.902  14.350 -0.8311 -0.4740 -0.5504
 8813TIP3    H247931   3.864   3.999  14.442 -0.9033  0.1088 -1.2184
 8814TIP3   OH247932   2.264   6.630   4.258  0.2039  0.4713 -0.0860
 8814TIP3    H147933   2.247   6.649   4.350  0.7046 -0.4389  0.2075
 8814TIP3    H247934   2.192   6.573   4.231  0.1347  0.6204 -0.2206
 8815TIP3   OH247935   2.384   5.704   1.808  0.3422  0.1959 -0.0543
 8815TIP3    H147936   2.326   5.660   1.746 -0.9439  0.9888  0.5686
 8815TIP3    H247937   2.382   5.648   1.886 -0.1427  0.5982  0.2207
 8816TIP3   OH247938   0.739   2.448  13.996  0.0980 -0.0572 -0.3675
 8816TIP3    H147939   0.742   2.443  13.900 -1.0339 -1.0684 -0.3732
 8816TIP3    H247940   0.715   2.359  14.023  0.0184  0.3243  0.8331
 8817TIP3   OH247941   1.531   2.447  12.070 -0.1612  0.1690  0.2368
 8817TIP3    H147942   1.528   2.359  12.108  1.5986  0.2642  0.6564
 8817TIP3    H247943   1.452   2.489  12.102 -0.6852 -1.0505  0.5866
 8818TIP3   OH247944   4.474   2.661   2.586  0.0874  0.3316 -0.0370
 8818TIP3    H147945   4.495   2.568   2.596 -2.3960 -0.1748  0.7670
 8818TIP3    H247946   4.548   2.707   2.627  1.0586 -1.2750  0.0530
 8819TIP3   OH247947   3.315   3.196  15.234 -0.2418 -0.1235 -0.0216
 8819TIP3    H147948   3.347   3.261  15.297  0.1597  0.2170 -0.5606
 8819TIP3    H247949   3.343   3.231  15.149  3.3875 -2.8721 -0.0954
 8820TIP3   OH247950   2.213   5.309   1.381  0.3209  0.0668  0.2341
 8820TIP3    H147951   2.137   5.332   1.328 -1.1241  1.1740  2.6986
 8820TIP3    H247952   2.288   5.321   1.322 -1.3137  0.1153 -1.8749
 8821TIP3   OH247953   1.877   0.314  12.990  0.2700  0.2856 -0.8815
 8821TIP3    H147954   1.794   0.269  13.007  0.0010  1.7258  2.0493
 8821TIP3    H247955   1.866   0.355  12.904 -1.4614 -0.8517 -1.2200
 8822TIP3   OH247956   0.466   6.568   3.807 -0.2188 -0.4237  0.1371
 8822TIP3    H147957   0.498   6.607   3.726 -0.4917  0.7390  0.5805
 8822TIP3    H247958   0.545   6.558   3.861  0.1472 -2.3304 -0.7224
 8823TIP3   OH247959   3.025   1.209  12.943 -0.1315 -0.6239 -0.4683
 8823TIP3    H147960   2.968   1.183  13.016 -1.1733  2.5923 -0.0772
 8823TIP3    H247961   2.995   1.154  12.870 -0.6249 -2.2201  0.8899
 8824TIP3   OH247962   1.975   1.560   2.608 -0.2309 -0.8253 -0.3807
 8824TIP3    H147963   1.939   1.553   2.519 -1.1490 -0.3474 -0.0615
 8824TIP3    H247964   1.905   1.602   2.658  1.1132  0.8839  0.0817
 8825TIP3   OH247965   4.067   6.750  16.955 -0.2165 -0.2451 -0.4515
 8825TIP3    H147966   4.027   6.724  17.038  0.5365  0.9552  0.3041
 8825TIP3    H247967   4.134   6.685  16.939  0.6249  0.3335  0.6429
 8826TIP3   OH247968   3.031   0.876   0.272 -0.0469  0.1747  0.2651
 8826TIP3    H147969   3.011   0.837   0.357  1.4111 -0.6712  0.2501
 8826TIP3    H247970   3.043   0.801   0.213 -1.8051  0.7713 -0.8873
 8827TIP3   OH247971   0.221   6.538   1.216  0.0315 -0.1512 -0.6763
 8827TIP3    H147972   0.312   6.525   1.189 -0.2486 -2.2897 -0.7014
 8827TIP3    H247973   0.197   6.456   1.261 -1.5042  0.8436  0.3721
 8828TIP3   OH247974   1.760   1.469  15.986  0.3057 -0.4718  0.2874
 8828TIP3    H147975   1.737   1.381  15.957  1.1255 -0.8778  0.8614
 8828TIP3    H247976   1.799   1.457  16.072 -1.0696  0.6157  1.0799
 8829TIP3   OH247977   1.101   6.080   4.401  0.0359 -0.5684  0.2510
 8829TIP3    H147978   1.125   6.168   4.430  1.3379 -0.6274 -0.5969
 8829TIP3    H247979   1.008   6.071   4.424 -0.4845  1.5456 -0.9173
 8830TIP3   OH247980   3.159   0.522   3.998  0.9159  0.1139  0.3039
 8830TIP3    H147981   3.220   0.583   3.955  1.1956  0.2067  0.8277
 8830TIP3    H247982   3.176   0.534   4.091  2.2059 -2.0242  0.3751
 8831TIP3   OH247983   1.579   1.933  14.188 -0.4006  0.1926  0.1758
 8831TIP3    H147984   1.575   1.986  14.109 -0.1979  0.4787  0.3526
 8831TIP3    H247985   1.494   1.945  14.230 -0.5063  0.0433  0.0016
 8832TIP3   OH247986   0.716   4.753  11.265  0.4846  0.4083  1.0348
 8832TIP3    H147987   0.653   4.721  11.329 -0.4953 -1.3176 -0.7256
 8832TIP3    H247988   0.665   4.764  11.185  1.7661  2.1007  0.4328
 8833TIP3   OH247989   4.741   2.552  13.399 -0.0789  0.8995  0.2612
 8833TIP3    H147990   4.757   2.459  13.418  1.0501  1.4248  2.0295
 8833TIP3    H247991   4.738   2.557  13.303 -3.0909 -1.4258  0.1557
 8834TIP3   OH247992   1.792   4.933  12.076  0.1862 -0.1234 -0.1888
 8834TIP3    H147993   1.810   5.022  12.047 -0.1968 -0.3950 -1.2871
 8834TIP3    H247994   1.879   4.896  12.095  0.3391  0.4932  0.3364
 8835TIP3   OH247995   4.714   4.585   4.808 -0.3973 -0.0519 -0.5423
 8835TIP3    H147996   4.668   4.501   4.808 -1.7963  0.6807  0.3557
 8835TIP3    H247997   4.653   4.646   4.766  0.4535  0.5871 -0.8646
 8836TIP3   OH247998   0.096   2.232  13.238 -0.2640 -0.2797  0.0721
 8836TIP3    H147999   0.124   2.311  13.284  0.9691 -0.9980  0.6050
 8836TIP3    H248000   0.089   2.259  13.146  0.7442  0.3083  0.1538
 8837TIP3   OH248001   2.633   6.218   5.138  0.3393  0.1198 -0.0652
 8837TIP3    H148002   2.703   6.261   5.087  1.3354 -1.1027  0.2509
 8837TIP3    H248003   2.651   6.243   5.229  0.0290  0.2651 -0.0439
 8838TIP3   OH248004   6.083   4.936   1.001 -0.1927 -0.1321  0.2651
 8838TIP3    H148005   6.012   4.893   0.953  0.6263 -0.5048 -0.6145
 8838TIP3    H248006   6.047   4.951   1.089 -1.1512 -0.8537 -0.0014
 8839TIP3   OH248007   1.199   5.673  16.017  0.2150 -0.4055  0.2823
 8839TIP3    H148008   1.142   5.649  15.944 -0.9290 -1.0115  1.3422
 8839TIP3    H248009   1.278   5.621  16.004  0.0611 -0.4327 -0.5735
 8840TIP3   OH248010   1.189   2.110   6.388  0.1948 -0.4567  0.2093
 8840TIP3    H148011   1.244   2.085   6.463  0.2343  1.0917  0.7136
 8840TIP3    H248012   1.100   2.114   6.424  0.0978 -0.5350 -0.0229
 8841TIP3   OH248013   3.153   5.508   2.053 -0.0356 -0.4580  0.2626
 8841TIP3    H148014   3.245   5.526   2.034 -0.5450  1.5293 -0.4431
 8841TIP3    H248015   3.119   5.467   1.973  0.2233 -1.1806  0.5192
 8842TIP3   OH248016   3.881   6.660  16.215 -0.2473  0.3616  0.3649
 8842TIP3    H148017   3.893   6.704  16.299  0.5379  0.6166  0.1311
 8842TIP3    H248018   3.916   6.722  16.151  2.1909 -1.1708  0.1448
 8843TIP3   OH248019   0.023   2.072   2.748 -0.1411  0.4634  0.0688
 8843TIP3    H148020   0.026   2.166   2.728 -1.2810  0.3017 -0.8730
 8843TIP3    H248021   0.041   2.068   2.842  1.1274  1.5292 -0.1018
 8844TIP3   OH248022   0.674   0.556  12.430  0.2691 -0.6743  0.2240
 8844TIP3    H148023   0.731   0.633  12.434 -2.3284  1.4603 -1.2813
 8844TIP3    H248024   0.723   0.492  12.379  1.3793  1.0709 -0.9669
 8845TIP3   OH248025   0.682   0.524  11.823 -0.3238  1.1031  0.2768
 8845TIP3    H148026   0.676   0.445  11.770 -0.2332  3.7249 -3.7901
 8845TIP3    H248027   0.776   0.535  11.840 -0.2836  0.7434  0.2948
 8846TIP3   OH248028   4.468   2.826  14.012 -0.1098  0.4378  0.1689
 8846TIP3    H148029   4.408   2.759  14.044  0.4699 -0.5742 -0.8175
 8846TIP3    H248030   4.512   2.785  13.937 -0.3371  2.2182 -0.9582
 8847TIP3   OH248031   2.028   5.306   5.123 -0.1392 -0.4549  0.1958
 8847TIP3    H148032   2.017   5.364   5.048  2.3286 -0.0075  0.1343
 8847TIP3    H248033   2.020   5.217   5.087 -1.8566 -0.2100 -0.0649
 8848TIP3   OH248034   3.289   2.967   6.234  0.5692 -0.2187 -0.1502
 8848TIP3    H148035   3.298   3.050   6.279 -1.5880 -0.5031  0.8513
 8848TIP3    H248036   3.338   2.905   6.288  0.5914  0.0362  0.1199
 8849TIP3   OH248037   0.666   2.930   5.831 -0.0762 -0.3564  0.1721
 8849TIP3    H148038   0.586   2.941   5.882  0.1291 -2.2770  0.9423
 8849TIP3    H248039   0.673   3.011   5.779 -2.3491 -0.0446  0.3120
 8850TIP3   OH248040   3.710   2.141  12.256  0.2881 -0.1020  0.3030
 8850TIP3    H148041   3.716   2.206  12.187 -1.5182 -0.8365 -0.5746
 8850TIP3    H248042   3.675   2.189  12.331  1.0199  0.4028  0.3286
 8851TIP3   OH248043   0.460   0.300   5.782 -0.2606 -0.6010 -0.4187
 8851TIP3    H148044   0.471   0.348   5.864  1.6858 -1.0313 -0.4135
 8851TIP3    H248045   0.509   0.351   5.718  0.6193 -1.7913 -0.7084
 8852TIP3   OH248046   6.272   0.176   1.307  0.2419 -0.2744  0.6279
 8852TIP3    H148047   6.273   0.271   1.313 -1.6676 -0.2028  0.0220
 8852TIP3    H248048   6.339   0.156   1.240  2.1542  0.4781  2.2661
 8853TIP3   OH248049   4.501   1.196   3.451 -0.5592 -0.4445  0.0584
 8853TIP3    H148050   4.464   1.206   3.538 -5.6700 -2.0314 -1.7233
 8853TIP3    H248051   4.513   1.101   3.441 -0.7492 -0.3396 -1.2292
 8854TIP3   OH248052   5.107   3.269  16.824 -0.3200  0.2421 -0.1864
 8854TIP3    H148053   5.116   3.283  16.919  0.7230 -0.6072 -0.1385
 8854TIP3    H248054   5.145   3.182  16.810 -2.1629 -0.4313 -1.1272
 8855TIP3   OH248055   0.989   5.097   1.994  0.0967 -0.0793 -0.1894
 8855TIP3    H148056   0.927   5.162   1.960 -0.9925 -1.2225 -0.4097
 8855TIP3    H248057   1.065   5.104   1.935  0.3894  1.6653  0.3747
 8856TIP3   OH248058   0.121   6.144   1.023 -0.5946  0.1379 -0.2974
 8856TIP3    H148059   0.207   6.108   1.000  0.4167  0.2633  2.9913
 8856TIP3    H248060   0.061   6.071   1.011  0.7232 -1.3565  1.8215
 8857TIP3   OH248061   1.577   1.572   0.207 -0.1649  0.9953  0.1563
 8857TIP3    H148062   1.514   1.523   0.154  1.4965 -0.5472 -0.4146
 8857TIP3    H248063   1.582   1.523   0.289  0.3200  1.0921  0.1847
 8858TIP3   OH248064   5.160   6.775   3.784  0.3243  0.3569 -0.3321
 8858TIP3    H148065   5.236   6.818   3.743  1.3309  0.0646  1.1821
 8858TIP3    H248066   5.085   6.804   3.732  1.6327 -0.6205 -2.8698
 8859TIP3   OH248067   3.242   4.461   2.261 -0.2982 -0.2343  0.7284
 8859TIP3    H148068   3.273   4.452   2.351 -0.1833  2.2259  0.9630
 8859TIP3    H248069   3.247   4.555   2.243 -1.9072 -0.5006 -1.2740
 8860TIP3   OH248070   3.953   4.843   3.325  0.3688  0.5160 -0.0915
 8860TIP3    H148071   3.881   4.789   3.358  0.1218  0.7318 -0.2778
 8860TIP3    H248072   3.994   4.879   3.404  1.4765 -1.1324  0.1265
 8861TIP3   OH248073   2.857   1.579   6.859 -0.4827  0.3110  0.0955
 8861TIP3    H148074   2.892   1.495   6.829  1.1406  0.9666  0.0766
 8861TIP3    H248075   2.766   1.561   6.881 -0.2881 -1.3395 -0.3824
 8862TIP3   OH248076   0.296   0.844  10.461  0.3990 -0.6335  0.4393
 8862TIP3    H148077   0.280   0.863  10.554 -1.3428  2.6618 -0.4560
 8862TIP3    H248078   0.365   0.778  10.462 -0.5791 -1.7521  4.1153
 8863TIP3   OH248079   4.318   2.455  16.876 -0.4319  0.2536 -0.7650
 8863TIP3    H148080   4.243   2.422  16.925 -1.4337 -0.3413 -2.6393
 8863TIP3    H248081   4.359   2.376  16.839  0.2567  0.6945 -0.9620
 8864TIP3   OH248082   4.926   3.412  13.005  0.1394 -0.0504 -0.2394
 8864TIP3    H148083   4.904   3.488  12.950  0.5599  0.1278 -0.1612
 8864TIP3    H248084   4.992   3.445  13.065 -3.0105  0.8165  2.9020
 8865TIP3   OH248085   4.210   3.203  15.493 -0.7730  0.5260 -0.3883
 8865TIP3    H148086   4.237   3.195  15.584 -0.4588  2.2749 -0.3067
 8865TIP3    H248087   4.127   3.156  15.488 -0.3335 -0.3724  0.5721
 8866TIP3   OH248088   0.289   4.000  14.356 -1.0074 -0.6241 -0.3164
 8866TIP3    H148089   0.363   4.001  14.416  2.3340  3.0723 -4.1385
 8866TIP3    H248090   0.296   3.915  14.312  0.7987 -0.4825 -0.3642
 8867TIP3   OH248091   1.881   1.266  14.626  0.1052  0.1543 -0.4639
 8867TIP3    H148092   1.896   1.309  14.542  0.4768 -0.5448 -0.7668
 8867TIP3    H248093   1.818   1.321  14.671 -0.6316  0.1691 -1.4897
 8868TIP3   OH248094   0.523   2.657   6.313  0.6066 -0.0847 -0.0035
 8868TIP3    H148095   0.512   2.620   6.400  0.6161  2.0859  0.9456
 8868TIP3    H248096   0.582   2.731   6.325 -0.4024  1.0213 -1.6324
 8869TIP3   OH248097   4.444   1.031   5.262  0.3100  0.2276 -0.5367
 8869TIP3    H148098   4.535   1.061   5.255  1.0900 -1.3536  2.0558
 8869TIP3    H248099   4.421   1.004   5.173  2.9241 -0.7564 -0.9753
 8870TIP3   OH248100   0.196   3.376  12.335  0.3176 -0.4262  0.4221
 8870TIP3    H148101   0.290   3.387  12.325  0.2164 -0.8358 -1.0164
 8870TIP3    H248102   0.162   3.374  12.246 -1.1705  0.6781  0.9427
 8871TIP3   OH248103   3.967   6.774  12.706 -0.3123  0.7263 -0.7240
 8871TIP3    H148104   3.927   6.809  12.626 -0.9681 -1.0526 -1.2026
 8871TIP3    H248105   3.895   6.770  12.769 -0.0966  0.8537 -0.4692
 8872TIP3   OH248106   5.763   1.841   2.715  0.4817  0.1144  0.0213
 8872TIP3    H148107   5.756   1.746   2.700 -1.1361  0.4857 -1.8934
 8872TIP3    H248108   5.797   1.849   2.804  0.0465 -2.2650  0.4490
 8873TIP3   OH248109   4.549   4.691  12.323 -0.2330 -0.4823 -0.5208
 8873TIP3    H148110   4.611   4.720  12.391  0.5883 -2.1000 -0.5280
 8873TIP3    H248111   4.463   4.706  12.361  0.2074 -0.3569  0.4444
 8874TIP3   OH248112   0.556   2.400   0.923  0.3493  0.3328  0.0659
 8874TIP3    H148113   0.487   2.334   0.917  0.6947 -0.0460  0.1985
 8874TIP3    H248114   0.545   2.438   1.010  0.6546 -0.1232  0.3099
 8875TIP3   OH248115   5.573   2.104   5.454 -0.2221  0.8600  0.7325
 8875TIP3    H148116   5.536   2.166   5.516 -0.6922  0.2277  1.0946
 8875TIP3    H248117   5.559   2.143   5.368 -3.2530 -0.1144  0.7260
 8876TIP3   OH248118   4.640   2.012   0.102  0.0147  0.1768 -0.2821
 8876TIP3    H148119   4.574   2.056   0.049 -0.6959  0.1588  0.5769
 8876TIP3    H248120   4.593   1.983   0.180  0.7735 -0.8803 -0.2001
 8877TIP3   OH248121   5.175   1.764  15.176 -0.5036  0.2641  0.3233
 8877TIP3    H148122   5.192   1.758  15.270 -0.8356 -0.9073  0.3123
 8877TIP3    H248123   5.099   1.823  15.169  0.3947  1.4826  0.6843
 8878TIP3   OH248124   0.054   2.991  11.165 -0.2762 -0.1735 -0.7576
 8878TIP3    H148125   0.120   3.051  11.131  0.0964 -0.6125 -0.8111
 8878TIP3    H248126   0.078   2.978  11.256 -0.4023 -0.1796 -0.7238
 8879TIP3   OH248127   5.195   4.904   5.951  0.7029  0.6640  0.2847
 8879TIP3    H148128   5.280   4.926   5.987  0.5389  0.4988  0.7750
 8879TIP3    H248129   5.181   4.968   5.881  2.2192 -0.6956 -1.2994
 8880TIP3   OH248130   6.243   1.314  14.628  0.2010 -0.2845 -0.1557
 8880TIP3    H148131   6.209   1.315  14.538 -0.5761 -0.4682  0.1336
 8880TIP3    H248132   6.303   1.240  14.630  1.6688  0.8636 -1.0495
 8881TIP3   OH248133   3.706   6.412  11.453 -0.1668  0.1900 -0.6985
 8881TIP3    H148134   3.701   6.467  11.531 -0.2924  1.4649 -1.5833
 8881TIP3    H248135   3.800   6.396  11.441  0.0015  1.4391 -1.2406
 8882TIP3   OH248136   2.472   5.407   4.036 -0.4860 -0.2297 -0.3815
 8882TIP3    H148137   2.443   5.458   4.113  0.3222 -2.2011  1.2766
 8882TIP3    H248138   2.407   5.337   4.028 -0.6670  0.0764 -1.6256
 8883TIP3   OH248139   4.066   5.260   1.002 -0.3862  0.2778 -0.5127
 8883TIP3    H148140   4.021   5.302   0.929 -1.2740  1.0498  0.4686
 8883TIP3    H248141   4.070   5.327   1.070  1.3491 -0.1002 -0.2132
 8884TIP3   OH248142   1.690   4.891   4.390 -0.1464  0.1899  0.2403
 8884TIP3    H148143   1.649   4.960   4.338  0.3070  0.6598  0.4930
 8884TIP3    H248144   1.766   4.864   4.338 -1.0233 -0.9946 -0.4379
 8885TIP3   OH248145   2.825   6.525   5.942 -0.1784 -0.1084  0.5259
 8885TIP3    H148146   2.834   6.618   5.925  0.7025 -0.4744 -1.0963
 8885TIP3    H248147   2.813   6.485   5.856  0.7729 -1.6246  1.0551
 8886TIP3   OH248148   6.640   5.903  14.612  0.2170  0.4910 -0.2394
 8886TIP3    H148149   6.613   5.945  14.530 -0.1111 -1.1270 -0.9611
 8886TIP3    H248150   6.731   5.876  14.597 -0.5866 -1.9261 -0.9371
 8887TIP3   OH248151   5.001   0.402  11.695  0.1732  0.8294  0.6258
 8887TIP3    H148152   4.973   0.335  11.758  1.0749 -1.0503 -0.9218
 8887TIP3    H248153   4.938   0.397  11.624 -0.8044  2.9050  1.3004
 8888TIP3   OH248154   1.932   4.353   2.226  0.0051  0.2930 -1.0261
 8888TIP3    H148155   1.865   4.295   2.190 -1.2289 -0.0274  1.7139
 8888TIP3    H248156   2.002   4.294   2.254 -0.7945  0.1930  0.7940
 8889TIP3   OH248157   4.512   3.252  11.790  0.1741 -0.0377  0.0988
 8889TIP3    H148158   4.497   3.228  11.881  0.8915 -1.1902 -0.0805
 8889TIP3    H248159   4.575   3.187  11.758 -0.4384  0.0725 -1.3549
 8890TIP3   OH248160   0.644   4.698   1.231  0.0049  0.0923 -0.3646
 8890TIP3    H148161   0.655   4.642   1.307 -1.7536  0.7834  0.4134
 8890TIP3    H248162   0.675   4.784   1.259  1.8402 -0.2450 -1.2738
 8891TIP3   OH248163   3.771   1.074  14.504  0.2559  0.2951  0.3918
 8891TIP3    H148164   3.835   1.124  14.554 -0.4552 -1.2696  2.9635
 8891TIP3    H248165   3.803   0.984  14.506 -1.1933 -0.2413  0.3355
 8892TIP3   OH248166   6.691   5.659  15.823  0.1895 -0.0427  0.6283
 8892TIP3    H148167   6.694   5.708  15.742 -0.0668 -0.0275  0.6290
 8892TIP3    H248168   6.635   5.583  15.804  1.7391 -1.1083  0.1958
 8893TIP3   OH248169   2.410   2.927  12.998 -0.7413 -0.7080 -0.1702
 8893TIP3    H148170   2.388   2.964  13.084 -0.3912 -0.9386  0.0219
 8893TIP3    H248171   2.326   2.907  12.958 -0.8676 -2.3023  0.8659
 8894TIP3   OH248172   4.212   6.622  12.730  0.4806 -0.5098 -0.0843
 8894TIP3    H148173   4.166   6.693  12.684 -0.1518 -0.4466  0.6337
 8894TIP3    H248174   4.296   6.615  12.685 -0.7466 -1.5302 -2.3034
 8895TIP3   OH248175   3.171   4.903  12.595  0.3685  0.3144 -0.0773
 8895TIP3    H148176   3.265   4.914  12.581  0.6128 -1.8682 -0.3186
 8895TIP3    H248177   3.147   4.974  12.655  1.5750  2.6677 -2.2621
 8896TIP3   OH248178   3.105   0.123  15.243  0.4229 -0.1173  0.7000
 8896TIP3    H148179   3.013   0.111  15.267  0.4581  1.2111  1.5757
 8896TIP3    H248180   3.141   0.034  15.241 -1.0836 -0.7267 -0.5584
 8897TIP3   OH248181   2.903   2.122  15.530 -0.2149 -0.6488 -0.1951
 8897TIP3    H148182   2.815   2.133  15.568  0.3829 -1.0069  1.3250
 8897TIP3    H248183   2.963   2.137  15.603  1.0480  0.9623 -1.5420
 8898TIP3   OH248184   3.172   2.749  15.373  0.1808 -0.2535  0.0493
 8898TIP3    H148185   3.088   2.770  15.413 -1.0096  1.7208 -3.2914
 8898TIP3    H248186   3.190   2.822  15.314  3.3022 -1.5819 -0.7700
 8899TIP3   OH248187   6.147   2.512  14.637 -0.4638  0.0042 -0.2848
 8899TIP3    H148188   6.141   2.551  14.550 -0.6593  0.1629 -0.2009
 8899TIP3    H248189   6.211   2.441  14.627 -1.2953 -0.6744 -0.8085
 8900TIP3   OH248190   6.751   4.370  11.634 -0.0107  0.1433  0.0113
 8900TIP3    H148191   6.779   4.316  11.559 -0.6434  2.6400 -2.1092
 8900TIP3    H248192   6.656   4.360  11.636 -0.1110  0.9683 -0.2638
 8901TIP3   OH248193   4.473   1.226   3.755 -0.0119 -0.0864  0.2576
 8901TIP3    H148194   4.435   1.292   3.697  1.7211 -0.4070 -1.3279
 8901TIP3    H248195   4.405   1.160   3.765 -0.7666  0.5783 -0.4445
 8902TIP3   OH248196   0.446   3.246   6.133  0.1715 -0.3126 -0.1490
 8902TIP3    H148197   0.415   3.247   6.043  0.3181 -1.5866 -0.2181
 8902TIP3    H248198   0.519   3.184   6.133 -0.1093 -0.6620  0.9385
 8903TIP3   OH248199   0.492   0.901   0.935 -0.3419  0.4710  0.6267
 8903TIP3    H148200   0.541   0.827   0.899  1.1732  2.0241 -0.6333
 8903TIP3    H248201   0.521   0.907   1.026  0.3376  0.1460  0.4389
 8904TIP3   OH248202   3.795   5.870  12.718  0.1913  0.2562  0.2617
 8904TIP3    H148203   3.829   5.958  12.700  1.7751 -0.1997  0.8629
 8904TIP3    H248204   3.700   5.881  12.722  0.1945  1.5182 -1.9155
 8905TIP3   OH248205   4.696   4.452   3.977  0.1405  0.0753  0.0478
 8905TIP3    H148206   4.623   4.404   4.016 -0.8677  1.6273  0.1254
 8905TIP3    H248207   4.774   4.412   4.014 -0.6715 -1.4677  0.1291
 8906TIP3   OH248208   4.033   0.491   4.127  0.6808 -0.4521 -0.0105
 8906TIP3    H148209   4.059   0.464   4.215  0.5369  0.8046  0.4287
 8906TIP3    H248210   3.951   0.445   4.111 -0.0747  0.4714  1.1207
 8907TIP3   OH248211   3.964   5.878   3.657  0.1727 -0.2975  0.6412
 8907TIP3    H148212   3.927   5.937   3.723  0.0023  0.5532 -0.1962
 8907TIP3    H248213   3.930   5.912   3.574  0.3373 -1.3883  0.1246
 8908TIP3   OH248214   6.798   0.935   2.395 -0.2603  0.2011 -0.0943
 8908TIP3    H148215   6.800   0.976   2.309  0.0979  0.1236 -0.1228
 8908TIP3    H248216   6.827   1.004   2.455  0.2898  0.0115 -0.1357
 8909TIP3   OH248217   4.609   5.329  13.783  0.5510  1.1356 -0.2322
 8909TIP3    H148218   4.553   5.399  13.750 -0.5461  1.2368  1.7430
 8909TIP3    H248219   4.637   5.360  13.870  0.3024 -0.7244  0.5279
 8910TIP3   OH248220   2.790   5.934  13.831  0.6608 -0.1939 -0.6322
 8910TIP3    H148221   2.727   5.949  13.901 -1.2122 -1.7223 -1.9277
 8910TIP3    H248222   2.832   5.851  13.853  2.4949  0.9620  0.3804
 8911TIP3   OH248223   6.649   4.571  15.973  0.1374 -0.2391  0.3330
 8911TIP3    H148224   6.701   4.651  15.977 -0.5368  0.2293 -0.0974
 8911TIP3    H248225   6.616   4.559  16.062 -0.9530  0.7787  0.0798
 8912TIP3   OH248226   3.432   0.707   4.080 -0.2289  0.5351  0.0290
 8912TIP3    H148227   3.464   0.691   3.992  0.6162  1.5885  0.1354
 8912TIP3    H248228   3.470   0.791   4.105 -1.7034  0.9932  0.8156
 8913TIP3   OH248229   3.849   0.895   0.189  0.0702  0.3576 -0.0595
 8913TIP3    H148230   3.792   0.959   0.147 -0.3746  1.0118  1.5066
 8913TIP3    H248231   3.922   0.946   0.223  1.0081 -0.3224 -1.0160
 8914TIP3   OH248232   1.569   6.638  13.426  0.2678  0.0546 -0.0397
 8914TIP3    H148233   1.489   6.662  13.473  0.8576  2.7896 -0.3537
 8914TIP3    H248234   1.625   6.600  13.493 -0.6263 -0.2619  0.5422
 8915TIP3   OH248235   4.019   3.944   0.966  0.0892 -0.1444  0.2087
 8915TIP3    H148236   4.081   3.872   0.975  0.2138 -0.2034 -0.9700
 8915TIP3    H248237   4.073   4.023   0.969  0.3408 -0.2157 -1.4961
 8916TIP3   OH248238   0.582   6.426  13.356 -0.2192 -0.0520 -0.0355
 8916TIP3    H148239   0.627   6.368  13.295  1.0524  0.0814  0.7707
 8916TIP3    H248240   0.490   6.397  13.352 -0.1224 -0.1811 -1.8273
 8917TIP3   OH248241   3.605   4.889   1.491 -0.2079 -0.1184  0.2756
 8917TIP3    H148242   3.585   4.803   1.455  2.0615 -0.1457 -1.0055
 8917TIP3    H248243   3.526   4.941   1.472 -0.3406 -1.0313 -1.8575
 8918TIP3   OH248244   0.826   2.185  13.575  0.4618  0.3943 -0.3268
 8918TIP3    H148245   0.788   2.145  13.653  1.6573  1.8846  1.0607
 8918TIP3    H248246   0.883   2.118  13.538  1.6463  0.4130  1.3825
 8919TIP3   OH248247   4.009   3.195  13.848  0.5251  0.1432  0.5499
 8919TIP3    H148248   4.061   3.205  13.768  2.7509 -2.0940  1.6587
 8919TIP3    H248249   3.974   3.283  13.865 -0.4243  0.5625 -3.1164
 8920TIP3   OH248250   5.435   3.226   1.829  0.0883 -0.0063 -0.0618
 8920TIP3    H148251   5.354   3.266   1.860  0.4471 -0.2543  1.2041
 8920TIP3    H248252   5.430   3.234   1.734 -1.3910  0.0514  0.0010
 8921TIP3   OH248253   2.228   5.134   5.325 -0.5759  0.3481 -0.2215
 8921TIP3    H148254   2.147   5.083   5.334 -0.6920  0.5936  0.1889
 8921TIP3    H248255   2.298   5.069   5.325 -0.8803 -0.0283 -2.7115
 8922TIP3   OH248256   4.695   5.101   1.078  0.2262  0.6965 -0.4565
 8922TIP3    H148257   4.767   5.057   1.124  1.0335  0.3478 -2.0109
 8922TIP3    H248258   4.734   5.183   1.048 -0.8351  1.7770  1.0948
 8923TIP3   OH248259   2.300   3.829   0.172 -0.1005  0.3777  0.3313
 8923TIP3    H148260   2.295   3.734   0.176 -1.5937  0.4665  0.9557
 8923TIP3    H248261   2.333   3.855   0.258  1.8405  0.3475 -0.3882
 8924TIP3   OH248262   5.715   3.935  11.656  0.4184 -0.1996  0.2496
 8924TIP3    H148263   5.641   3.974  11.702  0.2410  1.1035 -1.1111
 8924TIP3    H248264   5.676   3.878  11.591  0.6490 -1.0437  0.8477
 8925TIP3   OH248265   6.392   1.555   2.034  0.0592 -0.5876  0.4089
 8925TIP3    H148266   6.349   1.475   2.065  0.2020 -1.1658 -0.8449
 8925TIP3    H248267   6.335   1.626   2.062  0.0805 -1.1069  1.7852
 8926TIP3   OH248268   0.525   2.435  14.442 -0.5206 -0.1229  0.1031
 8926TIP3    H148269   0.517   2.518  14.395  0.0469 -1.7338 -2.9617
 8926TIP3    H248270   0.619   2.421  14.449 -0.5744  0.2787  2.2026
 8927TIP3   OH248271   4.476   6.194  12.802  0.3376 -0.9281  0.0121
 8927TIP3    H148272   4.508   6.133  12.735  1.1009  0.0649 -0.5516
 8927TIP3    H248273   4.538   6.267  12.799 -1.9091  1.0067 -1.0402
 8928TIP3   OH248274   3.294   1.167   5.887 -0.1262  0.1529  0.0139
 8928TIP3    H148275   3.295   1.141   5.979  1.7627 -0.6435 -0.1968
 8928TIP3    H248276   3.382   1.200   5.870 -0.8038  1.3959 -1.2126
 8929TIP3   OH248277   4.863   5.389  16.225  0.0053 -0.6129  0.1066
 8929TIP3    H148278   4.938   5.412  16.171 -1.2595  1.3382 -0.8562
 8929TIP3    H248279   4.862   5.455  16.294 -0.7229 -0.7431  0.2268
 8930TIP3   OH248280   3.730   0.561   2.185  0.6552  0.1955 -0.6167
 8930TIP3    H148281   3.694   0.644   2.216  1.6189  0.0937  0.7796
 8930TIP3    H248282   3.660   0.524   2.130 -0.6405  0.8715  0.5603
 8931TIP3   OH248283   1.031   0.281  16.216  0.0659  0.1593  0.1820
 8931TIP3    H148284   1.099   0.221  16.187  0.2737  0.1499  0.6929
 8931TIP3    H248285   0.966   0.280  16.145 -0.1454 -0.9969  0.3791
 8932TIP3   OH248286   4.785   3.415   4.341 -0.2593  0.4508  0.7250
 8932TIP3    H148287   4.872   3.448   4.365 -0.1089 -0.2290  1.1357
 8932TIP3    H248288   4.726   3.453   4.407 -0.2659  0.8678  0.4790
 8933TIP3   OH248289   1.455   6.104  11.452  0.5767 -0.5456 -0.0554
 8933TIP3    H148290   1.365   6.130  11.435  0.6467 -0.4115 -0.2120
 8933TIP3    H248291   1.496   6.181  11.491  0.2708 -1.0102  1.2437
 8934TIP3   OH248292   3.322   3.412   4.954  0.2183 -0.6345 -0.5562
 8934TIP3    H148293   3.261   3.417   4.881 -0.6272  2.8740  0.2932
 8934TIP3    H248294   3.392   3.473   4.931  1.0477 -1.1117  0.5987
 8935TIP3   OH248295   1.249   4.953  16.666  0.1964 -0.1644  0.1619
 8935TIP3    H148296   1.343   4.957  16.645  0.5749 -1.9394  1.4432
 8935TIP3    H248297   1.223   4.864  16.644 -0.6663 -0.3681  1.9572
 8936TIP3   OH248298   2.545   1.480  12.839 -1.0527 -0.4436 -0.1691
 8936TIP3    H148299   2.505   1.420  12.776 -0.7370  0.5884 -1.3757
 8936TIP3    H248300   2.610   1.427  12.885 -1.7695 -1.3862 -0.2293
 8937TIP3   OH248301   0.109   4.545  12.557  0.0069  0.0378 -0.2236
 8937TIP3    H148302   0.128   4.591  12.638 -0.6396 -0.0515 -0.0209
 8937TIP3    H248303   0.137   4.455  12.573  1.4035  0.3893 -0.6709
 8938TIP3   OH248304   1.429   6.128   0.895 -0.3410  0.2769  0.0764
 8938TIP3    H148305   1.380   6.206   0.920  0.9979 -0.0783  4.3345
 8938TIP3    H248306   1.511   6.162   0.858 -0.8947  0.8730 -0.6108
 8939TIP3   OH248307   6.529   6.550  13.853  0.0436 -0.4721 -0.1666
 8939TIP3    H148308   6.589   6.476  13.838 -0.0052 -0.3254 -1.1103
 8939TIP3    H248309   6.533   6.600  13.772 -2.9364 -1.5820 -1.0524
 8940TIP3   OH248310   5.182   3.914   5.273 -0.0287 -0.1091 -0.6620
 8940TIP3    H148311   5.265   3.903   5.226  0.5639  0.8383  0.1304
 8940TIP3    H248312   5.154   3.825   5.293  0.8467 -0.4435 -0.8624
 8941TIP3   OH248313   5.598   6.429   5.193  0.3216  0.1648  0.1238
 8941TIP3    H148314   5.517   6.407   5.148  1.8252 -1.6197 -1.7850
 8941TIP3    H248315   5.633   6.345   5.222  2.4361  0.6984 -0.7804
 8942TIP3   OH248316   4.740   4.556  14.803 -0.0405  0.1707  0.0156
 8942TIP3    H148317   4.829   4.576  14.832  0.8733 -2.4021 -0.8849
 8942TIP3    H248318   4.704   4.498  14.871 -0.7378  0.5256 -0.0398
 8943TIP3   OH248319   1.245   6.385  11.470 -0.2071 -0.6284  0.3535
 8943TIP3    H148320   1.227   6.293  11.452  1.0357 -0.9329  0.6194
 8943TIP3    H248321   1.311   6.410  11.406  0.7547 -0.4110  1.4071
 8944TIP3   OH248322   4.241   2.706  12.861 -0.3201 -0.4908 -0.0178
 8944TIP3    H148323   4.252   2.612  12.852 -0.5330 -0.5458  0.2944
 8944TIP3    H248324   4.148   2.718  12.879 -0.2848 -0.2259 -0.0035
 8945TIP3   OH248325   5.842   0.824  12.033 -0.3647 -0.3209 -0.2446
 8945TIP3    H148326   5.822   0.764  12.104 -3.5574  0.8773 -0.0159
 8945TIP3    H248327   5.867   0.768  11.959 -0.2003 -1.7308  0.8714
 8946TIP3   OH248328   2.762   6.171  12.711 -0.2999  0.2691  0.1433
 8946TIP3    H148329   2.767   6.075  12.701  1.3392  0.3461  0.1341
 8946TIP3    H248330   2.783   6.205  12.624 -0.3652  0.6456  0.2746
 8947TIP3   OH248331   5.137   4.208   4.230  0.0769  0.3915 -0.3431
 8947TIP3    H148332   5.228   4.184   4.251  0.0283  1.3902  1.0135
 8947TIP3    H248333   5.125   4.294   4.268 -2.1236 -0.6097  1.3442
 8948TIP3   OH248334   6.684   4.663   3.769 -0.1458  0.1508 -0.3806
 8948TIP3    H148335   6.771   4.683   3.734 -0.4247  0.8945 -0.6566
 8948TIP3    H248336   6.694   4.670   3.864 -0.6423  3.3915 -0.5192
 8949TIP3   OH248337   5.237   1.848   2.370 -0.5271 -0.1045 -0.0720
 8949TIP3    H148338   5.287   1.896   2.435 -0.5519 -1.2725  0.8185
 8949TIP3    H248339   5.286   1.859   2.289  0.7096 -0.5064  0.6082
 8950TIP3   OH248340   0.982   4.948  13.806  0.2250 -0.0391 -0.0138
 8950TIP3    H148341   0.920   4.891  13.850 -1.0886  0.5077 -1.1279
 8950TIP3    H248342   0.936   4.979  13.728  1.9521  0.2385 -0.9608
 8951TIP3   OH248343   1.878   4.743   3.291 -0.0058  0.5514  1.0460
 8951TIP3    H148344   1.828   4.662   3.291 -0.9127  1.1034  0.6536
 8951TIP3    H248345   1.823   4.806   3.338  0.5027  1.0460  0.9882
 8952TIP3   OH248346   0.717   6.163   1.484 -0.1782 -0.1359 -0.4610
 8952TIP3    H148347   0.646   6.113   1.445 -0.0797  1.0547 -2.2463
 8952TIP3    H248348   0.674   6.235   1.530 -0.1592  1.5853 -2.9698
 8953TIP3   OH248349   1.924   1.930   1.919 -0.1981 -0.5037  0.3754
 8953TIP3    H148350   1.989   1.995   1.947 -0.9340 -0.0884  1.1289
 8953TIP3    H248351   1.894   1.890   2.000 -1.3670 -0.2312  0.0781
 8954TIP3   OH248352   3.754   6.753   5.571 -0.1399 -0.0272  0.1882
 8954TIP3    H148353   3.741   6.805   5.650  0.6561  1.2203 -0.4928
 8954TIP3    H248354   3.782   6.667   5.603 -1.5881 -0.0897  1.3176
 8955TIP3   OH248355   5.479   1.892  12.872 -0.4298  0.1756  0.6700
 8955TIP3    H148356   5.482   1.855  12.960  1.5895  1.8815  1.3654
 8955TIP3    H248357   5.476   1.986  12.886 -2.6508  0.4034 -1.0889
 8956TIP3   OH248358   3.470   6.681   3.238 -0.3066  0.7148 -0.2233
 8956TIP3    H148359   3.461   6.682   3.333  2.7002 -0.5315  0.1093
 8956TIP3    H248360   3.442   6.593   3.212 -0.2271  0.7454 -0.4149
 8957TIP3   OH248361   5.720   2.541  14.156  0.2542  0.3245 -0.0539
 8957TIP3    H148362   5.729   2.566  14.248 -0.0216 -2.0224  0.6454
 8957TIP3    H248363   5.678   2.617  14.114 -1.6167  0.5819  2.1965
 8958TIP3   OH248364   4.610   1.143   2.264  0.5603  0.5828  0.2497
 8958TIP3    H148365   4.703   1.162   2.258  0.4507  0.2686 -3.0443
 8958TIP3    H248366   4.571   1.188   2.189 -1.5376 -1.6219 -0.0378
 8959TIP3   OH248367   1.246   4.083  11.486  0.0462 -0.1355  0.1181
 8959TIP3    H148368   1.269   4.027  11.412  0.3391 -1.6817  1.3616
 8959TIP3    H248369   1.152   4.069  11.499  0.1112 -0.3057  0.4039
 8960TIP3   OH248370   1.142   1.515   3.944  0.3419  0.1819 -0.0629
 8960TIP3    H148371   1.162   1.538   3.853  0.9416  0.9147  0.2473
 8960TIP3    H248372   1.205   1.565   3.995 -0.4688  0.3369  0.7965
 8961TIP3   OH248373   3.924   6.179  14.646 -0.7042 -0.4264  1.2053
 8961TIP3    H148374   3.937   6.274  14.647 -2.4689 -0.1679  0.3426
 8961TIP3    H248375   3.972   6.150  14.568 -1.3063 -0.0671  0.6961
 8962TIP3   OH248376   5.126   4.788  13.341 -0.0107 -0.0544 -0.4651
 8962TIP3    H148377   5.204   4.736  13.322  0.3168  0.5844 -0.8824
 8962TIP3    H248378   5.070   4.729  13.391  1.8871  0.2981  2.1936
 8963TIP3   OH248379   2.820   3.024   5.827  0.1025 -0.6673  0.4752
 8963TIP3    H148380   2.811   3.018   5.732  0.8963  1.9829  0.2061
 8963TIP3    H248381   2.732   3.008   5.860 -0.6275  0.5176 -0.8330
 8964TIP3   OH248382   0.190   1.282   4.336 -0.0100 -0.2631 -0.2587
 8964TIP3    H148383   0.153   1.339   4.403 -1.6812 -0.4647 -0.9880
 8964TIP3    H248384   0.275   1.322   4.314 -0.6583  1.3005  0.0513
 8965TIP3   OH248385   0.417   6.068  16.482  0.0533  0.0069  0.3164
 8965TIP3    H148386   0.372   6.095  16.402  1.1986  0.6467 -0.1266
 8965TIP3    H248387   0.498   6.027  16.451  0.4936  0.2432  1.1519
 8966TIP3   OH248388   6.785   4.218   2.529  0.1505 -0.0924  0.3653
 8966TIP3    H148389   6.734   4.218   2.610 -0.1283  1.3550  0.2098
 8966TIP3    H248390   6.761   4.137   2.485 -2.2157  0.6867  0.1671
 8967TIP3   OH248391   6.410   5.696   3.230 -0.0954 -0.0428  0.5973
 8967TIP3    H148392   6.417   5.713   3.136  0.8390  1.3564  0.9072
 8967TIP3    H248393   6.322   5.726   3.252  0.3883  1.4779  0.5271
 8968TIP3   OH248394   4.672   5.947   3.485 -0.2133  0.2956  0.3966
 8968TIP3    H148395   4.683   6.037   3.515  1.6058 -0.0440  0.8202
 8968TIP3    H248396   4.591   5.948   3.434 -1.4421  1.6622  2.3169
 8969TIP3   OH248397   5.291   2.224  11.071 -0.7357  0.2700 -0.0077
 8969TIP3    H148398   5.249   2.305  11.101 -0.6893  0.5192 -0.5913
 8969TIP3    H248399   5.235   2.154  11.102 -1.3114  0.5790 -0.3416
 8970TIP3   OH248400   1.382   3.938  17.140  0.3025 -0.4448 -0.1951
 8970TIP3    H148401   1.293   3.973  17.131  0.4121 -0.0496  0.2151
 8970TIP3    H248402   1.406   3.959  17.230  1.2797  0.5403 -0.6666
 8971TIP3   OH248403   3.960   5.682   3.148 -0.4870 -0.4311 -0.0529
 8971TIP3    H148404   3.901   5.696   3.222  0.2055  0.6251  0.3062
 8971TIP3    H248405   4.043   5.654   3.187 -0.3364 -0.5688 -0.4659
 8972TIP3   OH248406   4.319   1.292   2.336  0.9852  0.0648 -0.0211
 8972TIP3    H148407   4.391   1.355   2.326  0.5554  0.5392 -0.1271
 8972TIP3    H248408   4.356   1.224   2.393  1.8796 -0.2613 -0.9750
 8973TIP3   OH248409   6.123   0.314   4.595 -0.4377  0.2696  0.0049
 8973TIP3    H148410   6.038   0.317   4.640 -0.1317  0.3467  0.5928
 8973TIP3    H248411   6.148   0.406   4.585 -0.5166  0.2523 -0.3482
 8974TIP3   OH248412   5.290   2.440  13.332  0.0241 -0.5441  0.5692
 8974TIP3    H148413   5.300   2.409  13.423  1.6631  1.0725  0.9805
 8974TIP3    H248414   5.204   2.483  13.331  0.4255  0.3434  1.6709
 8975TIP3   OH248415   0.354   4.192   1.497  0.0445  0.0036 -0.6165
 8975TIP3    H148416   0.341   4.205   1.590  1.3836 -0.2048 -0.3851
 8975TIP3    H248417   0.300   4.117   1.474  2.3619 -2.1429  0.7103
 8976TIP3   OH248418   3.333   5.258  14.183  0.6838  0.0904 -0.2157
 8976TIP3    H148419   3.246   5.286  14.156  0.5567  0.3915  0.4719
 8976TIP3    H248420   3.375   5.227  14.103 -0.3838 -0.9407 -0.3780
 8977TIP3   OH248421   2.932   4.449  15.702 -0.4983 -0.0890 -0.2256
 8977TIP3    H148422   2.897   4.379  15.647  0.5522 -0.5148 -0.3483
 8977TIP3    H248423   2.858   4.473  15.759 -1.6998  0.5692 -1.9981
 8978TIP3   OH248424   3.276   5.431  13.211  0.0841 -0.1678  0.4368
 8978TIP3    H148425   3.352   5.482  13.181 -0.0502  0.7448  1.6100
 8978TIP3    H248426   3.300   5.340  13.195  0.5892  0.2238 -1.1021
 8979TIP3   OH248427   1.338   1.927   0.034 -0.2725 -0.1885  0.1871
 8979TIP3    H148428   1.266   1.945  -0.027 -0.6050  1.4540  1.0085
 8979TIP3    H248429   1.302   1.863   0.095 -2.1392  2.7990  2.3846
 8980TIP3   OH248430   0.054   4.110  16.172 -0.3278  0.1517  0.5144
 8980TIP3    H148431   0.132   4.082  16.220  0.3467 -0.8750 -1.1365
 8980TIP3    H248432  -0.019   4.084  16.228  0.3252 -3.6166 -0.2389
 8981TIP3   OH248433   3.760   3.067  15.382  0.0908  0.1330  0.1194
 8981TIP3    H148434   3.778   2.973  15.388 -1.9657 -0.2843  0.0561
 8981TIP3    H248435   3.700   3.075  15.307 -1.4384  1.2188  1.4263
 8982TIP3   OH248436   2.425   6.613   2.982 -0.7904  0.4876 -0.5206
 8982TIP3    H148437   2.491   6.555   3.021 -1.2628  0.2774 -0.0318
 8982TIP3    H248438   2.468   6.698   2.979 -1.2106  0.8039  1.7036
 8983TIP3   OH248439   4.931   3.718   4.802 -0.0380  0.0324  0.5041
 8983TIP3    H148440   4.920   3.801   4.754 -0.7612  0.5213  1.4890
 8983TIP3    H248441   4.859   3.718   4.865 -0.1837 -1.4793  0.3395
 8984TIP3   OH248442   2.618   0.608   5.239  0.4120  0.2157 -0.7303
 8984TIP3    H148443   2.593   0.516   5.238 -1.5147  0.6040  3.0578
 8984TIP3    H248444   2.707   0.608   5.276  0.5603 -0.1303 -1.0851
 8985TIP3   OH248445   1.501   0.481  10.405  0.4314 -0.1737 -0.2783
 8985TIP3    H148446   1.485   0.464  10.498  0.3311  0.5076 -0.1666
 8985TIP3    H248447   1.420   0.521  10.374  0.8395  0.5355 -0.4213
 8986TIP3   OH248448   3.202   4.123  16.716 -0.2191 -0.0747  0.9030
 8986TIP3    H148449   3.128   4.098  16.660  1.1268 -0.8068 -0.5785
 8986TIP3    H248450   3.245   4.194  16.669  0.1919  0.1506  1.6164
 8987TIP3   OH248451   6.001   4.876  12.514 -0.3083 -0.5852 -0.2950
 8987TIP3    H148452   5.923   4.904  12.465  0.6070  0.1278 -1.3479
 8987TIP3    H248453   6.027   4.954  12.563 -0.4258 -0.9123  0.2966
 8988TIP3   OH248454   0.359   1.245  13.239  0.2194  0.1962  0.3358
 8988TIP3    H148455   0.309   1.327  13.239 -1.7475 -0.9430 -1.4538
 8988TIP3    H248456   0.311   1.187  13.297 -0.8649 -1.0560 -1.7480
 8989TIP3   OH248457   5.198   1.163   3.621  0.7756  0.1956  0.2560
 8989TIP3    H148458   5.141   1.192   3.692 -0.3231  0.8552 -0.8723
 8989TIP3    H248459   5.198   1.068   3.627  0.3717  0.2354  0.8935
 8990TIP3   OH248460   1.015   3.016   5.373  0.3244 -0.3236 -0.0448
 8990TIP3    H148461   0.941   3.069   5.403  1.0331  1.4095 -1.2977
 8990TIP3    H248462   1.040   2.965   5.450 -1.5636 -0.2485  0.6562
 8991TIP3   OH248463   3.593   0.905   5.161 -0.4920 -0.2830  0.3130
 8991TIP3    H148464   3.642   0.880   5.239 -1.0427  0.9111  1.0568
 8991TIP3    H248465   3.501   0.901   5.187 -0.8755 -3.2122 -1.2819
 8992TIP3   OH248466   6.138   5.265  12.046 -0.1775  0.4181 -0.6880
 8992TIP3    H148467   6.189   5.214  12.108 -2.1502 -1.3304 -0.4624
 8992TIP3    H248468   6.179   5.352  12.047 -0.3141  0.5397  3.2525
 8993TIP3   OH248469   6.465   4.248   0.457  0.5629 -0.4673 -0.3420
 8993TIP3    H148470   6.403   4.190   0.414 -0.3802  1.4138 -1.5802
 8993TIP3    H248471   6.549   4.202   0.450 -0.1172 -1.5691 -1.4886
 8994TIP3   OH248472   0.494   6.251   4.933 -0.1162  0.1348  0.6477
 8994TIP3    H148473   0.456   6.203   5.006 -1.2561 -0.1192 -0.1018
 8994TIP3    H248474   0.504   6.341   4.966  0.5197 -0.2587  1.5165
 8995TIP3   OH248475   6.281   5.256  11.788  0.0224 -0.0054 -0.5920
 8995TIP3    H148476   6.217   5.274  11.857 -1.6065 -1.3730 -1.6782
 8995TIP3    H248477   6.347   5.324  11.797 -1.4800  1.3084  0.7314
 8996TIP3   OH248478   3.464   5.576  12.083 -0.2635 -0.1792  0.3258
 8996TIP3    H148479   3.437   5.667  12.099 -1.1706 -0.4866  0.5754
 8996TIP3    H248480   3.538   5.583  12.023 -0.5312  0.7130  0.0943
 8997TIP3   OH248481   3.560   1.147   1.509 -0.0198  0.2571  0.4646
 8997TIP3    H148482   3.612   1.227   1.514  0.0633  0.1701  0.9807
 8997TIP3    H248483   3.624   1.076   1.504 -0.0300  0.4186 -3.8739
 8998TIP3   OH248484   4.825   1.145  13.544  0.0278  0.3527 -0.1056
 8998TIP3    H148485   4.839   1.105  13.458 -2.3680 -0.3636 -0.1973
 8998TIP3    H248486   4.910   1.138  13.588  0.3547 -2.4920 -1.0794
 8999TIP3   OH248487   1.653   1.082  11.075  0.0962  0.1655 -0.5697
 8999TIP3    H148488   1.699   1.029  11.010 -2.4939 -0.1806 -2.1865
 8999TIP3    H248489   1.585   1.127  11.025 -0.4871  1.7089  1.5284
 9000TIP3   OH248490   1.992   6.053   1.766 -0.3010 -0.1048  0.4822
 9000TIP3    H148491   1.957   5.974   1.806  0.1066 -0.2026  0.6542
 9000TIP3    H248492   2.087   6.042   1.771 -0.2355 -0.4280 -1.1217
 9001TIP3   OH248493   2.421   4.962  14.287 -0.5632  0.0221  0.2521
 9001TIP3    H148494   2.483   4.996  14.350 -0.8573  1.0827 -0.0265
 9001TIP3    H248495   2.344   5.019  14.295 -0.5917  0.1842 -1.0637
 9002TIP3   OH248496   0.103   6.275  10.787  0.3257  0.1966 -0.0895
 9002TIP3    H148497   0.130   6.274  10.695 -0.0808  0.0426 -0.2055
 9002TIP3    H248498   0.059   6.360  10.797  1.2697  0.6555  0.2207
 9003TIP3   OH248499   0.685   4.161  14.693 -0.2074  0.2899  0.4681
 9003TIP3    H148500   0.664   4.251  14.717  2.5265  0.7170  1.4139
 9003TIP3    H248501   0.711   4.120  14.776  1.1533 -0.5868 -0.3710
 9004TIP3   OH248502   4.295   4.566  15.705  0.8556  0.1207 -0.1564
 9004TIP3    H148503   4.369   4.619  15.736  1.8739 -2.1685  1.5005
 9004TIP3    H248504   4.334   4.508  15.640 -0.0530  0.7062 -1.2389
 9005TIP3   OH248505   0.412   5.577  15.732  0.3225 -0.4617 -0.1966
 9005TIP3    H148506   0.457   5.557  15.814 -1.2184 -2.1509  0.2549
 9005TIP3    H248507   0.413   5.673  15.727 -0.5440 -0.2773  2.3423
 9006TIP3   OH248508   5.340   6.150  12.702 -0.3392  0.6766 -0.5321
 9006TIP3    H148509   5.272   6.162  12.768 -0.1482 -0.8723 -0.0418
 9006TIP3    H248510   5.354   6.056  12.698  2.0209  0.9824 -0.3892
 9007TIP3   OH248511   4.542   2.937  17.015  0.3978  0.0688  0.4267
 9007TIP3    H148512   4.528   2.846  16.989  0.7917 -0.4402  1.9565
 9007TIP3    H248513   4.477   2.986  16.964  0.3624 -1.0262 -0.6047
 9008TIP3   OH248514   1.955   0.706  12.950 -0.0221 -0.2198 -0.1023
 9008TIP3    H148515   2.005   0.727  13.029 -0.2722  0.1521 -0.0401
 9008TIP3    H248516   1.864   0.702  12.979 -0.1742  0.4415 -0.4634
 9009TIP3   OH248517   5.694   3.063  15.845  0.3502  0.0823 -0.8542
 9009TIP3    H148518   5.645   3.000  15.897 -0.5876  1.3416 -0.1948
 9009TIP3    H248519   5.745   3.009  15.784 -0.2330 -1.3122 -0.1336
 9010TIP3   OH248520   2.958   2.802   2.587  0.5303 -0.3119 -0.2389
 9010TIP3    H148521   2.965   2.756   2.670 -3.2075  2.4190  1.6908
 9010TIP3    H248522   2.885   2.760   2.542  1.6881 -0.8940 -1.6464
 9011TIP3   OH248523   6.696   2.364  15.057  0.0319 -0.2772  0.5769
 9011TIP3    H148524   6.786   2.359  15.023  0.1894 -1.1163  1.0912
 9011TIP3    H248525   6.666   2.273  15.058 -0.5088 -0.0976  1.2500
 9012TIP3   OH248526   4.350   1.646   5.671 -0.0180 -0.6891  0.0279
 9012TIP3    H148527   4.401   1.696   5.608 -0.5639  1.4647  1.2602
 9012TIP3    H248528   4.267   1.628   5.626  0.3007 -0.7661 -0.5305
 9013TIP3   OH248529   4.413   2.892   2.441  0.3007 -0.6766 -0.3842
 9013TIP3    H148530   4.473   2.829   2.482 -1.2885 -0.9064  1.6732
 9013TIP3    H248531   4.341   2.839   2.408  0.3631 -0.2264 -1.2385
 9014TIP3   OH248532   4.801   6.359   6.614 -0.1902 -0.5478  0.1743
 9014TIP3    H148533   4.752   6.441   6.609 -0.2254 -0.7211 -3.3573
 9014TIP3    H248534   4.733   6.291   6.617 -0.1786 -0.6469 -1.6070
 9015TIP3   OH248535   0.244   0.606  16.467 -0.2410 -0.0891 -0.2455
 9015TIP3    H148536   0.293   0.643  16.393 -1.2213 -1.4320 -1.6011
 9015TIP3    H248537   0.223   0.517  16.440 -2.0761 -0.0522  0.9412
 9016TIP3   OH248538   3.485   4.865   5.571  0.3017 -0.1367 -0.0732
 9016TIP3    H148539   3.552   4.916   5.617 -0.2204 -0.8032  1.4889
 9016TIP3    H248540   3.418   4.929   5.548 -0.1599 -0.0352  1.5068
 9017TIP3   OH248541   2.475   5.224  16.049 -0.6331 -0.3073 -0.0793
 9017TIP3    H148542   2.504   5.190  16.133 -0.6010 -0.2632 -0.0726
 9017TIP3    H248543   2.380   5.212  16.050 -0.5707 -0.8511 -0.2840
 9018TIP3   OH248544   5.894   3.985   5.678  0.1962 -0.0613 -0.3030
 9018TIP3    H148545   5.881   3.944   5.764  0.5082 -0.5770 -0.4982
 9018TIP3    H248546   5.818   4.042   5.667  0.6331  0.7314  0.7320
 9019TIP3   OH248547   4.186   6.451  13.576  0.2194 -0.3622 -0.4430
 9019TIP3    H148548   4.207   6.433  13.668  0.1728 -0.5764 -0.4755
 9019TIP3    H248549   4.164   6.544  13.575 -0.8848 -0.6150 -0.0345
 9020TIP3   OH248550   3.433   6.748   0.571  0.1795  0.0703 -0.4849
 9020TIP3    H148551   3.406   6.742   0.479 -1.9535 -0.0362  0.1251
 9020TIP3    H248552   3.361   6.794   0.614  0.8444 -0.5106  1.2711
 9021TIP3   OH248553   6.069   1.075   4.629 -0.0821  0.1862 -0.3674
 9021TIP3    H148554   6.056   0.980   4.623  1.2170 -0.0410  0.1076
 9021TIP3    H248555   6.156   1.089   4.592 -0.7342  1.3510 -1.4943
 9022TIP3   OH248556   2.662   2.502   6.621 -0.1825  0.1005 -0.0632
 9022TIP3    H148557   2.687   2.517   6.712 -2.2378 -0.7190  0.6630
 9022TIP3    H248558   2.647   2.590   6.587 -0.6642  0.3443  0.7617
 9023TIP3   OH248559   2.996   6.081  11.140 -0.0995  0.4780  0.1734
 9023TIP3    H148560   3.038   5.995  11.132  0.5498  0.8180 -0.0882
 9023TIP3    H248561   2.955   6.079  11.227  1.3026  0.5103  0.8489
 9024TIP3   OH248562   1.277   1.457   1.259  0.0611 -0.0045  0.0273
 9024TIP3    H148563   1.187   1.486   1.266  0.2139  0.8395 -1.4068
 9024TIP3    H248564   1.329   1.534   1.282  0.4292 -0.2110 -0.1010
 9025TIP3   OH248565   3.930   5.598  16.709  0.0236  0.0812 -0.1729
 9025TIP3    H148566   3.902   5.640  16.627  1.0944  0.0329 -0.5612
 9025TIP3    H248567   4.022   5.623  16.719  0.1822 -0.7607  0.4863
 9026TIP3   OH248568   1.135   5.330  11.911 -0.4278 -0.1259  0.4294
 9026TIP3    H148569   1.214   5.364  11.954  0.0852 -1.8903  0.9438
 9026TIP3    H248570   1.169   5.267  11.847 -1.3643 -0.1367 -0.0531
 9027TIP3   OH248571   0.044   6.351   6.034 -0.2048 -1.1413  0.2782
 9027TIP3    H148572   0.050   6.256   6.045  0.2348 -1.1598 -0.0582
 9027TIP3    H248573   0.054   6.386   6.122  1.0452 -1.3566  0.2354
 9028TIP3   OH248574   2.791   4.366   1.209 -0.7938 -0.3283 -0.3661
 9028TIP3    H148575   2.870   4.380   1.156 -1.1615 -0.5660 -0.9785
 9028TIP3    H248576   2.818   4.389   1.298 -0.0550 -0.3265 -0.5853
 9029TIP3   OH248577   6.282   2.321   2.647 -0.2647 -0.5054 -0.2065
 9029TIP3    H148578   6.230   2.402   2.647 -1.1041 -1.0314 -1.1961
 9029TIP3    H248579   6.362   2.344   2.694 -1.4552  0.2633  1.4857
 9030TIP3   OH248580   4.999   2.192  14.918 -0.5278 -0.1926  0.3932
 9030TIP3    H148581   5.062   2.209  14.848 -0.1156 -0.1410  0.7853
 9030TIP3    H248582   4.918   2.233  14.887 -0.4063 -0.3562 -0.1564
 9031TIP3   OH248583   0.896   2.555   5.613  0.1571  0.6668 -0.5811
 9031TIP3    H148584   0.835   2.626   5.633 -0.1324 -0.0008  0.9832
 9031TIP3    H248585   0.841   2.478   5.602  0.6576  0.2246 -0.0049
 9032TIP3   OH248586   2.749   5.297  11.994  0.3285 -0.4830  0.0919
 9032TIP3    H148587   2.843   5.278  11.986  0.0993 -1.2561 -0.8040
 9032TIP3    H248588   2.719   5.242  12.066  0.3783 -0.8874 -0.1996
 9033TIP3   OH248589   3.153   4.125  10.401 -0.1796 -0.3792 -0.1301
 9033TIP3    H148590   3.227   4.186  10.401 -0.4631 -0.0290 -1.0171
 9033TIP3    H248591   3.085   4.171  10.353 -0.3397 -1.4678 -0.9563
 9034TIP3   OH248592   3.679   5.839   0.805  0.9726  0.1555 -0.2081
 9034TIP3    H148593   3.660   5.787   0.727 -1.0943 -1.0193  1.0397
 9034TIP3    H248594   3.665   5.929   0.776 -3.7252 -0.4452 -0.2542
 9035TIP3   OH248595   3.886   0.888   6.105  0.4153  0.2855 -0.5075
 9035TIP3    H148596   3.914   0.980   6.110  2.1154 -0.2481 -0.0135
 9035TIP3    H248597   3.960   0.838   6.138 -0.7213 -1.2498 -0.2119
 9036TIP3   OH248598   1.281   3.522  17.172 -0.0153  0.0098  0.2181
 9036TIP3    H148599   1.373   3.518  17.199  0.4420 -0.9003 -1.3999
 9036TIP3    H248600   1.272   3.450  17.110 -1.0844  1.8396 -1.8276
 9037TIP3   OH248601   2.751   4.867  11.143  0.5508  0.1724  0.3550
 9037TIP3    H148602   2.668   4.833  11.111  0.6321  0.3061 -0.0052
 9037TIP3    H248603   2.762   4.827  11.229  0.4092 -0.3321  0.1421
 9038TIP3   OH248604   2.793   1.043   6.005 -0.5612  0.5169  0.2014
 9038TIP3    H148605   2.787   1.133   6.037  1.5430  1.0055 -0.6620
 9038TIP3    H248606   2.786   0.989   6.083  2.5832  1.6282  1.3363
 9039TIP3   OH248607   2.575   1.385   5.385  0.3325 -0.0525  0.1332
 9039TIP3    H148608   2.597   1.444   5.457  0.1815 -0.2583  0.3461
 9039TIP3    H248609   2.606   1.299   5.412 -0.9983 -0.4103  0.5824
 9040TIP3   OH248610   6.268   6.681   3.283  0.8900  0.8358 -0.2238
 9040TIP3    H148611   6.224   6.664   3.200  0.4467  0.3322  0.1144
 9040TIP3    H248612   6.327   6.606   3.295  2.3796  1.8557 -1.0297
 9041TIP3   OH248613   0.977   5.821  16.088 -0.3119  0.1047 -0.0407
 9041TIP3    H148614   1.062   5.785  16.064  0.3691  2.0226 -0.5139
 9041TIP3    H248615   0.954   5.775  16.168  1.2751 -0.2542  0.2234
 9042TIP3   OH248616   5.718   4.930  14.355  0.7701  0.2133 -0.2948
 9042TIP3    H148617   5.624   4.943  14.363  0.8098  0.2698  0.0830
 9042TIP3    H248618   5.750   4.929  14.445  1.0667 -0.2973 -0.4045
 9043TIP3   OH248619   3.721   3.401  11.602  0.4326 -0.4355  0.3227
 9043TIP3    H148620   3.739   3.489  11.637  1.7710 -0.0913 -1.1531
 9043TIP3    H248621   3.796   3.349  11.630  0.0358 -0.9048  0.5082
 9044TIP3   OH248622   4.798   4.357  12.057  0.0853  0.1681 -0.7514
 9044TIP3    H148623   4.714   4.400  12.039  0.5686  0.7159 -1.7477
 9044TIP3    H248624   4.775   4.284  12.114 -0.6608  2.1426  1.5580
 9045TIP3   OH248625   4.877   2.477  16.624 -0.1302  0.5366 -0.0514
 9045TIP3    H148626   4.951   2.452  16.570 -1.4559 -1.8185 -0.8442
 9045TIP3    H248627   4.909   2.551  16.676  1.0620  3.1134 -4.2524
 9046TIP3   OH248628   3.769   2.251  14.619  0.5779  0.3460  0.2030
 9046TIP3    H148629   3.723   2.193  14.679  0.2653  0.1337 -0.2428
 9046TIP3    H248630   3.751   2.339  14.653  0.6722  0.2090  0.6117
 9047TIP3   OH248631   4.506   5.727  11.868 -0.1563 -0.5755 -0.5253
 9047TIP3    H148632   4.518   5.648  11.815  2.9797 -0.5718  0.1176
 9047TIP3    H248633   4.582   5.781  11.848 -1.0497  1.2239  0.8828
 9048TIP3   OH248634   5.754   5.182  15.689 -0.1940  0.2749 -0.2266
 9048TIP3    H148635   5.779   5.266  15.651 -1.7680  0.6766 -0.4095
 9048TIP3    H248636   5.735   5.126  15.614 -0.8958  0.3030 -0.0669
 9049TIP3   OH248637   3.201   4.613   3.883 -0.2772  0.0490 -0.0095
 9049TIP3    H148638   3.112   4.578   3.888 -0.3207  0.3797  1.8130
 9049TIP3    H248639   3.198   4.673   3.809 -1.5888  0.0855  0.0464
 9050TIP3   OH248640   0.526   3.035   2.876 -0.0673  0.0477  0.0630
 9050TIP3    H148641   0.575   3.085   2.812  0.7229 -0.6604  0.1047
 9050TIP3    H248642   0.577   3.043   2.957 -0.0060 -0.7007  0.1040
 9051TIP3   OH248643   2.365   5.231  13.004  0.4742 -0.3039 -0.5228
 9051TIP3    H148644   2.299   5.245  12.936 -0.0004  0.5152  0.0870
 9051TIP3    H248645   2.321   5.259  13.085  1.0951 -1.0787  0.0869
 9052TIP3   OH248646   0.347   6.292   1.507 -0.1180 -0.4424  0.4445
 9052TIP3    H148647   0.297   6.222   1.550  0.8329 -1.6865 -0.4261
 9052TIP3    H248648   0.293   6.316   1.431 -0.9446  0.5129  1.3219
 9053TIP3   OH248649   2.832   5.335  10.878  0.3259  0.6303  0.4748
 9053TIP3    H148650   2.779   5.273  10.928  0.1631  1.3804  1.2374
 9053TIP3    H248651   2.846   5.292  10.794  1.3302 -1.0311  1.4622
 9054TIP3   OH248652   1.871   5.522   0.048 -0.4197  0.0479  0.7371
 9054TIP3    H148653   1.906   5.467  -0.023 -1.6206  0.4348 -0.1801
 9054TIP3    H248654   1.845   5.603   0.004  2.4957  1.8893  2.2844
 9055TIP3   OH248655   2.037   3.978  16.233 -0.3262  0.5443  0.2057
 9055TIP3    H148656   1.959   3.926  16.249 -0.0011  0.3276  1.1006
 9055TIP3    H248657   2.064   3.955  16.144  0.6715 -1.9377  1.0999
 9056TIP3   OH248658   6.293   0.926  13.446  0.0400 -0.2557  0.1492
 9056TIP3    H148659   6.254   1.004  13.484  0.6015 -1.0712  2.5097
 9056TIP3    H248660   6.218   0.870  13.424 -0.2874 -0.8148  2.4579
 9057TIP3   OH248661   5.125   5.896   2.592 -0.3280  0.2450  0.4211
 9057TIP3    H148662   5.130   5.813   2.545 -1.2522  0.7204 -0.5527
 9057TIP3    H248663   5.198   5.894   2.653 -0.7377 -1.5753  0.8859
 9058TIP3   OH248664   2.061   5.807  11.715  0.2188  0.3620  0.1058
 9058TIP3    H148665   1.977   5.845  11.689  1.2078  0.9511 -2.3179
 9058TIP3    H248666   2.107   5.789  11.633  1.6022 -1.9831  1.3277
 9059TIP3   OH248667   3.911   3.054  13.214 -0.5994  0.0073  0.1841
 9059TIP3    H148668   3.821   3.087  13.212  0.3698  2.7558  0.2487
 9059TIP3    H248669   3.951   3.090  13.134  0.3565 -1.4691 -0.0166
 9060TIP3   OH248670   2.408   5.101   3.480  0.2528 -0.0142 -0.0369
 9060TIP3    H148671   2.487   5.156   3.477  0.9950 -1.0607 -0.2470
 9060TIP3    H248672   2.358   5.135   3.554 -0.7541  2.8419 -1.9835
 9061TIP3   OH248673   6.767   6.609  14.371 -0.0972 -0.0577  0.0076
 9061TIP3    H148674   6.794   6.544  14.436 -2.5015  0.8766  1.9985
 9061TIP3    H248675   6.673   6.595  14.360 -0.0857  1.1045 -1.8027
 9062TIP3   OH248676   1.132   4.092  15.855 -0.5656 -0.3279  0.1037
 9062TIP3    H148677   1.206   4.060  15.802 -0.6339  0.0908 -0.2388
 9062TIP3    H248678   1.147   4.053  15.941  0.3956  0.2577  0.2043
 9063TIP3   OH248679   6.572   2.687   1.777 -0.5016  0.0794 -0.3975
 9063TIP3    H148680   6.501   2.716   1.834  0.3821  1.6535 -0.0579
 9063TIP3    H248681   6.534   2.616   1.725 -1.5193 -0.8705  1.6141
 9064TIP3   OH248682   2.493   0.145  12.999  0.0219 -0.1884  0.2257
 9064TIP3    H148683   2.439   0.074  13.034  0.6061 -1.6228 -1.6947
 9064TIP3    H248684   2.449   0.171  12.918  1.8619 -0.9729 -1.0625
 9065TIP3   OH248685   4.366   3.417  11.608  0.2307  0.1521  0.4536
 9065TIP3    H148686   4.405   3.504  11.601 -1.5367  0.8071 -1.7867
 9065TIP3    H248687   4.425   3.369  11.667  3.2665  1.7074 -1.1806
 9066TIP3   OH248688   1.433   1.417  11.908  0.2288 -0.4771 -0.5158
 9066TIP3    H148689   1.364   1.438  11.971 -0.2769 -1.2597 -0.7901
 9066TIP3    H248690   1.441   1.496  11.854  0.4529  0.0837  0.3267
 9067TIP3   OH248691   0.941   3.877   0.174 -0.0317 -0.5853 -0.9505
 9067TIP3    H148692   0.922   3.938   0.103  0.8018  0.0426 -0.6450
 9067TIP3    H248693   1.029   3.901   0.204 -0.0232 -1.4018 -0.2790
 9068TIP3   OH248694   5.004   2.238   5.632 -0.0705  0.6748 -0.5281
 9068TIP3    H148695   5.034   2.182   5.703  1.6295  1.4553 -0.5903
 9068TIP3    H248696   4.933   2.190   5.591 -0.1126 -0.4237  0.7959
 9069TIP3   OH248697   1.431   0.805  13.999  0.0639  0.2895  0.5417
 9069TIP3    H148698   1.389   0.720  14.008 -0.7653  0.4176 -1.7709
 9069TIP3    H248699   1.370   0.867  14.039 -0.3304  0.0584  0.3005
 9070TIP3   OH248700   4.598   3.937  17.162  0.4525 -0.0774 -0.4388
 9070TIP3    H148701   4.687   3.971  17.174  0.8971 -0.4937 -2.3106
 9070TIP3    H248702   4.578   3.891  17.243 -0.2154  4.6640  2.2795
 9071TIP3   OH248703   2.186   5.793  11.031 -0.5193 -0.0991  0.5705
 9071TIP3    H148704   2.164   5.800  10.938  0.6241  0.5857  0.3486
 9071TIP3    H248705   2.113   5.835  11.076 -0.8821 -0.0752 -0.0299
 9072TIP3   OH248706   2.064   3.450   5.274  0.2953  0.2308 -0.1725
 9072TIP3    H148707   2.111   3.530   5.251 -0.3294  0.5079 -0.4895
 9072TIP3    H248708   2.103   3.422   5.357  0.9265  0.5273 -0.3679
 9073TIP3   OH248709   4.144   3.028  11.304  0.2598  0.7746 -0.4607
 9073TIP3    H148710   4.114   2.963  11.367  1.9048  0.6769  0.2559
 9073TIP3    H248711   4.194   2.979  11.239 -0.5776  1.0071 -1.2883
 9074TIP3   OH248712   2.818   2.964   4.244  0.1447 -0.4111  0.1239
 9074TIP3    H148713   2.761   2.941   4.170  0.4370 -0.1610 -0.1763
 9074TIP3    H248714   2.757   2.994   4.312 -0.0216  0.7329 -0.5193
 9075TIP3   OH248715   6.179   2.821  12.195  0.1316 -0.2413  0.0291
 9075TIP3    H148716   6.131   2.861  12.123  1.1182  1.2580  0.1704
 9075TIP3    H248717   6.269   2.814  12.163  0.2025 -1.3020  0.4362
 9076TIP3   OH248718   5.871   0.134  11.616  0.8544  0.6262  0.7948
 9076TIP3    H148719   5.835   0.088  11.692 -1.2484  0.1855 -0.4387
 9076TIP3    H248720   5.821   0.100  11.542  1.9102  2.1007 -0.6201
 9077TIP3   OH248721   2.131   4.662  11.912 -0.2442 -0.4759  0.1192
 9077TIP3    H148722   2.133   4.749  11.951 -1.8926 -0.6209  0.5524
 9077TIP3    H248723   2.041   4.632  11.924 -0.2827 -1.3162 -2.0707
 9078TIP3   OH248724   6.399   5.120  14.942 -0.8846 -0.0047 -0.5193
 9078TIP3    H148725   6.420   5.029  14.919 -2.8506 -0.4143 -0.7893
 9078TIP3    H248726   6.390   5.164  14.857 -0.4582  0.3210 -0.3957
 9079TIP3   OH248727   0.327   5.177   4.519 -0.0754  0.7558  0.1944
 9079TIP3    H148728   0.360   5.263   4.492 -1.4799  0.6148 -2.0642
 9079TIP3    H248729   0.406   5.123   4.525  0.4457  1.1729 -2.3349
 9080TIP3   OH248730   1.749   3.710  11.985  0.4026 -0.0771 -0.1137
 9080TIP3    H148731   1.821   3.654  11.956  0.8065 -0.7381  2.0846
 9080TIP3    H248732   1.771   3.797  11.949  0.5639 -0.9695 -2.2321
 9081TIP3   OH248733   0.077   0.808  15.511 -0.1149  0.5039 -1.0641
 9081TIP3    H148734   0.154   0.845  15.468  1.4711 -0.5086  0.8032
 9081TIP3    H248735   0.086   0.713  15.499 -0.8213  0.3478 -0.4313
 9082TIP3   OH248736   3.847   1.036   4.018 -1.0932  0.2126 -0.1927
 9082TIP3    H148737   3.791   1.005   4.089  0.7220  0.4435  1.3816
 9082TIP3    H248738   3.916   0.970   4.012 -0.0039  1.3415 -0.2180
 9083TIP3   OH248739   2.887   3.714  16.029 -0.4094  0.8151  0.1373
 9083TIP3    H148740   2.977   3.747  16.028  0.9518 -2.6078  1.9632
 9083TIP3    H248741   2.862   3.708  15.937  2.2764 -0.8116 -0.5327
 9084TIP3   OH248742   4.538   1.976  12.189  0.0899  0.8636 -0.3078
 9084TIP3    H148743   4.602   1.947  12.124 -0.2398 -0.3307 -0.1103
 9084TIP3    H248744   4.572   1.945  12.272 -1.6562 -1.4011 -0.4067
 9085TIP3   OH248745   1.879   5.579  15.465 -0.1778  0.3457 -0.0640
 9085TIP3    H148746   1.927   5.659  15.487  0.5975 -0.6448  2.0183
 9085TIP3    H248747   1.804   5.610  15.414  1.4673  2.1358 -1.4823
 9086TIP3   OH248748   3.676   5.921  15.850 -0.2492  0.2850 -0.3905
 9086TIP3    H148749   3.626   5.900  15.929  0.2354  0.6437  0.0210
 9086TIP3    H248750   3.764   5.941  15.883 -0.4124  1.8597 -0.8705
 9087TIP3   OH248751   4.826   0.565  14.856  0.0921 -0.7883  0.1590
 9087TIP3    H148752   4.771   0.493  14.885  0.6242 -1.2809 -0.0605
 9087TIP3    H248753   4.836   0.551  14.762 -0.7557  0.2148 -0.0983
 9088TIP3   OH248754   5.450   6.366   2.355  0.0197  0.2798 -0.2769
 9088TIP3    H148755   5.380   6.410   2.404 -0.3273 -0.2430 -0.2942
 9088TIP3    H248756   5.480   6.431   2.292 -1.4467  0.0319 -1.2543
 9089TIP3   OH248757   2.927   5.871  12.518  0.4693 -0.2001 -0.4728
 9089TIP3    H148758   3.021   5.872  12.535  0.3259 -0.1081  0.3591
 9089TIP3    H248759   2.912   5.944  12.458  0.9710 -0.4146 -0.8613
 9090TIP3   OH248760   5.739   0.957   0.163  0.0140 -0.0124 -0.0567
 9090TIP3    H148761   5.830   0.972   0.140  0.5279 -0.0202  1.8937
 9090TIP3    H248762   5.709   1.039   0.201 -0.1488 -0.6822  1.2999
 9091TIP3   OH248763   1.203   5.646  13.414  0.0865 -0.3807  0.2911
 9091TIP3    H148764   1.170   5.727  13.375  0.1174 -0.2466  0.5420
 9091TIP3    H248765   1.295   5.643  13.389  0.5937  0.7037  2.0069
 9092TIP3   OH248766   1.340   3.607   0.574 -0.3722  0.1962  0.8431
 9092TIP3    H148767   1.425   3.651   0.571 -0.2038 -0.1945 -0.5133
 9092TIP3    H248768   1.361   3.515   0.593 -0.2768 -0.4171 -2.1024
 9093TIP3   OH248769   6.128   6.181   6.089  0.4251 -0.3294  0.0455
 9093TIP3    H148770   6.200   6.118   6.084 -0.0903 -0.9852  0.8290
 9093TIP3    H248771   6.141   6.237   6.013  2.2023  0.0212  0.5715
 9094TIP3   OH248772   5.888   1.035  17.123 -0.3141  0.2368  0.2897
 9094TIP3    H148773   5.849   0.999  17.043 -1.5750  1.2082  0.4400
 9094TIP3    H248774   5.903   0.959  17.179 -2.4442 -0.1312  0.3983
 9095TIP3   OH248775   6.536   5.084   2.899 -0.9578  0.1999  0.6458
 9095TIP3    H148776   6.557   5.002   2.943  0.2509 -0.0246 -0.3104
 9095TIP3    H248777   6.444   5.075   2.874 -0.2812 -1.7781 -1.3441
 9096TIP3   OH248778   1.091   5.343  15.839  0.0671  0.0419 -0.7591
 9096TIP3    H148779   1.164   5.316  15.783  1.1795  0.7443  0.3286
 9096TIP3    H248780   1.092   5.438  15.837  0.7257  0.0983  1.2075
 9097TIP3   OH248781   5.788   6.616  13.507  0.3820  0.2458  0.6224
 9097TIP3    H148782   5.873   6.602  13.548  0.0583 -0.4829  1.0679
 9097TIP3    H248783   5.793   6.570  13.423  0.1401 -0.5232  1.0255
 9098TIP3   OH248784   5.913   3.006  11.117  0.1153  0.0127 -0.5157
 9098TIP3    H148785   5.888   3.040  11.032 -0.9900  3.2461  1.0314
 9098TIP3    H248786   5.840   2.949  11.143 -0.3227  0.3592 -0.9824
 9099TIP3   OH248787   5.142   3.003   1.024  0.4578  0.0948  0.4283
 9099TIP3    H148788   5.119   3.076   0.967 -2.8718 -0.3373  1.1355
 9099TIP3    H248789   5.153   3.042   1.111 -0.7306 -0.1402  0.6904
 9100TIP3   OH248790   3.683   0.962  16.710 -0.4121 -0.0327  0.2734
 9100TIP3    H148791   3.666   0.965  16.804 -0.5673 -0.6272  0.2678
 9100TIP3    H248792   3.776   0.940  16.703 -0.0365  1.5236  0.2946
 9101TIP3   OH248793   2.987   5.612  12.615  0.2427 -0.1084  0.0759
 9101TIP3    H148794   3.029   5.634  12.697 -1.9962  1.1367  0.9241
 9101TIP3    H248795   2.958   5.696  12.579 -1.0050 -0.8615 -0.7351
 9102TIP3   OH248796   6.011   2.761  11.583  0.3048  0.4440 -0.7983
 9102TIP3    H148797   6.015   2.825  11.655  0.9219 -0.2830 -0.1757
 9102TIP3    H248798   6.016   2.814  11.504  1.4663  1.1425 -0.2845
 9103TIP3   OH248799   1.453   3.967   0.399  0.9038 -0.1233  0.5518
 9103TIP3    H148800   1.501   3.921   0.468  1.0809 -1.2081 -0.2955
 9103TIP3    H248801   1.362   3.967   0.429  1.0588 -0.1035  1.0407
 9104TIP3   OH248802   5.116   1.653   4.288 -0.1310 -0.3436 -0.1737
 9104TIP3    H148803   5.110   1.592   4.362 -2.2406  0.5028  0.3821
 9104TIP3    H248804   5.105   1.597   4.211 -2.1448 -0.6991  0.3361
 9105TIP3   OH248805   1.917   6.800  11.771  0.1478 -0.2769 -0.0315
 9105TIP3    H148806   1.852   6.769  11.709 -2.5920  3.2351  0.9206
 9105TIP3    H248807   1.906   6.743  11.848 -3.2114  1.4508  0.8429
 9106TIP3   OH248808   1.391   4.635  13.027 -1.1550 -0.2473 -0.0138
 9106TIP3    H148809   1.421   4.554  12.987 -1.5708 -0.4892  0.1595
 9106TIP3    H248810   1.303   4.649  12.992 -1.0398  0.1944 -0.1363
 9107TIP3   OH248811   0.559   4.511  13.876 -0.3105  0.2247  0.4476
 9107TIP3    H148812   0.556   4.515  13.971  0.4925  0.8314  0.4590
 9107TIP3    H248813   0.578   4.419  13.856 -2.0983 -0.2249  0.8115
 9108TIP3   OH248814   0.371   2.552  13.765  0.2880 -0.0106  0.3877
 9108TIP3    H148815   0.368   2.465  13.804  0.1061  0.0462  0.4994
 9108TIP3    H248816   0.439   2.546  13.697  0.3515 -0.2080  0.4693
 9109TIP3   OH248817   6.021   4.646  11.378 -0.4938 -0.0254 -0.0376
 9109TIP3    H148818   6.071   4.679  11.303  0.2671  0.4236  0.6581
 9109TIP3    H248819   5.932   4.679  11.363 -1.2458 -2.9954 -2.6211
 9110TIP3   OH248820   4.382   1.894  10.642  0.1761  0.2663  0.1471
 9110TIP3    H148821   4.448   1.943  10.593  0.3507 -0.2975 -0.1878
 9110TIP3    H248822   4.427   1.814  10.671 -1.2016 -1.7433 -2.9476
 9111TIP3   OH248823   6.712   1.489  16.538 -0.2446  0.0974 -0.0418
 9111TIP3    H148824   6.694   1.450  16.624  0.7547 -0.6978 -0.1922
 9111TIP3    H248825   6.700   1.583  16.552  0.2435  0.0065  1.0537
 9112TIP3   OH248826   0.927   4.417   0.568  0.2133  0.0213  1.0846
 9112TIP3    H148827   0.909   4.345   0.507  0.5929  1.4073 -0.7063
 9112TIP3    H248828   1.023   4.421   0.573  0.1944  0.3860  1.1859
 9113TIP3   OH248829   1.799   0.490   5.660  0.4186 -0.1721  0.6344
 9113TIP3    H148830   1.778   0.583   5.674  1.6054 -0.0364  1.5180
 9113TIP3    H248831   1.786   0.449   5.745  0.6423 -0.6754  0.4270
 9114TIP3   OH248832   2.943   1.334  17.066  0.1840 -0.3477  0.0486
 9114TIP3    H148833   2.956   1.384  17.147 -0.6035  0.8310 -0.5339
 9114TIP3    H248834   2.967   1.395  16.996 -0.3280 -0.9441 -0.6525
 9115TIP3   OH248835   4.402   4.003   5.352  0.5933  0.3225  0.1937
 9115TIP3    H148836   4.444   4.086   5.330  2.5235 -0.2143  1.6183
 9115TIP3    H248837   4.414   3.995   5.447 -2.7359  0.0932  0.6295
 9116TIP3   OH248838   3.752   1.418  14.553  0.3213  0.1302  0.1417
 9116TIP3    H148839   3.690   1.489  14.571  0.8713  0.0904  2.3239
 9116TIP3    H248840   3.726   1.384  14.468 -1.9578  0.8329  0.5369
 9117TIP3   OH248841   4.433   5.278   6.419 -0.2914 -0.3211 -0.2908
 9117TIP3    H148842   4.475   5.351   6.465 -0.7449 -0.6382  0.6471
 9117TIP3    H248843   4.492   5.203   6.434 -0.8408 -0.6083  0.4499
 9118TIP3   OH248844   3.810   1.613  17.103  0.0662 -0.6447 -0.4531
 9118TIP3    H148845   3.904   1.619  17.082  0.0844  1.4809  0.1635
 9118TIP3    H248846   3.767   1.614  17.017  0.4824  1.4500 -0.6760
 9119TIP3   OH248847   2.020   5.161   2.503 -0.0384 -0.1224 -0.5472
 9119TIP3    H148848   2.094   5.220   2.519 -0.5558  0.1668  0.8134
 9119TIP3    H248849   1.967   5.166   2.582 -1.8897  0.1907 -1.7813
 9120TIP3   OH248850   1.440   1.910   5.124  0.2029  0.6379 -0.2656
 9120TIP3    H148851   1.524   1.955   5.133  0.4572  0.0587  0.2376
 9120TIP3    H248852   1.379   1.964   5.174  0.4125  0.6782 -0.0522
 9121TIP3   OH248853   1.799   2.484  13.000  0.0701  0.6255 -0.3018
 9121TIP3    H148854   1.794   2.495  13.095  1.4492 -1.8765  0.1033
 9121TIP3    H248855   1.738   2.414  12.981  1.0922 -0.0906 -1.0101
 9122TIP3   OH248856   1.954   3.119  14.610  0.3418 -0.1244 -0.2029
 9122TIP3    H148857   1.959   3.182  14.682 -1.4299 -0.2288  0.0442
 9122TIP3    H248858   2.005   3.159  14.539  0.0351  1.1402  0.2800
 9123TIP3   OH248859   6.116   4.774  11.173  0.0027  0.3465 -0.5213
 9123TIP3    H148860   6.160   4.792  11.090 -0.4524  2.1310 -0.3875
 9123TIP3    H248861   6.125   4.855  11.223 -0.1410 -0.5487  0.9957
 9124TIP3   OH248862   1.864   3.176  12.867  0.5234 -0.1340 -0.6318
 9124TIP3    H148863   1.865   3.240  12.938  1.0598 -0.2250 -0.5522
 9124TIP3    H248864   1.951   3.136  12.871  0.5087 -0.2254 -1.2617
 9125TIP3   OH248865   5.385   2.037  14.977 -0.6656  0.0802 -0.2483
 9125TIP3    H148866   5.392   2.109  14.915 -3.5380  0.2658 -0.4172
 9125TIP3    H248867   5.297   2.001  14.962  0.0013 -2.2332  1.1555
 9126TIP3   OH248868   1.989   0.949   3.379 -0.0106  0.0387 -0.0698
 9126TIP3    H148869   1.926   0.953   3.307 -0.3604  2.4347  0.3210
 9126TIP3    H248870   1.935   0.951   3.458  0.4530 -0.2882  0.2581
 9127TIP3   OH248871   1.564   1.617  14.581  0.1019 -0.2177 -0.3698
 9127TIP3    H148872   1.470   1.614  14.596 -0.2720 -0.3593 -2.5895
 9127TIP3    H248873   1.573   1.648  14.491  2.2575  2.3069  0.6427
 9128TIP3   OH248874   2.754   3.494   1.881  0.2980  0.4232  0.5294
 9128TIP3    H148875   2.716   3.532   1.960 -1.7464 -1.3159  0.4162
 9128TIP3    H248876   2.702   3.530   1.809 -0.5529 -1.2235  0.3023
 9129TIP3   OH248877   5.347   0.131  14.280 -0.5466 -0.0915 -0.0820
 9129TIP3    H148878   5.257   0.110  14.257 -0.5968  0.4167 -0.3526
 9129TIP3    H248879   5.359   0.093  14.367 -0.2700 -2.2318 -1.0300
 9130TIP3   OH248880   0.889   4.682  12.203 -0.2230  0.0274  0.5882
 9130TIP3    H148881   0.968   4.736  12.198  0.5400 -0.9947  1.2800
 9130TIP3    H248882   0.817   4.744  12.199  0.6203  0.9831  0.0024
 9131TIP3   OH248883   1.923   2.970   4.163  0.2553 -0.1031 -0.2145
 9131TIP3    H148884   2.015   2.990   4.179  0.0513  0.1698  0.6371
 9131TIP3    H248885   1.875   3.025   4.226 -0.5136  0.2716 -1.1155
 9132TIP3   OH248886   6.247   6.701   1.112 -0.4893  0.1186 -0.7074
 9132TIP3    H148887   6.296   6.626   1.080 -1.3554 -0.9580  0.4464
 9132TIP3    H248888   6.260   6.769   1.046  1.9142 -0.4031 -0.7925
 9133TIP3   OH248889   4.231   4.796   1.074 -0.1968 -0.4090 -0.0918
 9133TIP3    H148890   4.229   4.834   1.162 -0.3536  1.8925 -1.0535
 9133TIP3    H248891   4.141   4.769   1.057 -0.5564  0.9253 -0.3004
 9134TIP3   OH248892   4.529   2.323   1.155  0.0454  0.6286 -0.2355
 9134TIP3    H148893   4.535   2.411   1.118  0.1733  1.0019  0.6591
 9134TIP3    H248894   4.617   2.287   1.143  0.0898  0.7509 -0.2827
 9135TIP3   OH248895   6.259   0.763  15.456 -0.5116  0.2948  0.2927
 9135TIP3    H148896   6.164   0.774  15.457 -0.7974 -1.7273 -0.8513
 9135TIP3    H248897   6.277   0.702  15.527 -0.1678  0.1185  0.0562
 9136TIP3   OH248898   6.408   4.782   4.288  0.1410 -0.1690  0.4849
 9136TIP3    H148899   6.385   4.846   4.356 -2.6819  0.3612 -0.9044
 9136TIP3    H248900   6.492   4.812   4.255  0.4481  0.9043  2.1497
 9137TIP3   OH248901   5.664   0.822  11.684 -0.2006 -0.4418  0.1425
 9137TIP3    H148902   5.662   0.857  11.595 -2.0131  0.1311  0.3769
 9137TIP3    H248903   5.752   0.787  11.695  0.6816  1.2808 -1.1875
 9138TIP3   OH248904   2.064   1.577  16.475 -0.0415 -0.2256  0.4380
 9138TIP3    H148905   2.037   1.594  16.384  1.2553  1.9370  0.4437
 9138TIP3    H248906   2.095   1.487  16.473 -1.0294 -0.5658 -1.0309
 9139TIP3   OH248907   5.729   6.448   6.605 -0.0438 -0.8272 -0.1209
 9139TIP3    H148908   5.805   6.461   6.663 -1.0533 -1.0596  1.2635
 9139TIP3    H248909   5.710   6.536   6.572 -1.4312 -0.1222  2.4174
 9140TIP3   OH248910   0.149   3.827   3.654  0.6199  0.0728  0.3660
 9140TIP3    H148911   0.185   3.836   3.743 -0.1331 -0.8209  0.7747
 9140TIP3    H248912   0.159   3.734   3.634 -1.0977 -0.1212  0.3331
 9141TIP3   OH248913   2.216   6.571   0.089  0.0452  0.0974 -0.6480
 9141TIP3    H148914   2.234   6.648   0.142 -2.6156  0.5288 -0.3284
 9141TIP3    H248915   2.273   6.503   0.126  1.3169  1.4906  0.0141
 9142TIP3   OH248916   0.205   4.873  10.703  0.3184 -0.4773 -0.4573
 9142TIP3    H148917   0.196   4.913  10.617  1.7988  0.4077 -0.2141
 9142TIP3    H248918   0.228   4.782  10.686  2.4631  0.1568 -0.9948
 9143TIP3   OH248919   0.159   0.128   4.154  0.0069  0.7798  0.2564
 9143TIP3    H148920   0.238   0.145   4.206  2.0232  0.1895 -2.5054
 9143TIP3    H248921   0.118   0.053   4.197  1.0223  0.9760  1.6237
 9144TIP3   OH248922   3.172   6.648   1.280 -0.7986 -0.7158 -0.2320
 9144TIP3    H148923   3.197   6.731   1.239 -3.7505  0.6628  0.6152
 9144TIP3    H248924   3.237   6.585   1.249  2.5198  2.2145  0.4038
 9145TIP3   OH248925   3.213   4.752  13.473  0.5581 -0.5074 -0.5555
 9145TIP3    H148926   3.137   4.780  13.524  0.9237 -0.1484 -0.1982
 9145TIP3    H248927   3.192   4.664  13.444 -0.5926  0.1066 -1.6378
 9146TIP3   OH248928   6.431   5.606   0.759 -0.5467 -0.3220 -0.6080
 9146TIP3    H148929   6.387   5.521   0.750 -0.7073 -0.1535 -1.4213
 9146TIP3    H248930   6.376   5.654   0.821  1.0219 -1.7840  1.9941
 9147TIP3   OH248931   0.150   2.849   1.736 -0.4221  0.4405 -0.1251
 9147TIP3    H148932   0.065   2.843   1.691 -0.6432  0.8292  0.2413
 9147TIP3    H248933   0.130   2.831   1.828 -0.0100 -0.0711 -0.1313
 9148TIP3   OH248934   0.944   5.441  12.557 -0.1049 -0.1717  0.0202
 9148TIP3    H148935   0.867   5.452  12.502  0.3987 -1.6757 -1.0154
 9148TIP3    H248936   0.964   5.348  12.552  1.3145  0.0624  0.9303
 9149TIP3   OH248937   3.953   4.233   1.128  0.4137  0.0629 -0.2753
 9149TIP3    H148938   3.870   4.243   1.081 -0.2043 -0.5062  0.6665
 9149TIP3    H248939   4.020   4.253   1.063 -0.4677  0.7683 -0.9827
 9150TIP3   OH248940   5.257   0.644   5.563  0.1985  0.3031 -0.2562
 9150TIP3    H148941   5.178   0.590   5.564  0.0686  0.5034  0.3421
 9150TIP3    H248942   5.223   0.734   5.561  0.4126  0.3876 -0.0604
 9151TIP3   OH248943   4.570   2.613   1.164  0.2226  0.3091  0.4775
 9151TIP3    H148944   4.615   2.613   1.248 -1.5046 -0.7500  1.4243
 9151TIP3    H248945   4.477   2.624   1.185 -0.1985  0.4385 -1.3080
 9152TIP3   OH248946   4.325   1.301  11.476  0.1799  0.3263  0.4385
 9152TIP3    H148947   4.416   1.277  11.457  0.6423  2.0971  0.2627
 9152TIP3    H248948   4.274   1.263  11.404  0.8339 -0.3344  0.3230
 9153TIP3   OH248949   5.590   2.915   5.107 -0.2223  0.4047  0.0814
 9153TIP3    H148950   5.580   2.957   5.021  0.5702  1.6749  0.5861
 9153TIP3    H248951   5.622   2.827   5.088 -1.0690  0.3203 -0.9737
 9154TIP3   OH248952   5.146   0.449   2.266  0.5443 -0.1229 -0.1184
 9154TIP3    H148953   5.229   0.401   2.268 -0.0827 -1.2157 -0.3327
 9154TIP3    H248954   5.172   0.540   2.280  1.8711 -0.3337 -1.1036
 9155TIP3   OH248955   3.522   1.587   4.874  0.3769  0.3382 -0.1112
 9155TIP3    H148956   3.570   1.658   4.831  0.0153  0.2685 -0.6326
 9155TIP3    H248957   3.482   1.538   4.802 -2.3564  1.7128  0.4024
 9156TIP3   OH248958   4.475   1.475   1.828 -0.1417  0.4049  0.0489
 9156TIP3    H148959   4.494   1.404   1.889 -1.7443  0.6894  0.9272
 9156TIP3    H248960   4.540   1.542   1.847  0.7480 -0.4114 -0.0930
 9157TIP3   OH248961   0.751   1.360   4.211 -0.4457  0.2145 -0.1690
 9157TIP3    H148962   0.845   1.373   4.197 -0.7471  1.4016 -1.1706
 9157TIP3    H248963   0.715   1.348   4.123 -1.0568 -1.6040  0.2870
 9158TIP3   OH248964   1.104   0.818  11.467 -0.4137  0.0399 -0.4517
 9158TIP3    H148965   1.046   0.845  11.539  2.3445  0.0658  1.8389
 9158TIP3    H248966   1.072   0.868  11.391 -1.4634  2.3945  1.4619
 9159TIP3   OH248967   6.698   1.118  15.050  0.4124  0.2131  0.3061
 9159TIP3    H148968   6.634   1.154  14.989 -0.3526  0.0665  1.0169
 9159TIP3    H248969   6.646   1.082  15.121  1.2524 -0.6946  0.4712
 9160TIP3   OH248970   4.661   2.385   2.329 -0.1096 -0.6402 -0.3446
 9160TIP3    H148971   4.648   2.467   2.378  2.0849 -0.0481 -0.7280
 9160TIP3    H248972   4.709   2.329   2.389 -1.0115 -1.4281 -0.3431
 9161TIP3   OH248973   5.218   1.948   3.581  0.1999  0.4809  0.1617
 9161TIP3    H148974   5.150   1.902   3.631  0.0959  0.1834 -0.2484
 9161TIP3    H248975   5.289   1.884   3.573  0.3188  0.6144  0.1412
 9162TIP3   OH248976   3.681   2.631   4.345 -0.2871  0.0891 -0.0104
 9162TIP3    H148977   3.670   2.583   4.263 -1.7736 -1.5585  1.1235
 9162TIP3    H248978   3.593   2.637   4.382  0.6624 -1.3737  2.6389
 9163TIP3   OH248979   4.265   3.200  11.069 -0.3480 -0.6996  0.1442
 9163TIP3    H148980   4.262   3.104  11.079 -1.3915 -0.7431 -0.5310
 9163TIP3    H248981   4.309   3.214  10.985  0.0138 -0.5709  0.3532
 9164TIP3   OH248982   0.167   6.163  13.748 -0.2032  0.1453 -0.2070
 9164TIP3    H148983   0.232   6.231  13.768  0.0256  0.5090 -2.0550
 9164TIP3    H248984   0.211   6.082  13.771  0.0006  0.5478  0.8417
 9165TIP3   OH248985   0.562   1.800  13.775  0.4949 -0.5101  0.5887
 9165TIP3    H148986   0.589   1.739  13.706 -1.2820 -3.4027  2.3350
 9165TIP3    H248987   0.605   1.767  13.854 -1.9769 -0.6567  1.9241
 9166TIP3   OH248988   0.121   3.190  15.467  0.0577 -0.5921  0.2618
 9166TIP3    H148989   0.191   3.207  15.530  1.5406 -0.9120 -1.2502
 9166TIP3    H248990   0.163   3.201  15.381 -2.5117  2.2929 -0.6976
 9167TIP3   OH248991   2.446   5.721  15.921  0.0152  0.1743 -0.4550
 9167TIP3    H148992   2.535   5.754  15.928 -0.4741  1.4350  0.2545
 9167TIP3    H248993   2.416   5.715  16.012 -0.1702 -1.5536 -0.6192
 9168TIP3   OH248994   2.346   6.168   1.643 -0.2316 -0.3335 -0.4326
 9168TIP3    H148995   2.271   6.225   1.627  0.2074  1.4421  3.2689
 9168TIP3    H248996   2.421   6.216   1.608  0.0124  0.9711  1.8267
 9169TIP3   OH248997   2.146   2.328  14.628 -0.6198 -0.1907  0.1191
 9169TIP3    H148998   2.171   2.296  14.542 -1.6099  1.7525 -0.9378
 9169TIP3    H248999   2.059   2.367  14.615 -0.3484  1.0286  1.7445
 9170TIP3   OH249000   5.107   5.364  12.575 -0.0134  0.4705 -0.6872
 9170TIP3    H149001   5.111   5.460  12.579 -1.5787  0.6976 -3.2125
 9170TIP3    H249002   5.036   5.340  12.634  1.2654  0.7125  1.0058
 9171TIP3   OH249003   2.308   6.189   3.495 -0.2390  0.4687  0.6379
 9171TIP3    H149004   2.233   6.248   3.484 -1.9688 -1.4620  1.6329
 9171TIP3    H249005   2.282   6.131   3.566  2.2189 -0.2835  0.9610
 9172TIP3   OH249006   2.142   0.685   0.361  0.2756  0.0167  0.9548
 9172TIP3    H149007   2.195   0.615   0.323  0.5598  1.2874 -1.0649
 9172TIP3    H249008   2.203   0.758   0.374 -0.7913  1.3224 -0.9412
 9173TIP3   OH249009   4.474   6.173   2.398  0.2824 -0.0163 -0.2709
 9173TIP3    H149010   4.443   6.086   2.373 -0.1603  0.6810 -2.3100
 9173TIP3    H249011   4.395   6.220   2.423  0.4595 -0.0716  0.3822
 9174TIP3   OH249012   0.652   5.307  12.693  0.3081  0.9623 -0.2508
 9174TIP3    H149013   0.653   5.316  12.598  1.6150 -0.0034 -0.3297
 9174TIP3    H249014   0.731   5.353  12.722  1.7690 -1.6727  0.0913
 9175TIP3   OH249015   1.980   2.606   3.855  0.4686 -0.4194  0.5276
 9175TIP3    H149016   2.007   2.683   3.905  0.8070 -1.0261  1.2969
 9175TIP3    H249017   1.909   2.637   3.800 -0.6288  0.0509  2.1508
 9176TIP3   OH249018   5.744   4.449  16.702  0.0859 -0.3226  0.1134
 9176TIP3    H149019   5.821   4.394  16.716  1.4517  1.8189  1.2034
 9176TIP3    H249020   5.671   4.396  16.734  1.5339 -0.9320  2.5131
 9177TIP3   OH249021   5.047   4.019   3.694 -0.2839 -0.0804 -0.1686
 9177TIP3    H149022   5.068   4.017   3.787 -0.1461  0.4374 -0.1863
 9177TIP3    H249023   4.952   4.006   3.690 -0.1865 -0.8927 -0.0030
 9178TIP3   OH249024   4.094   5.092   6.068  0.4122  0.1382 -0.6283
 9178TIP3    H149025   4.020   5.145   6.098  0.3052 -0.0916 -0.4760
 9178TIP3    H249026   4.116   5.038   6.144 -0.6179 -1.3012 -1.3270
 9179TIP3   OH249027   5.414   3.693  12.449  0.2154  0.7273 -0.1324
 9179TIP3    H149028   5.491   3.736  12.486  0.9953  0.5913 -1.5861
 9179TIP3    H249029   5.417   3.714  12.356 -0.9463 -0.1417 -0.3727
 9180TIP3   OH249030   1.649   0.246   1.360  0.4250 -0.3672 -0.0284
 9180TIP3    H149031   1.661   0.333   1.323  1.8163 -0.4721  0.1577
 9180TIP3    H249032   1.605   0.261   1.443  2.8108  0.3666  1.1328
 9181TIP3   OH249033   2.930   4.280  14.792 -0.1737  0.2641 -0.4978
 9181TIP3    H149034   2.993   4.264  14.722  0.5345  1.1238 -0.0632
 9181TIP3    H249035   2.977   4.335  14.855 -0.9683 -0.0762  0.4065
 9182TIP3   OH249036   0.583   6.297   1.670  0.0447 -0.0423 -0.2708
 9182TIP3    H149037   0.643   6.294   1.745 -0.0044 -0.9941 -0.2647
 9182TIP3    H249038   0.513   6.357   1.698  0.4116  0.1950  0.1514
 9183TIP3   OH249039   6.038   0.126   5.314  1.2899  0.0718  0.2303
 9183TIP3    H149040   6.035   0.202   5.256 -2.4688 -1.0458 -1.1706
 9183TIP3    H249041   5.995   0.156   5.395 -0.5599 -0.5995 -0.4674
 9184TIP3   OH249042   6.115   3.033  11.398 -0.2824 -0.6069  0.3215
 9184TIP3    H149043   6.033   3.078  11.376 -0.3498 -0.2308  1.2885
 9184TIP3    H249044   6.178   3.066  11.335 -0.0566  1.7618  1.6947
 9185TIP3   OH249045   1.840   4.894   3.728  0.1552 -0.2597 -0.8989
 9185TIP3    H149046   1.805   4.927   3.646 -0.9885  0.7024 -0.0382
 9185TIP3    H249047   1.929   4.930   3.733  0.4567 -0.8229 -1.9866
 9186TIP3   OH249048   6.327   6.784  12.000  0.1515  0.1466 -0.2285
 9186TIP3    H149049   6.323   6.734  12.082 -0.5468  1.2140  0.4054
 9186TIP3    H249050   6.390   6.854  12.018 -0.4072  0.6987 -0.4183
 9187TIP3   OH249051   3.262   5.788  11.758 -0.2318  0.0134  0.4292
 9187TIP3    H149052   3.196   5.719  11.768  1.0209 -1.3644 -0.6673
 9187TIP3    H249053   3.247   5.822  11.669 -2.0535  2.4689  1.6059
 9188TIP3   OH249054   2.022   3.635   6.237 -0.3220 -0.1974  0.3304
 9188TIP3    H149055   2.059   3.723   6.244 -0.1084 -0.3012  0.5399
 9188TIP3    H249056   1.954   3.632   6.304 -0.9527  0.1116 -0.2953
 9189TIP3   OH249057   5.209   2.959  12.258  0.4750 -0.1191 -0.6533
 9189TIP3    H149058   5.115   2.950  12.242  0.3133  1.1945 -0.4671
 9189TIP3    H249059   5.231   2.885  12.315 -0.8241  0.6258  0.8524
 9190TIP3   OH249060   4.323   2.197   1.942 -0.3066  0.4924  0.2833
 9190TIP3    H149061   4.296   2.196   1.850  2.1389  1.0547 -0.4778
 9190TIP3    H249062   4.263   2.259   1.984 -0.6595  1.1678 -1.1839
 9191TIP3   OH249063   4.626   1.250   1.977  0.0737 -0.0045 -0.4479
 9191TIP3    H149064   4.674   1.203   1.909  0.2869 -1.7143  0.8504
 9191TIP3    H249065   4.693   1.281   2.037 -0.2203  0.4095 -0.3223
 9192TIP3   OH249066   1.559   4.169   6.202 -0.5519  0.5181 -0.0474
 9192TIP3    H149067   1.503   4.152   6.277 -0.7470 -0.2388 -0.3540
 9192TIP3    H249068   1.608   4.247   6.225 -2.0909  1.4758  0.0110
 9193TIP3   OH249069   2.073   6.075   5.303  0.1531 -0.4012  0.5474
 9193TIP3    H149070   2.075   6.003   5.240  1.0153 -0.0766  0.1969
 9193TIP3    H249071   1.981   6.081   5.329  0.2020 -2.1980  1.2431
 9194TIP3   OH249072   6.751   5.477  11.723  0.0521 -0.2593 -0.0200
 9194TIP3    H149073   6.712   5.392  11.705  1.0594 -0.4654 -1.3282
 9194TIP3    H249074   6.730   5.530  11.646  0.9856  0.1052 -0.0353
 9195TIP3   OH249075   6.751   4.980  15.722 -0.3774  0.2742 -0.3486
 9195TIP3    H149076   6.655   4.983  15.720 -0.3547  1.7718  0.2767
 9195TIP3    H249077   6.777   5.065  15.758  1.2341  0.5195 -2.0127
 9196TIP3   OH249078   3.260   0.706  14.260  0.1803  0.5958 -0.6146
 9196TIP3    H149079   3.340   0.757  14.251  1.6253 -1.5380 -0.2073
 9196TIP3    H249080   3.233   0.720  14.351  0.4569  0.7766 -0.5607
 9197TIP3   OH249081   6.765   0.650   6.054  0.0894  0.1744 -0.2797
 9197TIP3    H149082   6.760   0.671   6.147  0.2511  0.2246 -0.2827
 9197TIP3    H249083   6.837   0.703   6.021  0.3144 -0.1712 -0.3438
 9198TIP3   OH249084   3.248   0.571  12.037 -0.2522  0.5722  0.1799
 9198TIP3    H149085   3.172   0.514  12.034 -0.3712  0.6790  1.0481
 9198TIP3    H249086   3.322   0.514  12.019 -0.5370  0.4581 -0.6060
 9199TIP3   OH249087   1.028   1.354  14.608  0.2374  0.0676  0.1203
 9199TIP3    H149088   1.097   1.288  14.618 -1.7022 -1.7431  2.0460
 9199TIP3    H249089   1.057   1.427  14.662 -0.3002 -1.5211  2.6422
 9200TIP3   OH249090   3.240   0.119   6.415  0.1648 -0.0158  0.2431
 9200TIP3    H149091   3.174   0.162   6.469  1.6870  1.0024  1.3264
 9200TIP3    H249092   3.316   0.177   6.419  1.0314 -1.0190 -1.2228
 9201TIP3   OH249093   2.074   3.542   1.667 -0.0611 -0.1028 -0.3438
 9201TIP3    H149094   2.164   3.571   1.680 -0.0470 -0.3044  0.0056
 9201TIP3    H249095   2.080   3.446   1.661 -0.2389 -0.1086 -0.4334
 9202TIP3   OH249096   6.688   0.294   4.398 -0.1204 -0.5068  0.2768
 9202TIP3    H149097   6.752   0.365   4.393  0.5375 -1.1514 -0.7630
 9202TIP3    H249098   6.704   0.254   4.484 -1.3841  1.3997  1.4174
 9203TIP3   OH249099   3.875   6.581   3.100  0.2753 -0.2215 -0.1485
 9203TIP3    H149100   3.968   6.599   3.114  0.2836 -1.0204  0.8624
 9203TIP3    H249101   3.873   6.493   3.061  0.0484  0.5757 -1.9780
 9204TIP3   OH249102   6.778   4.870  13.639  0.1876 -0.0077 -0.3873
 9204TIP3    H149103   6.774   4.904  13.550 -0.5747 -0.2967 -0.4681
 9204TIP3    H249104   6.734   4.785  13.634 -1.7026  0.8795  0.6705
 9205TIP3   OH249105   3.157   4.461  15.182 -0.3104  0.2269 -0.1673
 9205TIP3    H149106   3.182   4.389  15.239  1.5292  1.5579  0.7460
 9205TIP3    H249107   3.105   4.520  15.237 -1.4553 -0.1531 -0.8009
 9206TIP3   OH249108   2.163   5.454  16.458 -0.3237 -0.5414  0.3048
 9206TIP3    H149109   2.088   5.415  16.414 -1.6842  1.9828  0.2726
 9206TIP3    H249110   2.228   5.465  16.389 -0.3077 -1.7604  0.1135
 9207TIP3   OH249111   6.549   4.489  12.705 -0.0534  0.6202 -0.0175
 9207TIP3    H149112   6.454   4.501  12.693 -0.2143 -0.4702  0.1630
 9207TIP3    H249113   6.557   4.419  12.769  0.8860  0.3145 -0.4593
 9208TIP3   OH249114   1.522   0.806  12.706  0.2111  0.3744  0.1532
 9208TIP3    H149115   1.450   0.815  12.768 -1.5264  0.0932 -1.7359
 9208TIP3    H249116   1.479   0.779  12.624  2.5887 -0.8352 -0.7448
 9209TIP3   OH249117   0.840   5.329   3.368 -0.3544  0.1578  0.0388
 9209TIP3    H149118   0.755   5.336   3.326 -0.0201  0.9987 -0.5359
 9209TIP3    H249119   0.857   5.235   3.376 -0.5189 -0.0141 -1.5280
 9210TIP3   OH249120   1.284   1.268  12.620  0.1119  0.1069  0.3042
 9210TIP3    H149121   1.264   1.258  12.527 -1.6241 -0.3591  0.7081
 9210TIP3    H249122   1.367   1.223  12.631 -0.2040 -0.7798 -0.8274
 9211TIP3   OH249123   5.460   2.322   4.782  0.2787 -0.6253  0.0658
 9211TIP3    H149124   5.369   2.297   4.768 -0.4429  1.8178  0.1619
 9211TIP3    H249125   5.507   2.239   4.791 -2.1773 -1.9050  1.5248
 9212TIP3   OH249126   1.393   0.313  12.754  0.6181 -0.2970 -0.0561
 9212TIP3    H149127   1.461   0.287  12.691 -1.0463  1.5851 -2.7248
 9212TIP3    H249128   1.373   0.403  12.731 -2.5469 -0.7137  0.9056
 9213TIP3   OH249129   1.020   1.963   2.197 -0.0852 -0.3540 -0.0857
 9213TIP3    H149130   1.072   2.035   2.163  1.3296 -0.7169  1.2683
 9213TIP3    H249131   0.934   2.002   2.216  0.3937  0.7686 -0.1913
 9214TIP3   OH249132   6.294   4.591  11.746 -0.3289  0.0655  0.1528
 9214TIP3    H149133   6.307   4.497  11.737 -0.1698  0.0463  0.5351
 9214TIP3    H249134   6.366   4.619  11.804  0.4591  0.6515 -1.0921
 9215TIP3   OH249135   6.444   1.619   5.153 -0.7465 -0.2862 -0.0274
 9215TIP3    H149136   6.351   1.603   5.167 -1.2643  0.7140 -2.0754
 9215TIP3    H249137   6.463   1.577   5.069 -0.5652  3.7185 -2.1044
 9216TIP3   OH249138   1.029   6.377   5.024 -0.0619  0.1275 -0.8922
 9216TIP3    H149139   1.003   6.352   5.113 -0.6254  0.0832 -1.0693
 9216TIP3    H249140   0.963   6.338   4.967 -0.3450  1.1112 -1.2511
 9217TIP3   OH249141   1.491   6.285  16.439  0.3330 -0.4547 -0.0095
 9217TIP3    H149142   1.459   6.248  16.521  1.3250 -1.3916 -0.0338
 9217TIP3    H249143   1.414   6.326  16.400 -0.0122  0.5585  1.6725
 9218TIP3   OH249144   2.724   3.546  10.988  0.5027  0.6224  0.2783
 9218TIP3    H149145   2.763   3.512  10.908 -1.6749  1.5113 -1.2162
 9218TIP3    H249146   2.734   3.641  10.981  0.4090  0.6960  1.1095
 9219TIP3   OH249147   2.507   4.299   5.383  0.0581 -0.3547 -0.3501
 9219TIP3    H149148   2.526   4.387   5.416  0.2167 -0.9857  1.2697
 9219TIP3    H249149   2.414   4.301   5.363 -0.3079 -0.3267  1.3101
 9220TIP3   OH249150   4.315   2.459  11.699 -0.8634 -0.2032  0.1348
 9220TIP3    H149151   4.326   2.511  11.620  0.6931 -0.2509  0.2924
 9220TIP3    H249152   4.404   2.450  11.735 -1.6029  0.3105  2.1941
 9221TIP3   OH249153   3.766   4.712  16.762  0.2634 -0.0116 -0.1662
 9221TIP3    H149154   3.817   4.793  16.772  1.5450 -0.8119 -0.0914
 9221TIP3    H249155   3.826   4.642  16.789 -1.3786 -0.8554  1.4578
 9222TIP3   OH249156   5.855   6.786   4.584 -0.1745 -0.2338 -0.4160
 9222TIP3    H149157   5.805   6.704   4.580 -2.7634  1.2469  0.1368
 9222TIP3    H249158   5.832   6.832   4.504 -0.5560  0.9543  0.3687
 9223TIP3   OH249159   2.076   3.889  14.990  0.1633 -0.8523 -0.0336
 9223TIP3    H149160   2.104   3.815  15.043  0.2250 -0.6596  0.2039
 9223TIP3    H249161   2.037   3.850  14.912 -0.7647 -1.1564  0.5768
 9224TIP3   OH249162   0.929   0.657   1.734  0.4260  0.2420 -0.8801
 9224TIP3    H149163   0.922   0.567   1.768  0.1726 -0.5935 -3.0753
 9224TIP3    H249164   0.982   0.702   1.799 -0.8957 -1.0367  1.1414
 9225TIP3   OH249165   5.904   1.827   4.405  0.1384  0.0148  0.0397
 9225TIP3    H149166   5.925   1.747   4.356 -1.3961  0.4021 -1.3235
 9225TIP3    H249167   5.833   1.800   4.464 -0.8399  0.5132 -0.8964
 9226TIP3   OH249168   6.584   3.991   0.482 -0.1026 -0.3445  0.1007
 9226TIP3    H149169   6.536   3.989   0.565 -0.7058 -1.6240 -0.2587
 9226TIP3    H249170   6.673   4.016   0.506 -0.1504 -1.1920  1.2049
 9227TIP3   OH249171   5.108   4.035  11.877 -0.1359 -0.5351 -0.4324
 9227TIP3    H149172   5.143   4.011  11.792 -1.2262 -0.1385 -1.0104
 9227TIP3    H249173   5.070   4.122  11.864  0.7575  0.0628  0.7651
 9228TIP3   OH249174   0.602   3.804  15.097  0.2400  0.1039 -0.0442
 9228TIP3    H149175   0.667   3.736  15.116  2.1837  2.1554  0.8527
 9228TIP3    H249176   0.544   3.764  15.033  1.5426 -2.2904  0.2082
 9229TIP3   OH249177   1.284   3.784  16.426 -0.2402  1.1059 -0.2288
 9229TIP3    H149178   1.351   3.725  16.392 -0.6320  1.4699 -1.6659
 9229TIP3    H249179   1.314   3.871  16.399 -1.5076  1.2328 -1.3009
 9230TIP3   OH249180   0.788   2.371   4.397 -0.3503  0.3786 -0.6058
 9230TIP3    H149181   0.810   2.349   4.306  1.8312 -1.5304  0.3407
 9230TIP3    H249182   0.855   2.435   4.423  0.1255 -0.4406  0.2141
 9231TIP3   OH249183   4.688   5.216  16.615  0.1613 -0.6764  0.2614
 9231TIP3    H149184   4.733   5.138  16.582  1.5403  0.9258 -1.8280
 9231TIP3    H249185   4.615   5.229  16.554 -0.7324 -0.9704  1.2645
 9232TIP3   OH249186   0.282   3.816  11.507  0.3726  0.2012  0.1762
 9232TIP3    H149187   0.264   3.909  11.505 -0.5870  0.0057 -0.9774
 9232TIP3    H249188   0.376   3.809  11.489 -0.1731  0.8138 -3.1732
 9233TIP3   OH249189   1.740   1.915   6.892 -0.3555 -0.0196  0.4062
 9233TIP3    H149190   1.727   2.002   6.931 -0.6980  0.4754 -0.8021
 9233TIP3    H249191   1.653   1.889   6.863 -0.1498 -0.5316  0.2553
 9234TIP3   OH249192   5.750   5.950   1.396  0.4632  0.1784 -0.4509
 9234TIP3    H149193   5.749   6.037   1.436  2.0879  0.1504 -0.2964
 9234TIP3    H249194   5.838   5.943   1.358  1.1162 -2.1889  1.3641
 9235TIP3   OH249195   1.707   6.275  11.248  0.3859  0.1908  0.4350
 9235TIP3    H149196   1.724   6.203  11.188  2.9536 -0.8415  2.2961
 9235TIP3    H249197   1.745   6.352  11.204  2.4128 -0.5850  0.7563
 9236TIP3   OH249198   5.133   2.915  13.539  0.0758 -0.0116 -0.2594
 9236TIP3    H149199   5.047   2.930  13.501  0.0161 -0.4477 -0.2966
 9236TIP3    H249200   5.190   2.899  13.463 -0.0029 -0.6807 -0.1734
 9237TIP3   OH249201   4.211   5.786   3.924  0.8259  0.3883  0.2926
 9237TIP3    H149202   4.193   5.869   3.967 -2.5086 -0.8450  1.4539
 9237TIP3    H249203   4.178   5.720   3.985 -1.7604 -1.5400 -3.0204
 9238TIP3   OH249204   2.763   3.037  14.926  0.9243 -0.1015  0.6718
 9238TIP3    H149205   2.673   3.031  14.958  0.9763 -3.1508  0.4735
 9238TIP3    H249206   2.816   3.042  15.005  0.6290  1.0977  0.8050
 9239TIP3   OH249207   3.851   3.937  14.892 -0.4807 -0.0232 -0.0755
 9239TIP3    H149208   3.905   3.915  14.816 -1.4611  1.1888 -1.1506
 9239TIP3    H249209   3.794   3.861  14.904 -0.8333  0.0881 -1.0203
 9240TIP3   OH249210   1.035   6.234   3.203 -0.1230 -0.0562 -0.2319
 9240TIP3    H149211   1.082   6.156   3.232  1.0776  0.5779 -0.4583
 9240TIP3    H249212   0.945   6.221   3.234 -0.2463 -2.1206 -1.3662
 9241TIP3   OH249213   1.458   5.094  13.798  0.8305 -0.1655  0.5541
 9241TIP3    H149214   1.422   5.156  13.861  1.1894  0.1848  0.4175
 9241TIP3    H249215   1.393   5.025  13.792 -0.0684  0.7263 -0.0828
 9242TIP3   OH249216   0.461   3.412   2.614  0.0073  0.0004  0.4878
 9242TIP3    H149217   0.529   3.469   2.578  0.7634 -1.4070 -0.3577
 9242TIP3    H249218   0.385   3.469   2.624  0.8401  1.2280 -0.0358
 9243TIP3   OH249219   6.259   1.177  12.018 -1.0965 -0.6646 -0.0202
 9243TIP3    H149220   6.188   1.128  11.976 -4.4146  3.0033  1.1369
 9243TIP3    H249221   6.262   1.143  12.107 -2.3726  0.1359  0.3373
 9244TIP3   OH249222   0.717   2.321  14.766  0.5298 -0.1698  0.4839
 9244TIP3    H149223   0.717   2.282  14.853 -0.6633  2.8521  1.9315
 9244TIP3    H249224   0.808   2.348  14.752  0.6844 -0.4832  0.8770
 9245TIP3   OH249225   5.924   0.583   3.839 -0.3272 -0.3951 -0.0945
 9245TIP3    H149226   5.900   0.668   3.877 -1.9918 -1.7747  2.0804
 9245TIP3    H249227   5.849   0.526   3.859  1.6113 -2.8958  0.2950
 9246TIP3   OH249228   0.536   6.757  16.461  0.0278  0.0399 -0.5309
 9246TIP3    H149229   0.554   6.761  16.555  0.9283 -2.7610 -0.5443
 9246TIP3    H249230   0.574   6.838  16.426 -0.8117  1.3890  1.5573
 9247TIP3   OH249231   6.236   6.533  14.272 -0.6705  0.1285 -0.3561
 9247TIP3    H149232   6.176   6.588  14.220 -1.2094 -1.6843 -1.7101
 9247TIP3    H249233   6.189   6.519  14.354  0.8162  4.2511  1.3555
 9248TIP3   OH249234   4.925   0.231  15.231  0.2134 -0.3312 -0.1427
 9248TIP3    H149235   4.907   0.321  15.257  0.9296 -0.0225 -0.6830
 9248TIP3    H249236   5.020   0.228  15.221  0.2729 -1.3556  0.6326
 9249TIP3   OH249237   0.128   1.530  14.777 -0.0754  0.0833 -0.8518
 9249TIP3    H149238   0.159   1.451  14.821 -0.2317 -0.3785 -1.5469
 9249TIP3    H249239   0.205   1.584  14.766  0.0591 -0.0349 -0.4892
 9250TIP3   OH249240   0.801   6.236   4.930  0.0624  0.3221 -0.2518
 9250TIP3    H149241   0.791   6.231   5.025 -1.0112  1.5283 -0.2783
 9250TIP3    H249242   0.723   6.192   4.896  0.6873 -0.5364 -0.5828
 9251TIP3   OH249243   0.610   5.937   5.349  0.5249 -0.8183  0.0992
 9251TIP3    H149244   0.607   5.851   5.391  0.9630 -0.9356 -0.0944
 9251TIP3    H249245   0.614   5.917   5.255 -4.1269 -0.4993 -0.2438
 9252TIP3   OH249246   2.636   0.866   3.924  0.1205 -0.1742 -0.5282
 9252TIP3    H149247   2.553   0.833   3.889 -0.2973 -1.3557  1.5106
 9252TIP3    H249248   2.654   0.944   3.872 -1.6153 -0.6191 -1.8529
 9253TIP3   OH249249   0.463   1.269   5.482  0.5851 -0.0311 -0.3511
 9253TIP3    H149250   0.479   1.354   5.521 -1.4408  0.6143 -0.8603
 9253TIP3    H249251   0.513   1.269   5.400 -0.1334  1.0277 -0.7955
 9254TIP3   OH249252   0.179   2.512  16.907 -0.3035 -0.8221 -0.0286
 9254TIP3    H149253   0.109   2.489  16.846 -0.9286  0.4820  0.1959
 9254TIP3    H249254   0.252   2.537  16.850 -0.6340 -0.3664 -0.2608
 9255TIP3   OH249255   2.019   1.011  11.662  0.2934 -0.1385  0.1489
 9255TIP3    H149256   2.020   0.915  11.657  1.0284 -0.0981 -0.5596
 9255TIP3    H249257   1.926   1.033  11.673  0.1519 -0.9455  0.6481
 9256TIP3   OH249258   2.715   4.469   1.564  0.1597 -0.1836 -0.2533
 9256TIP3    H149259   2.808   4.489   1.549 -0.1557  0.1192 -1.9246
 9256TIP3    H249260   2.696   4.398   1.504 -0.6034 -0.5212  0.3786
 9257TIP3   OH249261   2.925   6.520   1.611  0.0013  0.2648 -0.1050
 9257TIP3    H149262   2.964   6.596   1.566  0.3442  0.3389  0.3172
 9257TIP3    H249263   2.866   6.558   1.676 -1.1842  0.1456 -1.0975
 9258TIP3   OH249264   3.464   2.389   6.210  0.4179 -0.1934  0.2286
 9258TIP3    H149265   3.508   2.438   6.280 -0.0553 -0.7509  0.9289
 9258TIP3    H249266   3.397   2.338   6.256 -1.5376  1.2746 -0.9196
 9259TIP3   OH249267   2.447   4.090  14.969  0.1333  0.1563 -0.5224
 9259TIP3    H149268   2.355   4.098  14.946 -0.1915  0.0464  0.7106
 9259TIP3    H249269   2.494   4.136  14.899 -0.8524  0.2258 -1.1409
 9260TIP3   OH249270   4.105   0.249   6.758  0.2438 -0.4202  0.4171
 9260TIP3    H149271   4.021   0.269   6.799 -0.2313 -1.0761 -0.2257
 9260TIP3    H249272   4.082   0.211   6.673  1.1963 -0.1963  0.0497
 9261TIP3   OH249273   4.442   5.748   2.454 -0.2980 -0.3090 -0.1069
 9261TIP3    H149274   4.444   5.662   2.411  3.1066 -0.0297 -0.6114
 9261TIP3    H249275   4.404   5.806   2.388 -2.2219 -1.2928  0.0817
 9262TIP3   OH249276   4.810   4.461   2.703 -0.0534  0.2948  0.9771
 9262TIP3    H149277   4.714   4.467   2.693  0.0266  0.8247  0.4938
 9262TIP3    H249278   4.844   4.529   2.645  0.7125 -1.3573 -0.5576
 9263TIP3   OH249279   2.153   5.017  13.592  0.1412 -0.6154 -0.1705
 9263TIP3    H149280   2.153   5.011  13.496  0.7737 -1.2250 -0.1366
 9263TIP3    H249281   2.190   4.933  13.621 -1.3476 -0.9920  0.6460
 9264TIP3   OH249282   6.369   0.628  15.664  0.1590 -0.1711 -0.3417
 9264TIP3    H149283   6.385   0.542  15.703  0.5045 -1.3313 -2.9636
 9264TIP3    H249284   6.438   0.684  15.702 -0.1647 -0.9694  1.4938
 9265TIP3   OH249285   6.225   3.372  11.887  0.8902 -0.4525 -0.5570
 9265TIP3    H149286   6.249   3.398  11.798 -0.3035 -0.3875 -0.8673
 9265TIP3    H249287   6.291   3.307  11.911  0.9204 -0.8645 -1.6931
 9266TIP3   OH249288   5.731   4.050   3.387 -0.2716  0.7577  0.1174
 9266TIP3    H149289   5.719   3.956   3.370 -3.0331  1.0198  0.4237
 9266TIP3    H249290   5.789   4.054   3.463 -0.4180 -0.7095  0.3120
 9267TIP3   OH249291   3.385   0.311   0.606 -0.3190  0.2195  0.3234
 9267TIP3    H149292   3.412   0.324   0.515  2.0691 -0.8455  0.8492
 9267TIP3    H249293   3.318   0.243   0.602  0.8988 -0.9553 -0.5010
 9268TIP3   OH249294   1.395   0.481  11.856 -0.0629  0.1786 -0.5970
 9268TIP3    H149295   1.352   0.562  11.881  2.9239  1.4428  0.6991
 9268TIP3    H249296   1.478   0.509  11.818  1.2188 -2.2548  0.2917
 9269TIP3   OH249297   2.971   3.950   4.184  0.5640 -0.1024  0.5902
 9269TIP3    H149298   2.919   4.027   4.208 -1.0297 -0.9134 -0.1805
 9269TIP3    H249299   2.933   3.878   4.235  2.2554 -0.3460  1.5636
 9270TIP3   OH249300   4.166   6.406   1.652 -0.2826  0.3299  0.4968
 9270TIP3    H149301   4.241   6.408   1.593  0.1837 -0.8325  1.0343
 9270TIP3    H249302   4.163   6.494   1.690 -0.5678  1.0648 -1.2165
 9271TIP3   OH249303   4.998   1.799  17.141 -0.0247  0.1562 -0.0799
 9271TIP3    H149304   5.024   1.849  17.218 -0.1596  0.2100 -0.0682
 9271TIP3    H249305   4.903   1.791  17.148 -0.0841  0.4750 -0.4247
 9272TIP3   OH249306   6.248   5.119  14.532 -0.1382 -0.1720 -0.2437
 9272TIP3    H149307   6.310   5.047  14.540 -0.9544 -0.7045  1.9119
 9272TIP3    H249308   6.194   5.097  14.457  0.2383 -1.3403 -0.1786
 9273TIP3   OH249309   4.947   1.298   1.546  0.1114  0.1060 -0.0319
 9273TIP3    H149310   4.873   1.312   1.606  0.0782 -1.9364  0.4351
 9273TIP3    H249311   4.907   1.290   1.460 -0.2546 -1.2483  0.2537
 9274TIP3   OH249312   2.607   0.944   4.507  0.3105  0.1840 -0.1698
 9274TIP3    H149313   2.599   1.034   4.476 -0.3364 -0.0287 -0.6340
 9274TIP3    H249314   2.524   0.926   4.551  1.1605  0.4356  1.5830
 9275TIP3   OH249315   1.282   4.720  11.619 -0.6347  0.3355 -0.8701
 9275TIP3    H149316   1.270   4.752  11.530  1.8523  1.6685 -0.7782
 9275TIP3    H249317   1.311   4.796  11.669 -2.2452 -0.3276  1.1653
 9276TIP3   OH249318   2.705   4.703  16.712 -0.4093  0.4404 -0.0016
 9276TIP3    H149319   2.758   4.749  16.647 -1.1713  1.1794 -0.1091
 9276TIP3    H249320   2.765   4.638  16.751  0.2983  0.6157 -0.7870
 9277TIP3   OH249321   0.201   0.809   0.972  0.5737  0.2160 -0.2576
 9277TIP3    H149322   0.141   0.760   0.917  0.4590 -0.7219  0.6763
 9277TIP3    H249323   0.276   0.828   0.915 -0.8174  1.8622 -1.5768
 9278TIP3   OH249324   4.444   4.607  14.792  0.0301 -0.6559 -0.0829
 9278TIP3    H149325   4.423   4.685  14.843 -0.2773 -0.3402 -0.6917
 9278TIP3    H249326   4.537   4.613  14.774  0.1051 -0.6830  0.2922
 9279TIP3   OH249327   3.758   2.486   0.858 -0.0172 -0.2963  0.5177
 9279TIP3    H149328   3.704   2.536   0.920 -0.1880  0.5813 -0.3379
 9279TIP3    H249329   3.759   2.397   0.894 -1.7488 -0.2432  0.7147
 9280TIP3   OH249330   5.864   1.364  14.753 -0.3095  0.2555 -0.3857
 9280TIP3    H149331   5.931   1.419  14.793 -1.9186  2.1979 -0.3056
 9280TIP3    H249332   5.833   1.414  14.677 -1.3193 -0.8356 -0.7173
 9281TIP3   OH249333   5.266   2.736   3.945  0.2400 -0.1478 -0.1077
 9281TIP3    H149334   5.241   2.828   3.954 -2.4896 -0.6499 -2.1530
 9281TIP3    H249335   5.245   2.697   4.030  0.1249  0.8215  0.3128
 9282TIP3   OH249336   5.809   4.166  14.982  0.4493  0.3473 -0.1144
 9282TIP3    H149337   5.759   4.123  15.052 -3.5548  0.0679 -2.9653
 9282TIP3    H249338   5.881   4.106  14.964 -0.9766 -1.6993  0.8317
 9283TIP3   OH249339   4.425   1.640  14.155 -1.0130  0.2112 -0.3543
 9283TIP3    H149340   4.334   1.623  14.128 -1.1575 -0.3863  0.4824
 9283TIP3    H249341   4.463   1.689  14.082 -2.1950  1.0324 -0.4352
 9284TIP3   OH249342   5.547   4.258  13.714 -0.1074  0.5125  0.0603
 9284TIP3    H149343   5.459   4.283  13.687 -0.1835  2.1289  1.7183
 9284TIP3    H249344   5.589   4.229  13.633 -1.1973  2.6786 -1.3474
 9285TIP3   OH249345   2.970   5.918   1.660  0.0962 -0.1843  0.4903
 9285TIP3    H149346   2.925   5.838   1.633 -0.8288  0.9409 -1.4507
 9285TIP3    H249347   3.061   5.892   1.674 -0.0324 -1.4302 -0.8915
 9286TIP3   OH249348   4.087   1.042   3.594 -0.5157 -0.5764  0.3311
 9286TIP3    H149349   4.075   1.006   3.506  1.3971  0.4249 -0.3923
 9286TIP3    H249350   4.043   1.126   3.591 -2.0075 -1.3283  0.9184
 9287TIP3   OH249351   4.513   3.923  16.289 -0.0035  0.5707 -0.4635
 9287TIP3    H149352   4.588   3.884  16.243 -1.2678  0.0323 -2.0919
 9287TIP3    H249353   4.481   3.991  16.229 -0.5976  1.0409  0.3846
 9288TIP3   OH249354   2.319   1.303  10.886  0.1759 -0.0860  0.0928
 9288TIP3    H149355   2.402   1.268  10.917 -0.4690 -1.8373 -0.0428
 9288TIP3    H249356   2.316   1.392  10.919  1.2388 -0.6269  1.7312
 9289TIP3   OH249357   5.614   3.270  16.105 -0.0803  0.5051 -0.9101
 9289TIP3    H149358   5.691   3.320  16.078  0.6575 -0.8751 -1.4586
 9289TIP3    H249359   5.548   3.290  16.039  1.0898 -1.3300 -2.7184
 9290TIP3   OH249360   1.694   1.572  10.510  0.2088  0.4398  0.3253
 9290TIP3    H149361   1.735   1.644  10.557 -0.9941  0.8343  0.7970
 9290TIP3    H249362   1.674   1.507  10.577 -0.6142  0.5781  0.2202
 9291TIP3   OH249363   0.364   3.884  12.524 -0.1434  0.6858  0.9620
 9291TIP3    H149364   0.273   3.896  12.494  0.0516 -0.4799 -0.1028
 9291TIP3    H249365   0.356   3.826  12.599 -0.0032 -2.3307 -1.2594
 9292TIP3   OH249366   2.399   5.816  12.185  0.1583 -0.2993 -0.1970
 9292TIP3    H149367   2.357   5.731  12.198  0.0427 -0.4833 -1.6833
 9292TIP3    H249368   2.339   5.864  12.126 -0.1395  1.0877  1.1879
 9293TIP3   OH249369   3.244   4.455   5.451 -0.2778  0.0776 -0.0017
 9293TIP3    H149370   3.154   4.421   5.458 -0.0948 -0.7097 -1.3354
 9293TIP3    H249371   3.237   4.547   5.477 -1.1553 -0.4280  1.6441
 9294TIP3   OH249372   1.964   5.605  11.051  0.0624  0.2778 -0.5138
 9294TIP3    H149373   2.046   5.629  11.096  0.8089 -0.1705 -1.6251
 9294TIP3    H249374   1.916   5.688  11.046  0.5483  0.5972 -0.0669
 9295TIP3   OH249375   1.720   0.972  11.743  0.0854  0.1059 -0.3286
 9295TIP3    H149376   1.706   1.060  11.707 -1.1089  0.6556  1.3950
 9295TIP3    H249377   1.770   0.987  11.823 -0.5088 -0.7298  0.2094
 9296TIP3   OH249378   2.290   6.565   1.686 -0.0567 -0.2028 -0.2754
 9296TIP3    H149379   2.246   6.556   1.601 -0.3841  2.4703 -0.4446
 9296TIP3    H249380   2.381   6.585   1.664 -0.0852  0.2390 -0.0008
 9297TIP3   OH249381   1.777   6.043  11.424 -0.2885  0.7074  0.1093
 9297TIP3    H149382   1.785   6.040  11.328 -1.2139 -1.0593  0.0534
 9297TIP3    H249383   1.728   6.123  11.442 -1.4105  0.2882 -1.0075
 9298TIP3   OH249384   1.702   4.203   4.733 -0.5023  0.3189 -0.0452
 9298TIP3    H149385   1.708   4.294   4.763 -1.9528 -0.0072  1.3350
 9298TIP3    H249386   1.688   4.209   4.639 -0.1634  1.5144 -0.0277
 9299TIP3   OH249387   6.468   2.702   3.339  0.1881 -0.1154 -0.1447
 9299TIP3    H149388   6.528   2.668   3.273  1.5268 -0.7480  1.3707
 9299TIP3    H249389   6.503   2.788   3.361 -0.4745  0.2534 -0.5363
 9300TIP3   OH249390   5.064   6.180  15.075 -0.5643  0.2503  0.4659
 9300TIP3    H149391   5.105   6.100  15.107  0.0403 -0.4227 -1.8957
 9300TIP3    H249392   5.131   6.248  15.088  0.3365 -0.3476 -0.9351
 9301TIP3   OH249393   1.790   4.159  14.399  0.3960  0.6612 -0.0308
 9301TIP3    H149394   1.828   4.221  14.336  0.8728  0.3313 -0.0691
 9301TIP3    H249395   1.857   4.092  14.410 -0.8018 -0.7759 -1.3281
 9302TIP3   OH249396   4.880   4.453   5.590 -0.1776  0.2605  0.2042
 9302TIP3    H149397   4.963   4.446   5.638  0.4039  1.3748 -0.6209
 9302TIP3    H249398   4.828   4.514   5.641 -0.1276  0.3013  0.2062
 9303TIP3   OH249399   2.677   1.906  15.174 -0.0488 -0.5237  0.0616
 9303TIP3    H149400   2.732   1.890  15.250  0.0731  1.0978  0.3268
 9303TIP3    H249401   2.733   1.886  15.099  0.3325 -0.5685  0.3589
 9304TIP3   OH249402   6.417   3.305  12.239 -0.1020 -0.6264 -0.2180
 9304TIP3    H149403   6.499   3.340  12.273 -1.4251  0.2315  2.1657
 9304TIP3    H249404   6.370   3.381  12.204 -1.0256 -0.6911  0.8528
 9305TIP3   OH249405   5.867   3.768  13.054 -1.0017 -0.5004 -0.2076
 9305TIP3    H149406   5.814   3.689  13.071  2.0690 -2.6747 -0.3590
 9305TIP3    H249407   5.948   3.753  13.102 -0.2352  2.4692 -0.5263
 9306TIP3   OH249408   4.553   3.028   1.853  0.4008  0.0373 -0.1541
 9306TIP3    H149409   4.626   2.987   1.901 -0.8326 -0.2386  1.5189
 9306TIP3    H249410   4.575   3.121   1.851 -0.7913  0.4790  3.3313
 9307TIP3   OH249411   5.833   5.453  11.983  0.0130 -0.0029  0.1145
 9307TIP3    H149412   5.837   5.358  11.971  1.6577 -0.7857  5.4408
 9307TIP3    H249413   5.740   5.474  11.978 -0.5788 -2.2864  0.9134
 9308TIP3   OH249414   5.561   1.220  14.094 -0.4748 -0.0181  0.3800
 9308TIP3    H149415   5.654   1.219  14.072 -0.6675 -1.1792 -0.4531
 9308TIP3    H249416   5.558   1.222  14.190  0.4274 -2.0662  0.4721
 9309TIP3   OH249417   5.757   6.276  15.162  0.1796  0.0814  0.3376
 9309TIP3    H149418   5.812   6.237  15.230  1.7402 -1.3165 -1.6583
 9309TIP3    H249419   5.788   6.366  15.156 -0.5895  0.4759  2.0952
 9310TIP3   OH249420   5.744   5.887   3.865  0.0538 -0.2299  0.3514
 9310TIP3    H149421   5.684   5.826   3.908  0.1938 -1.6869 -1.4637
 9310TIP3    H249422   5.822   5.887   3.920 -0.1939 -1.1727  0.7048
 9311TIP3   OH249423   1.128   2.126  14.183 -0.0675 -0.2573 -0.6940
 9311TIP3    H149424   1.051   2.148  14.236  1.3424  0.6905  1.0287
 9311TIP3    H249425   1.169   2.211  14.165 -0.9164 -0.5011 -3.9687
 9312TIP3   OH249426   2.193   0.965  11.461  0.1869  0.6195 -0.2808
 9312TIP3    H149427   2.147   1.002  11.537 -1.3556  0.9062 -1.3333
 9312TIP3    H249428   2.277   0.935  11.496 -0.8011  0.0804  1.6856
 9313TIP3   OH249429   3.363   5.670  14.027  0.0209  0.4398 -0.6260
 9313TIP3    H149430   3.387   5.760  14.006  0.8735  0.7749  1.5917
 9313TIP3    H249431   3.274   5.660  13.994  0.1748  1.8712 -1.5025
 9314TIP3   OH249432   5.941   0.085  12.715 -0.4935  0.1837  0.2963
 9314TIP3    H149433   5.848   0.100  12.734 -0.6622 -0.9090  0.3658
 9314TIP3    H249434   5.956  -0.006  12.739  0.1582 -0.1745 -1.4247
 9315TIP3   OH249435   5.123   3.250  14.215 -0.2231 -0.2422  0.9476
 9315TIP3    H149436   5.150   3.338  14.242  1.4262  0.4400 -2.6228
 9315TIP3    H249437   5.032   3.260  14.186  0.8859  1.0031 -2.2733
 9316TIP3   OH249438   3.577   3.326  11.346 -0.0300  0.0467  0.5136
 9316TIP3    H149439   3.629   3.350  11.423  0.0648  0.0360  0.4517
 9316TIP3    H249440   3.500   3.281  11.382 -0.3762  0.7389  0.6526
 9317TIP3   OH249441   1.299   0.618   5.380 -0.8876  0.3434  0.8241
 9317TIP3    H149442   1.264   0.607   5.291  1.1317 -2.6052  0.3425
 9317TIP3    H249443   1.323   0.711   5.384 -0.1883  0.3557 -2.0518
 9318TIP3   OH249444   0.932   5.261  16.810 -0.2412  0.3229  0.6717
 9318TIP3    H149445   0.936   5.172  16.845  1.3730  0.3048  0.4885
 9318TIP3    H249446   0.956   5.317  16.884  0.7117  0.4545  0.2740
 9319TIP3   OH249447   2.700   0.520  14.635  0.0862  0.0600 -0.1262
 9319TIP3    H149448   2.720   0.543  14.544  0.3756  0.7501  0.1107
 9319TIP3    H249449   2.693   0.424  14.634 -1.0234  0.1413 -1.0899
 9320TIP3   OH249450   2.796   6.751   2.528  0.5188 -0.2919 -0.6271
 9320TIP3    H149451   2.852   6.674   2.537  2.6849  1.3614  0.5328
 9320TIP3    H249452   2.842   6.808   2.467  0.5213  1.4342  0.9295
 9321TIP3   OH249453   4.947   6.674  16.378  0.4270  0.6362 -0.2894
 9321TIP3    H149454   4.975   6.633  16.296  3.2091  1.6867  0.0791
 9321TIP3    H249455   4.971   6.766  16.368  0.9209  0.7445  1.7410
 9322TIP3   OH249456   1.981   1.914   0.237  0.2027 -0.4227 -0.0643
 9322TIP3    H149457   1.972   1.860   0.315  1.7892 -0.0377  0.4010
 9322TIP3    H249458   1.914   1.881   0.177  0.4289 -2.1718  0.6236
 9323TIP3   OH249459   5.151   4.667  14.041  0.4887 -0.1092 -0.0446
 9323TIP3    H149460   5.197   4.650  14.124  1.5705 -0.2891 -0.6631
 9323TIP3    H249461   5.108   4.584  14.020 -0.9776  0.3521  1.0469
 9324TIP3   OH249462   0.734   4.861  13.952  0.0023  0.0106  0.5995
 9324TIP3    H149463   0.643   4.853  13.979 -0.5330 -0.6835 -1.3201
 9324TIP3    H249464   0.771   4.774  13.963 -0.2705 -0.3275 -0.9816
 9325TIP3   OH249465   2.594   5.150   1.984 -0.3578 -0.3326 -0.5596
 9325TIP3    H149466   2.676   5.157   2.034 -0.3852 -0.7226 -0.4594
 9325TIP3    H249467   2.561   5.063   2.005 -2.4291  0.9842  1.8796
 9326TIP3   OH249468   5.017   0.763   1.160 -0.0604  0.3442  0.3980
 9326TIP3    H149469   5.039   0.776   1.252  3.7730  2.1773 -0.6805
 9326TIP3    H249470   5.087   0.707   1.126  1.3624  3.7125 -2.4817
 9327TIP3   OH249471   1.173   4.555   1.786 -0.3739 -0.6076  0.2725
 9327TIP3    H149472   1.142   4.621   1.725 -2.6664 -0.5235  1.4909
 9327TIP3    H249473   1.229   4.603   1.847 -1.9790  0.2231  1.1136
 9328TIP3   OH249474   0.428   3.685  12.730 -0.2116 -0.4266 -0.1295
 9328TIP3    H149475   0.386   3.602  12.709 -1.8652  0.3532  0.0251
 9328TIP3    H249476   0.371   3.725  12.796 -0.1336  1.4203 -1.1548
 9329TIP3   OH249477   0.270   5.998   2.385  0.5741  0.9942  0.0760
 9329TIP3    H149478   0.337   6.056   2.420  0.7979  0.8426 -0.1062
 9329TIP3    H249479   0.211   5.982   2.459  2.0120 -0.7611  0.8600
 9330TIP3   OH249480   2.573   2.575  15.791 -0.1459  0.5679  0.5070
 9330TIP3    H149481   2.529   2.615  15.716 -0.3004 -0.6334 -0.0573
 9330TIP3    H249482   2.650   2.631  15.806  0.5071  0.1736 -1.2716
 9331TIP3   OH249483   5.925   5.393  12.269 -0.4729 -0.0732 -0.1478
 9331TIP3    H149484   5.856   5.414  12.333 -0.5976  2.2055 -0.9645
 9331TIP3    H249485   5.900   5.443  12.192  1.0303 -0.8540 -1.1409
 9332TIP3   OH249486   5.123   1.941   1.220  0.4875 -0.0864  0.0430
 9332TIP3    H149487   5.103   1.865   1.165  0.1084  0.4304 -0.5352
 9332TIP3    H249488   5.119   1.907   1.309  2.2365 -1.2028 -0.2766
 9333TIP3   OH249489   1.768   0.303  15.528 -0.1391  0.3467  0.1940
 9333TIP3    H149490   1.703   0.359  15.485  1.5392  0.9614 -1.6082
 9333TIP3    H249491   1.833   0.364  15.562  1.0844 -0.4285 -0.7317
 9334TIP3   OH249492   3.321   4.201  15.746  0.1020  0.6475  0.3140
 9334TIP3    H149493   3.273   4.278  15.777  2.8589  2.8746 -0.7613
 9334TIP3    H249494   3.301   4.197  15.652  2.2223  1.8053 -0.2139
 9335TIP3   OH249495   4.743   4.344   0.383 -0.4384  0.4989  0.1199
 9335TIP3    H149496   4.828   4.388   0.385 -0.4129  0.4074  1.4429
 9335TIP3    H249497   4.702   4.374   0.302  1.6699 -1.0279 -1.5920
 9336TIP3   OH249498   4.768   2.123   2.408 -0.5618  0.0750 -0.4355
 9336TIP3    H149499   4.762   2.073   2.489  0.6236  1.7573  0.7420
 9336TIP3    H249500   4.755   2.059   2.338  0.6816 -1.7927  1.0127
 9337TIP3   OH249501   0.000   6.696  11.650 -0.1055  0.8044 -0.5382
 9337TIP3    H149502   0.075   6.742  11.688 -1.0564  1.0136  1.1270
 9337TIP3    H249503  -0.076   6.737  11.691 -1.0416 -0.9091 -0.5426
 9338TIP3   OH249504   3.638   1.472  17.260  0.1055  0.0579 -0.3625
 9338TIP3    H149505   3.560   1.526  17.269  0.4202  0.2561  1.5102
 9338TIP3    H249506   3.695   1.520  17.201 -0.8510  0.2889 -1.1131
 9339TIP3   OH249507   2.448   1.338   4.092 -0.3534 -0.4223 -0.0764
 9339TIP3    H149508   2.459   1.427   4.125 -0.1255 -0.5519  0.1954
 9339TIP3    H249509   2.376   1.345   4.029 -0.3671 -0.0554 -0.0227
 9340TIP3   OH249510   3.437   5.993   5.218  0.4731 -0.0220 -0.1089
 9340TIP3    H149511   3.515   5.985   5.272  0.3103  0.6072  0.2248
 9340TIP3    H249512   3.468   5.981   5.128  1.0828  1.0355 -0.0437
 9341TIP3   OH249513   4.119   3.415   5.853  0.0657 -0.4185  0.2807
 9341TIP3    H149514   4.135   3.509   5.863  0.6003 -0.5818  0.9426
 9341TIP3    H249515   4.129   3.379   5.941 -2.6880 -0.7333  0.5172
 9342TIP3   OH249516   6.186   0.752  13.906 -0.3146  0.2726 -0.5736
 9342TIP3    H149517   6.261   0.764  13.848  0.3099  1.8285  0.4966
 9342TIP3    H249518   6.134   0.832  13.894  0.0795  0.8371  1.3383
 9343TIP3   OH249519   3.963   4.402  17.096  0.0503 -0.0085 -0.4170
 9343TIP3    H149520   3.897   4.405  17.026 -0.2331 -0.5970 -0.1832
 9343TIP3    H249521   3.911   4.401  17.177  0.3732  0.5277 -0.2024
 9344TIP3   OH249522   0.707   5.782  14.130 -0.1562  0.5502 -0.1314
 9344TIP3    H149523   0.710   5.873  14.099 -0.3462 -0.0574 -1.9891
 9344TIP3    H249524   0.790   5.745  14.103 -0.4258 -0.0605 -0.1212
 9345TIP3   OH249525   4.750   1.229  16.202  0.0128  0.0456  0.2423
 9345TIP3    H149526   4.827   1.190  16.159 -0.1898  0.5956 -0.6340
 9345TIP3    H249527   4.753   1.321  16.177 -0.8438  0.1025  0.3437
 9346TIP3   OH249528   1.610   4.775   5.267 -0.1153 -0.0390  0.0784
 9346TIP3    H149529   1.548   4.845   5.287 -0.7111 -0.5027 -0.1208
 9346TIP3    H249530   1.633   4.738   5.353  0.9370  1.0140  0.2614
 9347TIP3   OH249531   2.470   1.619  16.456  0.1179 -0.0820 -0.3090
 9347TIP3    H149532   2.512   1.680  16.395 -1.0056  0.8906 -0.1322
 9347TIP3    H249533   2.476   1.534  16.414  4.3854 -0.4417  0.7387
 9348TIP3   OH249534   5.094   1.476  11.782 -0.3461 -0.2663 -0.0075
 9348TIP3    H149535   5.132   1.412  11.722 -0.1634 -0.5175  0.3777
 9348TIP3    H249536   5.012   1.436  11.810 -0.2809 -0.2839  0.1557
 9349TIP3   OH249537   3.155   2.967  13.244 -0.5698  0.5082  0.2502
 9349TIP3    H149538   3.069   2.924  13.237 -0.5438  0.6529 -1.2195
 9349TIP3    H249539   3.168   3.007  13.158  2.8296 -3.0089 -1.0365
 9350TIP3   OH249540   3.697   3.246   2.316  0.2208  0.0947 -0.1953
 9350TIP3    H149541   3.770   3.240   2.379  0.8597  1.9365 -0.7321
 9350TIP3    H249542   3.620   3.263   2.370  0.4936 -0.0216  0.2306
 9351TIP3   OH249543   0.448   6.499   4.449  0.1147 -0.0691  0.3915
 9351TIP3    H149544   0.499   6.570   4.490  0.8571 -0.3068 -0.1032
 9351TIP3    H249545   0.412   6.450   4.523  0.0728  0.4854  0.7465
 9352TIP3   OH249546   5.042   5.954   3.586  0.6408 -0.0333 -0.4341
 9352TIP3    H149547   5.090   6.021   3.634  0.9254 -0.1349 -0.5788
 9352TIP3    H249548   4.950   5.977   3.599  0.7594  1.0933 -1.4801
 9353TIP3   OH249549   3.999   3.852   4.218 -0.4282 -0.0537 -0.4787
 9353TIP3    H149550   3.938   3.792   4.175 -0.7856 -0.3197  0.4025
 9353TIP3    H249551   3.970   3.939   4.191 -0.9829 -0.1953 -0.3527
 9354TIP3   OH249552   0.471   0.994  12.658  0.9895  0.0367 -0.0369
 9354TIP3    H149553   0.436   0.938  12.727  0.4469  1.0818  0.5533
 9354TIP3    H249554   0.449   0.949  12.576 -1.5701  0.5338  0.3246
 9355TIP3   OH249555   1.416   2.793   2.635  0.4645  0.4412  0.0071
 9355TIP3    H149556   1.454   2.846   2.706  0.2908  0.3043  0.2047
 9355TIP3    H249557   1.474   2.717   2.628  1.2986  1.1665 -0.9786
 9356TIP3   OH249558   0.412   5.322  15.633  0.2717  0.4189 -0.2061
 9356TIP3    H149559   0.334   5.283  15.671  0.0535  0.8045 -0.2531
 9356TIP3    H249560   0.423   5.405  15.680  0.4679  0.5172 -0.4234
 9357TIP3   OH249561   0.542   2.878   6.538 -0.2026 -0.5091  0.1806
 9357TIP3    H149562   0.546   2.973   6.548 -0.7710 -0.4689 -0.0047
 9357TIP3    H249563   0.632   2.853   6.517  0.2304 -0.1688  1.6097
 9358TIP3   OH249564   5.814   3.244   4.592  0.3781 -0.4963 -0.1270
 9358TIP3    H149565   5.773   3.207   4.514 -0.5442  2.1940 -0.9960
 9358TIP3    H249566   5.744   3.247   4.658  0.5343 -0.6484  0.0465
 9359TIP3   OH249567   5.517   5.159  15.275  0.4207  0.2128  0.4676
 9359TIP3    H149568   5.534   5.081  15.222  0.0493  0.8925 -0.6697
 9359TIP3    H249569   5.429   5.187  15.248  0.5925  1.0775  0.8090
 9360TIP3   OH249570   1.732   5.232  15.266 -0.1971 -0.0821 -0.1133
 9360TIP3    H149571   1.719   5.143  15.299 -0.2386 -0.1909 -0.4193
 9360TIP3    H249572   1.730   5.287  15.344 -0.0320 -0.3651  0.0915
 9361TIP3   OH249573   6.528   2.238  12.789 -0.3455 -0.3520  0.3121
 9361TIP3    H149574   6.493   2.157  12.752 -1.3282 -0.1721  0.8266
 9361TIP3    H249575   6.616   2.245  12.752  0.0317 -2.0383  0.8379
 9362TIP3   OH249576   0.572   1.013  14.214  0.2820 -0.6017  0.1774
 9362TIP3    H149577   0.543   0.926  14.186 -0.3391  0.1135 -1.4925
 9362TIP3    H249578   0.500   1.046  14.269 -1.5389  0.5840 -2.7711
 9363TIP3   OH249579   2.132   2.625   1.986 -0.1887 -0.6005  0.1014
 9363TIP3    H149580   2.171   2.547   1.947  3.2319  0.1570  1.7791
 9363TIP3    H249581   2.163   2.697   1.931 -3.0355 -0.3519 -1.2315
 9364TIP3   OH249582   4.335   3.453   0.816 -0.7978  0.1085  0.0033
 9364TIP3    H149583   4.327   3.409   0.901  1.9500 -1.2218 -0.3660
 9364TIP3    H249584   4.258   3.425   0.767 -0.5010 -2.1432  0.7585
 9365TIP3   OH249585   5.326   5.571  16.148  0.1418 -0.0919 -0.2886
 9365TIP3    H149586   5.346   5.589  16.056  0.1823 -0.5360 -0.3667
 9365TIP3    H249587   5.235   5.597  16.158  0.0548 -0.3011 -0.5247
 9366TIP3   OH249588   3.259   5.484   6.223  0.1281  0.0440  0.0866
 9366TIP3    H149589   3.211   5.441   6.294 -0.9935 -0.3234 -0.8790
 9366TIP3    H249590   3.256   5.577   6.245 -0.4827 -0.0377  0.3517
 9367TIP3   OH249591   3.691   0.572   3.271 -0.0781 -0.1524 -0.2597
 9367TIP3    H149592   3.607   0.565   3.315  0.6461  0.6513  1.3127
 9367TIP3    H249593   3.755   0.551   3.339  1.0203 -0.0334 -1.2389
 9368TIP3   OH249594   1.241   5.853   2.757  0.1239 -0.7376  0.4014
 9368TIP3    H149595   1.258   5.824   2.846  1.4119 -0.7447  0.1687
 9368TIP3    H249596   1.162   5.907   2.763  1.5708  1.2970  1.9567
 9369TIP3   OH249597   2.373   2.361  12.037 -0.2659  0.0776 -0.0937
 9369TIP3    H149598   2.299   2.316  11.995 -1.3051 -0.0873  1.8449
 9369TIP3    H249599   2.332   2.432  12.086  0.9214  0.3104  0.5584
 9370TIP3   OH249600   2.832   5.704   2.874 -0.4053 -0.7909 -0.0691
 9370TIP3    H149601   2.921   5.668   2.877  0.3660  1.1851  1.4459
 9370TIP3    H249602   2.822   5.734   2.784  2.1760  3.0272  0.7848
 9371TIP3   OH249603   0.713   4.805   3.793  0.2258  0.5851  0.1723
 9371TIP3    H149604   0.719   4.778   3.884 -1.4138 -1.1659 -0.1954
 9371TIP3    H249605   0.766   4.741   3.745 -0.3718  0.4163 -0.2763
 9372TIP3   OH249606   4.791   5.619   2.992 -0.5866  0.1403 -0.0653
 9372TIP3    H149607   4.839   5.615   2.910 -2.3658 -0.1578 -1.1305
 9372TIP3    H249608   4.840   5.563   3.052  0.4876  0.0101 -1.0497
 9373TIP3   OH249609   6.118   4.076  14.744  0.7492  0.0356 -0.1170
 9373TIP3    H149610   6.096   4.006  14.805  0.7964 -0.0086 -0.1497
 9373TIP3    H249611   6.075   4.154  14.779  0.5090 -0.0593 -0.2025
 9374TIP3   OH249612   4.033   4.122   2.620 -0.4160 -0.3153  0.1935
 9374TIP3    H149613   3.982   4.191   2.578 -0.6079 -0.4537  0.2003
 9374TIP3    H249614   4.005   4.041   2.577 -0.5934 -0.4560  0.5669
 9375TIP3   OH249615   6.062   6.597   3.784 -0.6920 -0.1528 -0.2577
 9375TIP3    H149616   5.987   6.655   3.772 -0.5627  0.5348  2.1282
 9375TIP3    H249617   6.126   6.628   3.720 -2.5024 -0.9342 -2.5266
 9376TIP3   OH249618   2.777   2.691  14.836  0.0417 -0.2270  0.4413
 9376TIP3    H149619   2.778   2.778  14.876 -1.5988  1.4709 -3.0071
 9376TIP3    H249620   2.686   2.679  14.807  1.2014 -1.1763 -3.0143
 9377TIP3   OH249621   2.647   2.974  14.131  0.4336 -0.2668  0.2775
 9377TIP3    H149622   2.644   3.066  14.103  0.1209 -0.9437 -1.9303
 9377TIP3    H249623   2.737   2.962  14.162  0.6329  0.6253  0.0660
 9378TIP3   OH249624   1.939   4.469  14.387  0.5104  0.3428 -0.2319
 9378TIP3    H149625   1.899   4.549  14.353 -0.4911 -0.1833 -0.3138
 9378TIP3    H249626   1.877   4.438  14.453  0.7826 -0.4908 -0.3660
 9379TIP3   OH249627   0.336   3.904  14.840  0.1295 -0.1622  0.0217
 9379TIP3    H149628   0.385   3.957  14.778 -0.8264 -1.0778 -1.5677
 9379TIP3    H249629   0.387   3.825  14.850  0.9324  0.5292  1.4218
 9380TIP3   OH249630   4.380   4.334  10.997  0.4087 -0.4750 -0.3049
 9380TIP3    H149631   4.443   4.405  10.988  0.0867 -0.0998  0.4236
 9380TIP3    H249632   4.410   4.285  11.074  0.1998 -0.6980 -0.3659
 9381TIP3   OH249633   3.087   5.731   0.476 -0.4415  0.5508  0.6184
 9381TIP3    H149634   3.070   5.682   0.556 -0.5407 -0.3210  0.0751
 9381TIP3    H249635   3.012   5.789   0.466 -2.4791 -2.2428 -1.0090
 9382TIP3   OH249636   0.914   4.915  15.789 -0.2769 -0.1830  0.6911
 9382TIP3    H149637   0.936   5.000  15.751  1.3506 -1.2595 -0.8535
 9382TIP3    H249638   0.998   4.875  15.810 -1.0683 -0.5419  3.4862
 9383TIP3   OH249639   4.712   3.099  16.834 -0.3105  0.4082 -0.7688
 9383TIP3    H149640   4.740   3.185  16.866  2.1869 -0.3730 -0.7703
 9383TIP3    H249641   4.661   3.063  16.907  0.6196  0.9411  0.1770
 9384TIP3   OH249642   6.535   5.500   2.252  0.0188  0.1013 -0.3149
 9384TIP3    H149643   6.595   5.506   2.326 -0.4961  1.2495  0.0185
 9384TIP3    H249644   6.546   5.582   2.205 -0.6601 -0.0470 -0.7385
 9385TIP3   OH249645   1.958   1.780   5.692  0.7494 -0.1425 -0.6198
 9385TIP3    H149646   2.000   1.777   5.606  0.0163 -0.8734 -0.9718
 9385TIP3    H249647   2.014   1.726   5.748 -0.4220 -2.2676 -1.4295
 9386TIP3   OH249648   4.692   5.934   5.238 -0.0969  0.8101  0.5921
 9386TIP3    H149649   4.729   5.849   5.213 -1.9256  0.1617  0.0077
 9386TIP3    H249650   4.737   5.957   5.319 -1.0466 -1.7133  1.8833
 9387TIP3   OH249651   5.905   6.326   4.631 -0.1312  0.2257  0.2312
 9387TIP3    H149652   5.951   6.387   4.573 -0.1376 -0.9017 -0.9994
 9387TIP3    H249653   5.957   6.246   4.626 -0.9787 -0.3453  0.6135
 9388TIP3   OH249654   4.133   0.047  11.892  0.2146 -0.2462  0.8145
 9388TIP3    H149655   4.214   0.061  11.940 -0.4690 -0.1053  1.9438
 9388TIP3    H249656   4.077  -0.003  11.952  0.2877 -2.3349 -0.8074
 9389TIP3   OH249657   5.919   2.340   1.078 -0.0161 -0.5065 -0.3664
 9389TIP3    H149658   6.013   2.322   1.082 -0.2843 -2.3138 -1.8290
 9389TIP3    H249659   5.881   2.280   1.141 -0.1835  0.3219  0.3239
 9390TIP3   OH249660   6.364   1.133   3.082  0.3047 -0.3307 -0.7443
 9390TIP3    H149661   6.427   1.196   3.116  1.9629 -2.0981 -0.4660
 9390TIP3    H249662   6.404   1.047   3.099 -1.6013 -1.4421 -1.6930
 9391TIP3   OH249663   3.159   6.660   6.566  0.1622 -0.0249  0.1318
 9391TIP3    H149664   3.095   6.590   6.554  0.5156  0.1876 -3.8559
 9391TIP3    H249665   3.108   6.740   6.560  0.4288  0.0993 -0.5885
 9392TIP3   OH249666   2.326   1.399   2.337 -0.1186  0.0984 -0.3568
 9392TIP3    H149667   2.372   1.384   2.254  0.7579  0.6158  0.0330
 9392TIP3    H249668   2.237   1.422   2.310 -0.5140 -2.1364 -1.0681
 9393TIP3   OH249669   5.609   4.720  16.992 -0.0422  0.5605 -0.2701
 9393TIP3    H149670   5.609   4.717  17.088  1.0427 -3.1645 -0.3193
 9393TIP3    H249671   5.525   4.684  16.966 -0.9324  2.8981 -0.7606
 9394TIP3   OH249672   6.776   5.920   1.382 -0.5540  0.2485  0.4022
 9394TIP3    H149673   6.791   6.004   1.425 -0.8993 -0.2270  1.4568
 9394TIP3    H249674   6.681   5.914   1.375 -0.4837  0.5557 -0.9011
 9395TIP3   OH249675   0.494   4.847   4.898 -0.0760  0.5368 -0.0868
 9395TIP3    H149676   0.529   4.759   4.887  0.3812  0.7234 -0.1417
 9395TIP3    H249677   0.563   4.896   4.943 -0.7581  0.5852  0.9250
 9396TIP3   OH249678   6.156   0.621   3.684 -0.3489 -0.2809 -0.0179
 9396TIP3    H149679   6.096   0.617   3.758  2.4375  0.5432  2.3553
 9396TIP3    H249680   6.156   0.532   3.649  0.9745 -1.6529  3.2358
 9397TIP3   OH249681   1.202   5.677   2.112 -0.3925  0.2648 -0.5246
 9397TIP3    H149682   1.181   5.687   2.019  1.2279 -1.9758 -1.1796
 9397TIP3    H249683   1.119   5.651   2.152 -1.3844  2.4316 -1.0932
 9398TIP3   OH249684   2.242   3.696  13.262 -0.0794  0.1671  0.2571
 9398TIP3    H149685   2.171   3.761  13.262 -0.3968 -0.1705 -0.2545
 9398TIP3    H249686   2.220   3.637  13.334 -0.6638 -0.3000 -0.2956
 9399TIP3   OH249687   5.505   2.734   3.800  0.2954  0.2063  0.3655
 9399TIP3    H149688   5.434   2.737   3.865  2.1040 -1.0646  2.4660
 9399TIP3    H249689   5.462   2.705   3.720 -1.6146 -0.4083  1.5624
 9400TIP3   OH249690   6.706   0.637  12.399  0.6185  0.7976 -0.5252
 9400TIP3    H149691   6.692   0.726  12.431 -2.3176 -0.2054  1.1798
 9400TIP3    H249692   6.689   0.642  12.305 -1.8262  1.6060 -0.0708
 9401TIP3   OH249693   3.365   4.531  10.891  0.3367 -0.1616 -0.0549
 9401TIP3    H149694   3.313   4.604  10.858  0.7874 -0.7226 -2.0654
 9401TIP3    H249695   3.396   4.486  10.813  0.7077 -2.0647  1.1510
 9402TIP3   OH249696   5.226   0.242   4.494  0.0930 -0.0873  0.1078
 9402TIP3    H149697   5.244   0.335   4.489 -0.5614  0.0769  0.6538
 9402TIP3    H249698   5.207   0.226   4.587 -2.6491 -0.2061 -0.4102
 9403TIP3   OH249699   1.918   1.575   3.021  0.0824  0.3229 -0.7942
 9403TIP3    H149700   1.938   1.529   3.102  2.2102  0.3152 -1.2901
 9403TIP3    H249701   1.995   1.560   2.966 -2.3055 -1.7783 -3.7478
 9404TIP3   OH249702   6.160   4.674   2.873  0.4576 -0.1086 -0.1340
 9404TIP3    H149703   6.158   4.769   2.883  0.3469 -0.0692 -0.5123
 9404TIP3    H249704   6.159   4.660   2.778  0.7128 -0.4811 -0.0843
 9405TIP3   OH249705   1.730   1.819   0.668  0.4208 -0.3760 -0.3098
 9405TIP3    H149706   1.684   1.903   0.671 -1.7509 -1.5417  0.4888
 9405TIP3    H249707   1.769   1.811   0.755 -0.6659 -0.8851  0.1338
 9406TIP3   OH249708   6.461   3.062   0.186 -0.4891 -0.0568  0.2985
 9406TIP3    H149709   6.502   3.085   0.269 -0.1623  2.2177 -0.4375
 9406TIP3    H249710   6.397   3.132   0.171 -1.9483 -1.5199 -0.3960
 9407TIP3   OH249711   6.785   1.800   6.131  0.0147 -0.3422  0.5905
 9407TIP3    H149712   6.808   1.784   6.222  0.5530  0.6428  0.6364
 9407TIP3    H249713   6.781   1.895   6.123  0.0388 -0.4145 -0.4206
 9408TIP3   OH249714   1.729   3.371  15.769 -0.2759 -0.1262  0.1515
 9408TIP3    H149715   1.712   3.298  15.829  0.2616  1.4355  2.2480
 9408TIP3    H249716   1.813   3.348  15.728  0.7110  0.0571  2.0053
 9409TIP3   OH249717   6.586   4.235   2.719  0.5947  0.6268 -0.0779
 9409TIP3    H149718   6.528   4.243   2.795  1.3502 -0.8597  0.6697
 9409TIP3    H249719   6.529   4.252   2.643  0.0789  3.3083  0.8349
 9410TIP3   OH249720   4.026   4.684  11.787 -0.2708  0.1743  0.0769
 9410TIP3    H149721   4.103   4.735  11.765 -0.0179 -0.8712 -1.5834
 9410TIP3    H249722   3.963   4.705  11.718 -0.2029 -1.6139 -0.5726
 9411TIP3   OH249723   3.593   6.553  13.774  0.2558  0.2309 -0.5415
 9411TIP3    H149724   3.613   6.538  13.866  0.7187  0.9264 -0.5162
 9411TIP3    H249725   3.510   6.509  13.758 -1.5326  2.8929  1.0459
 9412TIP3   OH249726   4.974   0.150   2.533 -0.5835  0.5586 -0.0365
 9412TIP3    H149727   4.886   0.113   2.536 -0.1037 -0.7456 -1.2502
 9412TIP3    H249728   5.009   0.135   2.621 -1.7827  1.6280  0.6234
 9413TIP3   OH249729   1.604   1.000  15.968 -0.3334  0.3653 -0.1222
 9413TIP3    H149730   1.590   0.918  16.015 -0.4390 -0.0948 -0.9533
 9413TIP3    H249731   1.522   1.016  15.922  0.1068  0.2863 -0.9526
 9414TIP3   OH249732   5.825   6.564  12.408 -0.3861  0.0570  0.0579
 9414TIP3    H149733   5.791   6.640  12.456  0.7817  1.6166 -1.5227
 9414TIP3    H249734   5.913   6.551  12.444 -0.0432  0.3569 -0.6583
 9415TIP3   OH249735   1.890   2.615  11.503 -0.5757  0.1846 -0.2443
 9415TIP3    H149736   1.943   2.659  11.569 -0.1177  0.2936 -0.6839
 9415TIP3    H249737   1.831   2.559  11.553 -0.1008  0.1212  0.2431
 9416TIP3   OH249738   5.679   4.193   1.856 -0.3097  0.8007  0.4954
 9416TIP3    H149739   5.617   4.121   1.843  1.4785 -0.8839  1.0233
 9416TIP3    H249740   5.677   4.242   1.775 -0.8502 -0.4254 -0.2457
 9417TIP3   OH249741   6.481   5.801   6.085 -0.0700 -0.7170 -0.3487
 9417TIP3    H149742   6.569   5.840   6.078 -0.4785  0.4144  0.6401
 9417TIP3    H249743   6.497   5.708   6.099  1.0228 -0.2787  1.4624
 9418TIP3   OH249744   2.598   2.592   3.841 -0.7468  0.0868  0.4958
 9418TIP3    H149745   2.638   2.526   3.898  0.6711 -1.5700 -2.3332
 9418TIP3    H249746   2.529   2.545   3.794 -0.2133  0.7819 -1.0073
 9419TIP3   OH249747   0.595   1.515  15.260 -0.0495  0.0722 -1.0161
 9419TIP3    H149748   0.581   1.598  15.305 -0.6084 -0.8952  0.6385
 9419TIP3    H249749   0.596   1.538  15.167 -0.4527  1.8903 -0.5881
 9420TIP3   OH249750   3.262   6.363   1.854  0.0053 -0.1662 -0.2218
 9420TIP3    H149751   3.255   6.451   1.817 -1.1719 -0.5488 -0.9364
 9420TIP3    H249752   3.192   6.313   1.811 -1.2208 -0.7087  2.3069
 9421TIP3   OH249753   5.737   4.213  13.529  0.0767 -0.1487  0.0901
 9421TIP3    H149754   5.800   4.246  13.464  1.6033 -3.4172 -0.1852
 9421TIP3    H249755   5.690   4.144  13.483 -2.4511  0.9783  0.9110
 9422TIP3   OH249756   0.615   5.684  11.111  0.4184 -0.4068  0.1921
 9422TIP3    H149757   0.605   5.669  11.205 -1.7151 -1.1001 -0.1176
 9422TIP3    H249758   0.710   5.684  11.097  0.8567  2.0054  2.6833
 9423TIP3   OH249759   3.713   3.948  15.212  0.1671 -0.4866 -0.3040
 9423TIP3    H149760   3.768   3.871  15.224  0.8305  0.2800  1.7686
 9423TIP3    H249761   3.742   4.009  15.280  0.4585  2.0583 -2.6641
 9424TIP3   OH249762   4.585   5.907  16.470 -0.5037 -0.5332  0.1331
 9424TIP3    H149763   4.620   5.982  16.423 -0.7334 -1.2412 -1.1681
 9424TIP3    H249764   4.651   5.888  16.537  0.2190 -0.0563 -0.4416
 9425TIP3   OH249765   6.238   1.885   6.021  0.1241  0.0930  0.6316
 9425TIP3    H149766   6.235   1.837   5.938 -1.5005  0.1601  0.6286
 9425TIP3    H249767   6.325   1.866   6.057 -0.0360 -1.8756  0.0481
 9426TIP3   OH249768   1.044   2.383   5.113 -0.3815 -0.0046 -0.0630
 9426TIP3    H149769   1.066   2.440   5.039  1.2563 -2.1796 -1.3166
 9426TIP3    H249770   1.084   2.424   5.189 -0.9144  1.5384 -0.5996
 9427TIP3   OH249771   1.719   5.920   3.575 -0.2323  0.0043  0.6387
 9427TIP3    H149772   1.704   5.960   3.661  1.6740 -0.0195  1.0024
 9427TIP3    H249773   1.764   5.838   3.595 -0.1990 -0.2242 -0.3663
 9428TIP3   OH249774   2.555   2.005   4.918  0.0988  0.5479 -0.2269
 9428TIP3    H149775   2.537   1.928   4.863  0.1616 -0.1043  0.6553
 9428TIP3    H249776   2.471   2.025   4.959 -0.3368  2.0263 -1.7801
 9429TIP3   OH249777   1.690   0.099   6.435 -0.1742  0.1801 -0.4151
 9429TIP3    H149778   1.781   0.129   6.431 -0.1190  0.2116  0.8837
 9429TIP3    H249779   1.638   0.172   6.401  0.2165  0.4702 -0.3889
 9430TIP3   OH249780   4.713   4.351  10.983 -1.0472 -0.2686 -0.0955
 9430TIP3    H149781   4.804   4.379  10.990 -0.8148 -1.4152  2.1411
 9430TIP3    H249782   4.662   4.432  10.987 -0.2226  0.1894  1.5695
 9431TIP3   OH249783   1.012   6.728  16.587 -0.1498  0.6407  0.2158
 9431TIP3    H149784   0.943   6.666  16.610 -0.8723  1.6169  0.6995
 9431TIP3    H249785   0.999   6.746  16.494  1.1950 -1.3283 -0.3950
 9432TIP3   OH249786   6.626   0.575   3.494  0.4011  0.0486 -0.1014
 9432TIP3    H149787   6.654   0.484   3.507 -0.8666 -0.2762  0.3563
 9432TIP3    H249788   6.543   0.568   3.447  0.2012  0.9717  0.1122
 9433TIP3   OH249789   2.996   3.891   0.046  0.1188 -0.3777 -0.6106
 9433TIP3    H149790   2.947   3.812   0.025  1.5042 -0.5840 -3.2889
 9433TIP3    H249791   2.930   3.956   0.069 -1.1724 -1.6206 -0.7966
 9434TIP3   OH249792   2.893   6.686  13.854  0.8400 -0.1292 -0.3206
 9434TIP3    H149793   2.929   6.696  13.943  1.0808  0.7702 -0.5137
 9434TIP3    H249794   2.920   6.598  13.827  0.1231 -0.7100  0.7905
 9435TIP3   OH249795   5.413   0.971   3.798  0.0917  0.7605 -0.6507
 9435TIP3    H149796   5.342   1.024   3.836 -0.6888  0.4116 -1.6123
 9435TIP3    H249797   5.408   0.888   3.846  1.5586  1.6489  1.1236
 9436TIP3   OH249798   3.381   4.642  16.118  0.0836  0.0251  0.3346
 9436TIP3    H149799   3.443   4.699  16.163  3.8790 -2.0360 -2.0841
 9436TIP3    H249800   3.402   4.554  16.148 -1.5991 -0.7524 -0.6709
 9437TIP3   OH249801   6.074   4.972   6.580  0.0910  0.1612 -0.2571
 9437TIP3    H149802   6.028   5.051   6.552  0.7938  0.5118 -0.4316
 9437TIP3    H249803   6.005   4.917   6.618 -0.0474  1.7940  1.9244
 9438TIP3   OH249804   4.924   1.396   0.369 -0.5674  0.2040  0.3769
 9438TIP3    H149805   4.869   1.318   0.373  0.9424 -0.9332 -0.5668
 9438TIP3    H249806   4.994   1.380   0.432  0.4259  0.2389 -0.6907
 9439TIP3   OH249807   0.416   2.251  15.014  0.0596  0.3185 -0.0993
 9439TIP3    H149808   0.399   2.216  15.101  1.2606 -0.3491 -0.1076
 9439TIP3    H249809   0.509   2.233  15.000  0.1784  1.6022 -0.9860
 9440TIP3   OH249810   5.060   2.726   3.507 -0.1132  0.0774 -0.1930
 9440TIP3    H149811   5.037   2.803   3.559  2.1377  0.2774  0.5505
 9440TIP3    H249812   5.000   2.658   3.537 -1.6427  1.3310 -0.3419
 9441TIP3   OH249813   2.373   1.673   4.074 -0.6850 -0.0024  0.5271
 9441TIP3    H149814   2.384   1.765   4.050 -0.6120  0.1121  0.9947
 9441TIP3    H249815   2.378   1.626   3.991  2.0728  0.1491  0.5371
 9442TIP3   OH249816   4.331   3.173   2.960 -0.1294  0.1844 -0.0561
 9442TIP3    H149817   4.373   3.090   2.936  0.8860  0.4860  0.6017
 9442TIP3    H249818   4.336   3.175   3.056 -0.0284  1.0633 -0.0746
 9443TIP3   OH249819   1.203   6.684  14.568 -0.0392  0.0025 -0.3768
 9443TIP3    H149820   1.111   6.662  14.551 -0.6981  0.6819  2.0281
 9443TIP3    H249821   1.247   6.670  14.485 -2.5324  0.7039 -1.8717
 9444TIP3   OH249822   0.357   0.715   1.176  0.1557  0.0721  0.0875
 9444TIP3    H149823   0.439   0.707   1.126  0.1798  2.6815 -0.3633
 9444TIP3    H249824   0.290   0.730   1.109 -0.0161  2.2298  0.7228
 9445TIP3   OH249825   2.323   1.072   0.127 -0.3314  0.1953 -0.5567
 9445TIP3    H149826   2.323   0.993   0.073 -0.4584  0.0306 -0.3210
 9445TIP3    H249827   2.392   1.057   0.191 -2.2687 -1.0293  1.3386
 9446TIP3   OH249828   6.264   1.070   1.984 -0.2685  0.0493 -0.3972
 9446TIP3    H149829   6.293   1.150   1.940  2.5951 -1.1443 -0.8019
 9446TIP3    H249830   6.271   1.090   2.077 -2.4792  1.2569 -0.4783
 9447TIP3   OH249831   6.723   2.774   5.617  0.4389  0.2974  0.1666
 9447TIP3    H149832   6.712   2.754   5.524  0.7167  1.7600 -0.1902
 9447TIP3    H249833   6.641   2.745   5.657 -0.2240  0.8818 -0.7443
 9448TIP3   OH249834   2.926   5.139   0.412 -0.5738  0.1712  0.2773
 9448TIP3    H149835   2.970   5.121   0.328 -1.6445 -1.1508 -0.0272
 9448TIP3    H249836   2.898   5.053   0.442 -0.2441  0.6528  1.9853
 9449TIP3   OH249837   6.551   5.988   1.497 -0.2651  0.2212  0.7453
 9449TIP3    H149838   6.503   6.044   1.435  0.1211  0.3842  0.5914
 9449TIP3    H249839   6.577   6.047   1.568  2.0028  0.7218 -0.4396
 9450TIP3   OH249840   0.992   0.641   2.768 -0.3825 -0.1176  0.2803
 9450TIP3    H149841   1.044   0.635   2.848  1.1447 -0.3840 -0.7108
 9450TIP3    H249842   1.042   0.700   2.711 -0.8568 -0.8469 -0.9113
 9451TIP3   OH249843   0.743   0.167  10.932 -0.3580  0.0160  0.5044
 9451TIP3    H149844   0.739   0.250  10.885  1.8207 -0.7446 -1.0915
 9451TIP3    H249845   0.835   0.157  10.956 -0.3428 -2.5142 -0.4306
 9452TIP3   OH249846   5.917   5.767  17.003  0.0361 -0.9813  0.5692
 9452TIP3    H149847   5.934   5.674  17.015  0.4472 -1.0970 -0.8136
 9452TIP3    H249848   5.959   5.809  17.078  0.3863 -1.8593  0.8711
 9453TIP3   OH249849   4.160   2.494  11.949 -0.0807  0.3219  0.4393
 9453TIP3    H149850   4.235   2.495  11.890  1.4725 -0.7375  2.3479
 9453TIP3    H249851   4.166   2.577  11.996  0.2041  0.0085  0.9594
 9454TIP3   OH249852   4.277   4.814  11.828  0.4093 -0.0024  0.8374
 9454TIP3    H149853   4.350   4.822  11.767  0.3861 -0.6177  0.7225
 9454TIP3    H249854   4.315   4.776  11.907  0.4840  1.0235  1.2994
 9455TIP3   OH249855   2.970   0.406   5.257  0.2033 -0.3441 -0.3160
 9455TIP3    H149856   2.975   0.410   5.162 -0.8561  0.2578 -0.3636
 9455TIP3    H249857   3.053   0.369   5.285  0.5267 -0.4961 -1.4764
 9456TIP3   OH249858   2.299   2.103  16.776 -0.0489  0.1910 -0.7627
 9456TIP3    H149859   2.273   2.119  16.685  1.1459 -4.9604 -2.2448
 9456TIP3    H249860   2.390   2.075  16.769  0.1967  0.1715  2.1051
 9457TIP3   OH249861   6.124   5.394   5.543 -0.1653 -0.2433  0.3752
 9457TIP3    H149862   6.088   5.453   5.609 -0.3505 -0.6844  0.6682
 9457TIP3    H249863   6.077   5.312   5.555  1.2326 -0.9650  1.0540
 9458TIP3   OH249864   1.153   4.502  16.077 -0.0619  0.0652  0.0655
 9458TIP3    H149865   1.108   4.461  16.151  0.0458  0.9744  0.6463
 9458TIP3    H249866   1.164   4.432  16.013 -3.7710  0.2066 -0.8001
 9459TIP3   OH249867   3.816   6.015  11.544  0.2770 -0.3930  0.4438
 9459TIP3    H149868   3.817   6.027  11.639  0.9404  1.9169  0.1828
 9459TIP3    H249869   3.901   6.048  11.515 -0.2808 -0.2258 -1.0279
 9460TIP3   OH249870   2.621   4.398  11.699 -0.4143 -0.2457  0.0708
 9460TIP3    H149871   2.530   4.425  11.714  0.4615  1.8447  1.7074
 9460TIP3    H249872   2.658   4.468  11.645  0.1430 -1.2690 -0.8890
 9461TIP3   OH249873   1.961   2.665   4.335  0.4066 -0.1070 -0.0099
 9461TIP3    H149874   1.927   2.662   4.246 -2.1301 -0.5597  0.9046
 9461TIP3    H249875   2.008   2.582   4.346 -0.6070 -0.7501 -0.4430
 9462TIP3   OH249876   6.220   4.847   5.316 -0.1708  0.2444  0.1444
 9462TIP3    H149877   6.215   4.882   5.405 -1.0268  0.7487 -0.0967
 9462TIP3    H249878   6.146   4.887   5.271  0.6229  0.4647 -0.9637
 9463TIP3   OH249879   3.477   5.809   2.958  0.4679  0.0985 -0.2716
 9463TIP3    H149880   3.506   5.774   2.873 -0.3998  0.7608 -0.8475
 9463TIP3    H249881   3.478   5.904   2.946  0.3335  0.1948  0.4643
 9464TIP3   OH249882   2.758   0.227   0.825  0.0295  0.3078 -0.4212
 9464TIP3    H149883   2.814   0.167   0.775  1.6356  0.2947  1.3546
 9464TIP3    H249884   2.756   0.191   0.913 -0.5927  1.7876  0.1899
 9465TIP3   OH249885   3.464   1.970  15.870  0.0105  0.1278 -0.1224
 9465TIP3    H149886   3.466   2.000  15.961 -0.2571 -1.9768  0.6172
 9465TIP3    H249887   3.528   2.025  15.825  0.1045  1.2320  1.3375
 9466TIP3   OH249888   1.104   0.529  15.839  0.5859 -0.5257 -0.4187
 9466TIP3    H149889   1.020   0.564  15.870  0.3372 -1.8324  0.4143
 9466TIP3    H249890   1.168   0.596  15.864 -0.3161  0.9997 -2.0355
 9467TIP3   OH249891   5.936   1.922   1.979  0.9376 -0.0962  0.3945
 9467TIP3    H149892   5.967   1.951   2.065 -2.0153  0.0339  1.4680
 9467TIP3    H249893   5.914   2.003   1.933  0.6929 -0.2574  0.2284
 9468TIP3   OH249894   1.912   1.237  12.069  0.1289 -0.1653  0.0722
 9468TIP3    H149895   1.838   1.240  12.009  0.9854 -1.3891 -1.0684
 9468TIP3    H249896   1.985   1.277  12.020  0.3918  0.4255  0.9359
 9469TIP3   OH249897   2.944   5.529  12.070 -0.7413  0.2424 -0.3320
 9469TIP3    H149898   2.947   5.433  12.065  1.2337  0.2326  0.6353
 9469TIP3    H249899   2.905   5.547  12.156 -0.2913  0.2893 -0.1338
 9470TIP3   OH249900   2.778   2.580  15.215  0.2405 -0.6709 -0.4298
 9470TIP3    H149901   2.862   2.616  15.186  1.0318 -1.4706  0.7888
 9470TIP3    H249902   2.712   2.629  15.166  1.4151  0.0185 -1.3532
 9471TIP3   OH249903   1.888   1.788  15.718 -0.6400 -0.1699  0.0842
 9471TIP3    H149904   1.798   1.815  15.705 -0.1252  1.7282  0.2398
 9471TIP3    H249905   1.918   1.759  15.632 -0.5316  2.0297 -0.6698
 9472TIP3   OH249906   5.295   5.543   4.065 -0.5808 -0.2716 -0.1091
 9472TIP3    H149907   5.204   5.570   4.049 -0.6011 -1.1211 -1.5271
 9472TIP3    H249908   5.347   5.603   4.012 -0.1045  1.9677  2.7899
 9473TIP3   OH249909   0.697   3.368   1.971  0.6458 -0.0141 -0.0010
 9473TIP3    H149910   0.721   3.459   1.990 -1.0055  0.1757  1.2701
 9473TIP3    H249911   0.644   3.341   2.045  1.1961 -2.0697 -0.3344
 9474TIP3   OH249912   6.735   3.791  16.733 -0.4899  0.2583 -0.8146
 9474TIP3    H149913   6.773   3.831  16.655 -0.0325 -1.0215 -1.2634
 9474TIP3    H249914   6.669   3.731  16.699 -0.3860 -0.2010 -0.2050
 9475TIP3   OH249915   6.568   3.262   3.468 -0.3802  0.0514 -0.1813
 9475TIP3    H149916   6.553   3.345   3.423 -1.3907  0.2706  0.5671
 9475TIP3    H249917   6.510   3.264   3.544  0.6661 -0.7054  0.6534
 9476TIP3   OH249918   3.634   2.264  13.929 -0.6813  0.5480  0.8133
 9476TIP3    H149919   3.703   2.328  13.913  0.8083 -0.8802  1.4175
 9476TIP3    H249920   3.613   2.274  14.022  0.8058 -1.0100  1.3521
 9477TIP3   OH249921   4.208   0.747  15.160 -0.0491  0.0313  0.2409
 9477TIP3    H149922   4.196   0.763  15.253 -0.5612  2.5088 -0.2228
 9477TIP3    H249923   4.139   0.798  15.117  0.4155 -0.7692 -1.5178
 9478TIP3   OH249924   1.891   3.121   0.395  0.0980 -0.1979 -0.2423
 9478TIP3    H149925   1.826   3.092   0.459  1.9458 -1.8388  0.9485
 9478TIP3    H249926   1.881   3.060   0.321  0.8569 -1.0210  0.3192
 9479TIP3   OH249927   6.640   6.468   0.408  0.9442 -0.1702 -0.3720
 9479TIP3    H149928   6.704   6.534   0.383 -0.1989  0.5668 -1.4093
 9479TIP3    H249929   6.556   6.507   0.384 -0.4013  1.1011  5.5103
 9480TIP3   OH249930   1.565   6.354   5.520 -0.6728  0.3222  0.0946
 9480TIP3    H149931   1.574   6.390   5.433  0.4879  1.3732  0.6506
 9480TIP3    H249932   1.574   6.259   5.508  2.0646  0.6486 -0.5792
 9481TIP3   OH249933   2.196   3.336   4.097  0.0517 -0.6757 -0.2836
 9481TIP3    H149934   2.179   3.424   4.063  1.3801 -0.0163  0.7211
 9481TIP3    H249935   2.221   3.285   4.020  0.1283  0.0436 -0.7406
 9482TIP3   OH249936   6.448   2.722   5.699  0.0944 -0.0910  0.1702
 9482TIP3    H149937   6.443   2.659   5.771 -0.0227  1.7014  1.7654
 9482TIP3    H249938   6.358   2.752   5.687  0.3543  0.7389  0.2909
 9483TIP3   OH249939   6.157   5.926   0.443 -0.0057 -0.2786  0.3849
 9483TIP3    H149940   6.064   5.917   0.464  0.4821 -0.9564  2.4196
 9483TIP3    H249941   6.165   6.016   0.411 -1.2454  0.0344  0.8935
 9484TIP3   OH249942   3.354   1.873  13.882  0.1012  0.0609 -1.0447
 9484TIP3    H149943   3.260   1.891  13.881 -0.0448 -0.7156 -1.5416
 9484TIP3    H249944   3.372   1.846  13.973 -0.0375  0.7775 -0.7996
 9485TIP3   OH249945   0.030   4.819   5.436  0.2054  0.0204  0.3147
 9485TIP3    H149946   0.105   4.878   5.432  0.9817 -1.0964 -3.1616
 9485TIP3    H249947   0.062   4.742   5.484  0.7728  0.2192  0.2519
 9486TIP3   OH249948   6.586   2.903   4.326  0.0044  0.2058  0.0879
 9486TIP3    H149949   6.576   2.862   4.240  3.9919 -0.7103 -0.0208
 9486TIP3    H249950   6.615   2.832   4.383 -2.2963  0.8784  2.1896
 9487TIP3   OH249951   5.796   6.024  16.343 -0.4332 -0.1856 -0.2993
 9487TIP3    H149952   5.822   6.014  16.251 -0.3950 -0.2121 -0.2861
 9487TIP3    H249953   5.703   6.044  16.339 -0.2451  0.6576 -0.3821
 9488TIP3   OH249954   6.319   2.837  14.185  0.6586 -0.8958  0.3463
 9488TIP3    H149955   6.411   2.861  14.192  1.2618 -3.2166  0.9068
 9488TIP3    H249956   6.320   2.747  14.154 -1.4927 -0.0995 -2.2031
 9489TIP3   OH249957   6.816   6.480  10.529 -0.2478  0.3805 -0.6474
 9489TIP3    H149958   6.731   6.511  10.497 -0.2611 -1.2379 -2.3034
 9489TIP3    H249959   6.809   6.484  10.624 -2.4833 -0.5194 -0.7455
 9490TIP3   OH249960   4.330   4.578   0.535  0.4536  0.0477 -0.3235
 9490TIP3    H149961   4.280   4.560   0.455 -0.6270 -2.8319  0.9442
 9490TIP3    H249962   4.418   4.545   0.517  0.7315  1.1138 -0.9713
 9491TIP3   OH249963   4.489   3.278   2.330  0.4414 -0.2836 -0.0298
 9491TIP3    H149964   4.407   3.248   2.371  1.3075 -1.0149  1.2023
 9491TIP3    H249965   4.463   3.307   2.243 -1.0646 -0.9576  0.1783
 9492TIP3   OH249966   5.459   3.839   0.419 -0.5343 -0.1427 -0.3688
 9492TIP3    H149967   5.465   3.892   0.498 -2.1561 -0.3204 -0.1002
 9492TIP3    H249968   5.503   3.890   0.352  1.7592 -0.4470  0.8568
 9493TIP3   OH249969   5.267   3.626   5.599 -0.5431  0.6598 -0.2004
 9493TIP3    H149970   5.324   3.646   5.673  0.4695 -1.0080 -0.5033
 9493TIP3    H249971   5.263   3.531   5.597 -0.4702  0.6880 -2.3647
 9494TIP3   OH249972   4.308   0.496   3.472 -0.2046  0.2158 -0.5403
 9494TIP3    H149973   4.258   0.446   3.537 -1.4757  0.0171 -1.6628
 9494TIP3    H249974   4.395   0.455   3.473 -0.2288  0.1779  0.9879
 9495TIP3   OH249975   3.351   6.602   5.627 -0.5372  0.3117 -0.5454
 9495TIP3    H149976   3.432   6.643   5.656 -0.8134  0.0912  0.5341
 9495TIP3    H249977   3.297   6.675   5.595 -0.2429  0.5525 -0.4868
 9496TIP3   OH249978   4.544   4.030  12.067 -0.0973 -0.2194 -0.5188
 9496TIP3    H149979   4.533   3.938  12.092 -1.9447 -0.1847 -1.1088
 9496TIP3    H249980   4.635   4.036  12.039  0.2722 -1.6830  0.2841
 9497TIP3   OH249981   3.843   3.706  15.303 -0.6707 -0.5273  0.1604
 9497TIP3    H149982   3.811   3.653  15.376 -0.9774 -1.9051 -0.9650
 9497TIP3    H249983   3.922   3.748  15.336 -1.6879  0.1299  1.8110
 9498TIP3   OH249984   5.185   5.598   5.001 -0.2626 -0.2292 -0.0445
 9498TIP3    H149985   5.191   5.502   5.005  0.5741 -0.1796 -0.0839
 9498TIP3    H249986   5.169   5.625   5.091 -1.2506 -0.4554 -0.1477
 9499TIP3   OH249987   4.988   1.393  16.719  0.1162  0.2885  0.1568
 9499TIP3    H149988   4.895   1.393  16.741  0.1826  0.7869  0.4574
 9499TIP3    H249989   5.031   1.423  16.799  0.5537 -0.1802  0.0956
 9500TIP3   OH249990   1.380   4.378   6.039 -0.3843 -0.5589 -0.5452
 9500TIP3    H149991   1.455   4.334   6.081 -0.4885 -2.5882 -2.4006
 9500TIP3    H249992   1.421   4.439   5.978 -0.2418  1.8470  1.8563
 9501TIP3   OH249993   5.499   3.532  14.247  0.3235  0.2602  0.3921
 9501TIP3    H149994   5.484   3.523  14.152 -1.6564 -0.2585  0.7362
 9501TIP3    H249995   5.518   3.625  14.259 -1.7321  0.7866 -0.2307
 9502TIP3   OH249996   4.094   2.991  16.610 -0.3639 -0.4207  0.0920
 9502TIP3    H149997   4.016   2.976  16.557  0.0989  0.2110 -0.7886
 9502TIP3    H249998   4.128   3.075  16.580 -0.4860  0.2998  1.9038
 9503TIP3   OH249999   2.705   3.955   3.026 -0.6120 -0.2708  0.0004
 9503TIP3    H150000   2.756   3.887   2.983 -0.1218 -0.2530  0.5614
 9503TIP3    H250001   2.735   4.036   2.984  0.3267 -0.1898  0.8226
 9504TIP3   OH250002   6.074   2.760   3.158 -0.5769 -0.0701  0.1289
 9504TIP3    H150003   6.008   2.785   3.093 -0.1330 -2.8872 -1.4947
 9504TIP3    H250004   6.023   2.735   3.235 -1.3837 -1.3011 -0.7847
 9505TIP3   OH250005   0.663   5.633  14.903 -0.9513  0.6308 -0.1230
 9505TIP3    H150006   0.712   5.655  14.823 -1.7838 -1.5272 -1.2663
 9505TIP3    H250007   0.728   5.636  14.973  0.7538 -1.6986 -1.5423
 9506TIP3   OH250008   2.624   2.806  13.901 -0.3978  0.1808  0.3965
 9506TIP3    H150009   2.619   2.859  13.981 -1.0818 -0.1442  0.5800
 9506TIP3    H250010   2.681   2.733  13.924  1.6061  1.5143 -0.2599
 9507TIP3   OH250011   3.412   5.078   1.432  0.2727 -0.0183  0.3251
 9507TIP3    H150012   3.434   5.148   1.370  0.1573  0.4828  0.8482
 9507TIP3    H250013   3.324   5.101   1.463 -1.3418 -2.3753 -2.2880
 9508TIP3   OH250014   3.159   1.281   3.151 -0.0185 -0.2053 -0.1729
 9508TIP3    H150015   3.102   1.296   3.076  0.7461 -0.4043 -0.7972
 9508TIP3    H250016   3.147   1.359   3.206  1.3404  1.1556 -1.7387
 9509TIP3   OH250017   4.692   2.559   0.106 -0.5129  0.7013  0.1404
 9509TIP3    H150018   4.762   2.623   0.100  0.8638 -0.6985  1.0913
 9509TIP3    H250019   4.702   2.520   0.193 -1.6949 -0.3902 -0.1995
 9510TIP3   OH250020   0.185   0.208  13.205  0.3826  0.0330  0.2124
 9510TIP3    H150021   0.172   0.119  13.170 -0.0822 -0.1730  0.9034
 9510TIP3    H250022   0.097   0.238  13.227  0.5678  0.5780  0.2148
 9511TIP3   OH250023   4.338   2.992   6.206  0.3575  0.3585  0.1793
 9511TIP3    H150024   4.263   2.950   6.164 -0.0446 -0.3993  1.6076
 9511TIP3    H250025   4.328   3.085   6.188 -1.2123  0.3151  0.8021
 9512TIP3   OH250026   4.177   1.163  12.856 -0.3819  0.4171  0.1048
 9512TIP3    H150027   4.115   1.184  12.926  0.8029 -0.4260  1.4444
 9512TIP3    H250028   4.133   1.096  12.803 -1.0432  0.6151  0.4028
 9513TIP3   OH250029   6.367   0.066  14.289  0.1384  0.2214 -0.1409
 9513TIP3    H150030   6.406   0.153  14.282 -0.7810  0.6531 -0.0189
 9513TIP3    H250031   6.422   0.010  14.233  0.3279  1.0280 -0.7704
 9514TIP3   OH250032   2.318   1.465   5.429  0.4080  0.3250 -0.5921
 9514TIP3    H150033   2.352   1.553   5.442  1.3148 -0.0145 -0.6357
 9514TIP3    H250034   2.388   1.419   5.382  0.5112 -0.8186  0.6533
 9515TIP3   OH250035   3.448   3.980  12.415 -0.3074  0.8961  0.4235
 9515TIP3    H150036   3.540   4.004  12.426 -0.0044  0.3945 -0.8951
 9515TIP3    H250037   3.401   4.063  12.415  0.2013  1.1845  0.6090
 9516TIP3   OH250038   0.748   2.928   0.305 -0.9162 -0.1024 -0.2364
 9516TIP3    H150039   0.759   2.930   0.400 -0.6624 -0.6778 -0.2545
 9516TIP3    H250040   0.831   2.896   0.271 -0.6484  1.1115 -0.7208
 9517TIP3   OH250041   3.141   3.611   5.347 -0.3141 -0.0505 -0.4738
 9517TIP3    H150042   3.084   3.651   5.412  0.9407  0.0454  0.5899
 9517TIP3    H250043   3.228   3.646   5.366  0.6801 -2.6983  0.0057
 9518TIP3   OH250044   6.322   2.759   4.011 -0.1526  0.2739 -0.1532
 9518TIP3    H150045   6.262   2.688   3.984 -0.5002  0.4071  0.2654
 9518TIP3    H250046   6.273   2.839   3.994 -0.9273  0.3288  2.1651
 9519TIP3   OH250047   5.246   5.533   1.276  0.3711 -0.0371  0.1597
 9519TIP3    H150048   5.170   5.585   1.303 -0.0405 -1.5440  2.0371
 9519TIP3    H250049   5.316   5.596   1.265 -0.4382  1.0645  1.1661
 9520TIP3   OH250050   4.807   5.142  15.360  0.1259  0.0273 -0.1542
 9520TIP3    H150051   4.739   5.134  15.427 -1.7271  1.2692 -1.8251
 9520TIP3    H250052   4.789   5.072  15.298  1.6271 -0.9013  0.4261
 9521TIP3   OH250053   5.561   3.499   5.908 -0.4874 -0.1483  0.2481
 9521TIP3    H150054   5.604   3.540   5.983 -0.3869  0.3943 -0.1083
 9521TIP3    H250055   5.540   3.410   5.938  0.5630 -0.2980  0.5356
 9522TIP3   OH250056   0.793   0.653  14.704  0.0310  0.2104 -0.0216
 9522TIP3    H150057   0.705   0.675  14.675 -1.0659 -0.9268  2.3379
 9522TIP3    H250058   0.836   0.737  14.717 -0.3257  0.7678 -2.2008
 9523TIP3   OH250059   0.307   3.769   1.845 -0.1620  0.1500 -0.0768
 9523TIP3    H150060   0.363   3.694   1.829 -0.2360  0.3610 -1.3382
 9523TIP3    H250061   0.351   3.842   1.802 -0.0618  0.8536  1.1871
 9524TIP3   OH250062   1.392   4.350  13.788 -0.3854  0.1414  0.0424
 9524TIP3    H150063   1.373   4.260  13.763  0.6757  0.2363 -1.1194
 9524TIP3    H250064   1.322   4.401  13.746 -1.1964 -0.1602  0.9976
 9525TIP3   OH250065   5.090   1.069   0.196 -0.0071 -0.2961  0.4229
 9525TIP3    H150066   5.010   1.069   0.248 -0.5155  1.1898 -0.3404
 9525TIP3    H250067   5.063   1.034   0.111 -0.0858  1.2020 -0.1778
 9526TIP3   OH250068   2.732   5.915   1.939  0.3221  0.3198 -0.4335
 9526TIP3    H150069   2.818   5.885   1.967  0.3054  0.0546 -0.6635
 9526TIP3    H250070   2.695   5.959   2.016  1.6089  2.5261 -1.0307
 9527TIP3   OH250071   5.677   6.356  14.170 -0.8726  0.3864  0.3828
 9527TIP3    H150072   5.623   6.358  14.249  0.6772  1.0739  1.4237
 9527TIP3    H250073   5.629   6.412  14.108 -2.3772 -0.5976  0.6134
 9528TIP3   OH250074   2.588   4.393   0.565  0.2550  0.3306  0.0131
 9528TIP3    H150075   2.584   4.352   0.478 -0.3083  2.8294 -1.1978
 9528TIP3    H250076   2.663   4.351   0.608  1.1465 -0.2706 -2.0599
 9529TIP3   OH250077   1.218   5.414  17.218 -0.6593  0.7566 -0.3143
 9529TIP3    H150078   1.129   5.449  17.223 -1.1334 -0.3407 -0.9613
 9529TIP3    H250079   1.224   5.352  17.291 -0.6649  0.2885 -0.7125
 9530TIP3   OH250080   5.141   0.739  17.197  0.5811 -0.2820 -0.1205
 9530TIP3    H150081   5.222   0.790  17.200  0.1795  0.4280 -1.1967
 9530TIP3    H250082   5.126   0.714  17.288  1.7213  0.0280  0.1684
 9531TIP3   OH250083   4.887   3.221   3.137 -0.1800 -0.3242 -0.0118
 9531TIP3    H150084   4.918   3.190   3.052 -0.5004  0.2753 -0.3586
 9531TIP3    H250085   4.888   3.317   3.128 -0.3264 -0.2670  0.6185
 9532TIP3   OH250086   1.179   1.079  16.520 -0.2807  0.8263 -0.0784
 9532TIP3    H150087   1.168   1.024  16.598  1.6673  1.1991  0.4819
 9532TIP3    H250088   1.243   1.146  16.546  2.1780 -0.4021 -2.6660
 9533TIP3   OH250089   4.169   3.496  10.503  0.5597 -0.1209  0.3628
 9533TIP3    H150090   4.236   3.565  10.498  0.0833  0.3175 -0.0298
 9533TIP3    H250091   4.107   3.527  10.569 -0.5133  0.6010 -0.9423
 9534TIP3   OH250092   0.611   5.030   0.492  0.1168 -0.1048  0.9414
 9534TIP3    H150093   0.591   4.939   0.514  0.2644 -0.1530  0.8790
 9534TIP3    H250094   0.582   5.080   0.569 -0.7461 -0.1085  0.6203
 9535TIP3   OH250095   1.872   6.756  15.579 -0.2386  0.0376 -0.0970
 9535TIP3    H150096   1.818   6.697  15.526 -0.4368 -0.4242  0.6076
 9535TIP3    H250097   1.824   6.763  15.662 -0.8360  2.1527 -0.6043
 9536TIP3   OH250098   5.180   3.263  15.924 -0.2743 -0.1739 -0.2099
 9536TIP3    H150099   5.213   3.351  15.905 -0.8172  0.2970  0.9777
 9536TIP3    H250100   5.086   3.274  15.936  0.1210 -0.3123  3.3459
 9537TIP3   OH250101   4.246   1.944  14.098  0.5015 -0.1416 -0.5273
 9537TIP3    H150102   4.304   1.972  14.169 -0.3836 -0.4707  0.3235
 9537TIP3    H250103   4.305   1.901  14.035  0.8912 -2.5015  1.3894
 9538TIP3   OH250104   2.930   4.452   1.417  0.2102  0.7888 -0.2155
 9538TIP3    H150105   2.998   4.520   1.415  0.4105  0.5737 -1.0479
 9538TIP3    H250106   2.979   4.370   1.429  0.1904  0.5440 -1.6316
 9539TIP3   OH250107   5.119   1.194  12.898  0.0805 -0.2122 -0.0919
 9539TIP3    H150108   5.120   1.289  12.913  1.7276  0.0940 -1.8905
 9539TIP3    H250109   5.058   1.183  12.825 -1.7795 -0.8091  1.5111
 9540TIP3   OH250110   5.418   5.315   1.621  0.0627  0.0626  0.2664
 9540TIP3    H150111   5.338   5.293   1.573  0.3084 -0.1908 -0.0314
 9540TIP3    H250112   5.446   5.232   1.659  1.4704 -0.3392 -1.5690
 9541TIP3   OH250113   1.107   0.228  11.795  0.7921 -0.3751  0.1374
 9541TIP3    H150114   1.146   0.151  11.755  0.0401  1.3017 -4.1405
 9541TIP3    H250115   1.160   0.301  11.762 -0.7552  1.2074  1.0982
 9542TIP3   OH250116   0.320   4.484  16.342  0.3163 -0.0110  0.1781
 9542TIP3    H150117   0.229   4.513  16.333  1.3486  3.0377 -1.1701
 9542TIP3    H250118   0.358   4.498  16.256  1.8063 -2.3287  0.4281
 9543TIP3   OH250119   0.758   4.126   6.542 -0.3153  0.4428 -0.4785
 9543TIP3    H150120   0.742   4.034   6.560 -0.9997  1.1962  3.1610
 9543TIP3    H250121   0.673   4.161   6.516 -0.5252  0.5261  0.3305
 9544TIP3   OH250122   0.289   2.007   6.163  0.7625 -0.0654  0.0096
 9544TIP3    H150123   0.298   1.919   6.200 -3.4708 -0.1752  0.9175
 9544TIP3    H250124   0.301   2.066   6.237  0.4904  0.0445 -0.0358
 9545TIP3   OH250125   0.382   2.222   3.818 -0.1826  0.2436  0.0071
 9545TIP3    H150126   0.430   2.281   3.876 -3.1386  2.3768  0.4465
 9545TIP3    H250127   0.374   2.271   3.736  0.6264 -1.1464 -0.9046
 9546TIP3   OH250128   2.198   5.828  13.497  0.0648  0.2552  0.6710
 9546TIP3    H150129   2.114   5.850  13.539 -0.2755 -2.1269  1.3039
 9546TIP3    H250130   2.258   5.897  13.526 -1.3516  1.2591  1.2681
 9547TIP3   OH250131   1.957   1.825   1.131 -0.0508 -0.3699 -0.2845
 9547TIP3    H150132   2.021   1.894   1.151  2.9755 -3.1573 -0.0523
 9547TIP3    H250133   1.984   1.790   1.047 -2.9461  0.1691 -1.5093
 9548TIP3   OH250134   6.240   1.902   0.618 -0.1216  0.3725  0.5922
 9548TIP3    H150135   6.252   1.943   0.532 -0.7820  2.2738  1.3671
 9548TIP3    H250136   6.326   1.866   0.639 -0.3055 -1.3776 -1.4768
 9549TIP3   OH250137   6.766   5.804  16.879  0.0035 -0.0721  0.0186
 9549TIP3    H150138   6.741   5.884  16.833 -0.1195  0.9315  1.7807
 9549TIP3    H250139   6.841   5.830  16.933  1.8642 -1.8747 -1.5828
 9550TIP3   OH250140   5.122   4.743   3.196  0.3169 -0.5760  0.5369
 9550TIP3    H150141   5.140   4.741   3.290  1.6456 -0.1586  0.2967
 9550TIP3    H250142   5.151   4.830   3.167 -0.1293 -0.6791 -0.2502
 9551TIP3   OH250143   6.065   6.350  13.545  0.3653 -0.0460 -0.1285
 9551TIP3    H150144   6.023   6.435  13.558 -1.0261 -0.6118 -0.7673
 9551TIP3    H250145   6.141   6.368  13.491 -1.0543  0.5231 -1.9813
 9552TIP3   OH250146   0.476   1.088  16.541  0.7141 -0.4876  0.5386
 9552TIP3    H150147   0.420   1.014  16.564  0.3980 -0.6630 -0.7380
 9552TIP3    H250148   0.433   1.164  16.581 -0.8797 -0.5054 -1.0835
 9553TIP3   OH250149   6.122   5.982  14.203 -0.0579  0.3444 -0.2418
 9553TIP3    H150150   6.091   5.935  14.126 -2.0267 -1.2430  1.4638
 9553TIP3    H250151   6.216   5.996  14.187  0.0962 -2.2436 -1.7571
 9554TIP3   OH250152   0.950   0.466   2.248 -0.1205 -0.1242  0.1243
 9554TIP3    H150153   0.907   0.513   2.319  1.3891 -0.2390  1.1340
 9554TIP3    H250154   0.945   0.374   2.275  2.4145  0.0076  1.2140
 9555TIP3   OH250155   5.407   0.209   1.980 -0.3894 -0.3414 -0.2541
 9555TIP3    H150156   5.384   0.176   2.066  0.5779  0.9604  0.5160
 9555TIP3    H250157   5.327   0.252   1.949 -0.2198  0.6746  0.7108
 9556TIP3   OH250158   1.181   5.145  13.814 -0.1241 -0.0698 -0.3713
 9556TIP3    H150159   1.118   5.123  13.883 -1.3611  1.4287 -1.0040
 9556TIP3    H250160   1.174   5.072  13.752  1.0539 -1.4641  1.0858
 9557TIP3   OH250161   0.877   3.119   6.569  0.3924 -0.2024  0.0423
 9557TIP3    H150162   0.797   3.108   6.620  0.8091 -0.1702  0.7123
 9557TIP3    H250163   0.911   3.031   6.557  1.7842 -0.0023  2.2538
 9558TIP3   OH250164   5.879   5.869  13.556  0.1465 -0.0110  0.5298
 9558TIP3    H150165   5.953   5.809  13.546  0.7095  0.5503  1.1963
 9558TIP3    H250166   5.920   5.956  13.559 -0.3496  0.1814  2.8276
 9559TIP3   OH250167   0.483   5.385   4.487  0.0313 -0.0332 -0.1843
 9559TIP3    H150168   0.568   5.359   4.450 -1.1086  0.5780 -3.4353
 9559TIP3    H250169   0.498   5.472   4.523  0.3439  0.9727 -2.6346
 9560TIP3   OH250170   2.068   0.300   5.270  0.0501  0.0279 -0.2620
 9560TIP3    H150171   2.078   0.373   5.210 -2.3637  1.0228  0.4707
 9560TIP3    H250172   2.037   0.227   5.216  0.9784 -0.0428 -0.7217
 9561TIP3   OH250173   3.760   6.012   2.557  0.6406 -0.1942  0.6894
 9561TIP3    H150174   3.778   5.938   2.500 -0.4146 -0.4015  0.6129
 9561TIP3    H250175   3.779   5.980   2.645  2.9918  0.3577  0.4148
 9562TIP3   OH250176   4.939   2.570   0.284 -1.0064 -0.4355  0.3792
 9562TIP3    H150177   4.871   2.529   0.337 -1.3919 -0.5679 -0.2219
 9562TIP3    H250178   5.010   2.588   0.347 -1.2550 -1.0512  0.8452
 9563TIP3   OH250179   2.619   4.878  16.975 -0.1153  0.2185  0.0033
 9563TIP3    H150180   2.572   4.955  16.943  0.4224  1.0790  1.2188
 9563TIP3    H250181   2.627   4.821  16.899 -0.9260  1.1657 -0.8066
 9564TIP3   OH250182   0.273   0.596  12.701  0.2509 -0.2661 -0.4608
 9564TIP3    H150183   0.336   0.582  12.631 -0.8245 -0.4039 -1.4195
 9564TIP3    H250184   0.244   0.687  12.690 -0.3867 -0.4792 -0.6101
 9565TIP3   OH250185   6.004   4.937   5.238  0.7630  0.1106  0.1985
 9565TIP3    H150186   5.955   4.995   5.296  1.1763  0.9940 -0.3158
 9565TIP3    H250187   5.938   4.899   5.179  0.6078  0.7743 -0.0581
 9566TIP3   OH250188   2.611   3.265  16.141 -0.6904  0.0583  0.1408
 9566TIP3    H150189   2.618   3.235  16.232  1.8904  0.5167  0.1188
 9566TIP3    H250190   2.579   3.355  16.148  1.0844  0.6542  0.6880
 9567TIP3   OH250191   2.466   6.406   4.790  0.4247  0.1856  0.0114
 9567TIP3    H150192   2.399   6.341   4.769  0.1745  0.8795 -1.4372
 9567TIP3    H250193   2.422   6.466   4.851 -0.0236  0.1666 -0.2838
 9568TIP3   OH250194   5.261   2.950   5.002 -0.1447 -0.0864  0.5053
 9568TIP3    H150195   5.313   2.888   5.053 -0.2318  0.0048  0.7069
 9568TIP3    H250196   5.206   2.894   4.946  0.0291 -0.1848  0.4319
 9569TIP3   OH250197   4.639   6.263   2.609  0.3187  0.5815  0.2611
 9569TIP3    H150198   4.591   6.250   2.528  2.0719 -0.4417 -0.6434
 9569TIP3    H250199   4.596   6.207   2.673 -0.4504  0.6407 -0.2046
 9570TIP3   OH250200   5.111   0.092  16.354 -0.7143 -0.2937 -0.2481
 9570TIP3    H150201   5.079   0.129  16.437  2.4017  0.6105  0.6179
 9570TIP3    H250202   5.071   0.145  16.286  0.0909  1.7866  0.8558
 9571TIP3   OH250203   2.063   0.242  13.430 -0.1645  0.4489 -0.4475
 9571TIP3    H150204   2.145   0.278  13.464 -0.5158  2.1411 -1.3059
 9571TIP3    H250205   2.017   0.318  13.394 -1.7011 -0.6229 -0.8062
 9572TIP3   OH250206   4.226   4.052   0.373  0.3136  0.2691  0.3804
 9572TIP3    H150207   4.169   4.029   0.301  1.0007 -0.6292  0.1168
 9572TIP3    H250208   4.240   3.970   0.421  1.0848  0.5498  0.6499
 9573TIP3   OH250209   1.396   1.958   1.288 -0.0055 -0.5392 -0.5733
 9573TIP3    H150210   1.338   1.999   1.224  0.2833  1.7872  0.6040
 9573TIP3    H250211   1.382   2.008   1.369  1.5119 -1.7797  0.4818
 9574TIP3   OH250212   0.760   2.769   3.401  0.2597  0.1930 -1.0626
 9574TIP3    H150213   0.802   2.686   3.377 -0.3629  0.0248 -1.5755
 9574TIP3    H250214   0.681   2.772   3.347 -0.3099  0.5802 -0.2195
 9575TIP3   OH250215   1.773   6.464  12.578  0.2550 -0.3363 -0.1059
 9575TIP3    H150216   1.785   6.458  12.483  1.4191 -1.1050  0.0909
 9575TIP3    H250217   1.717   6.541  12.590  0.3856 -0.0363 -1.3844
 9576TIP3   OH250218   1.181   3.267  11.777 -0.4443  0.2967 -0.3118
 9576TIP3    H150219   1.226   3.351  11.775  1.3614 -0.6756 -1.3293
 9576TIP3    H250220   1.225   3.217  11.846 -1.2048  0.0119 -0.0204
 9577TIP3   OH250221   1.199   4.228  14.476  0.0549  0.0536 -0.0753
 9577TIP3    H150222   1.170   4.207  14.387  0.1706  1.5042 -0.4585
 9577TIP3    H250223   1.179   4.321  14.486  0.2806 -0.0483  1.3314
 9578TIP3   OH250224   3.592   2.278   3.114  0.2008  0.1110 -0.6228
 9578TIP3    H150225   3.651   2.209   3.082 -1.7959 -1.8230 -0.2368
 9578TIP3    H250226   3.507   2.256   3.077 -0.8376  1.3617  0.9696
 9579TIP3   OH250227   1.865   1.009  16.415 -0.0076  0.2526 -0.1001
 9579TIP3    H150228   1.794   0.988  16.355  0.2320 -0.4312 -0.1511
 9579TIP3    H250229   1.864   1.104  16.422 -0.2318  0.3118 -0.9527
 9580TIP3   OH250230   5.341   1.254   6.598  0.3559 -0.4197  0.0666
 9580TIP3    H150231   5.399   1.196   6.647 -0.1465  0.7948  2.1599
 9580TIP3    H250232   5.296   1.197   6.536  0.8309 -2.0283  1.1852
 9581TIP3   OH250233   1.747   5.308   6.667  0.5938  0.0401  0.3389
 9581TIP3    H150234   1.661   5.273   6.690  1.1497 -1.4280  0.2489
 9581TIP3    H250235   1.761   5.278   6.577 -0.3353  3.3054 -0.9607
 9582TIP3   OH250236   2.230   2.843  16.317  0.5537 -0.3249  0.0813
 9582TIP3    H150237   2.197   2.753  16.320  1.3960 -0.7157 -1.7016
 9582TIP3    H250238   2.263   2.853  16.228  0.8307  1.6307  0.3889
 9583TIP3   OH250239   5.476   5.910   0.448  0.0709  0.0770 -0.3017
 9583TIP3    H150240   5.507   5.983   0.501 -0.5293 -0.0373  0.2161
 9583TIP3    H250241   5.452   5.950   0.364  1.8037  0.1270 -0.7845
 9584TIP3   OH250242   2.799   3.027  11.402 -0.2898 -0.1719  0.9411
 9584TIP3    H150243   2.721   2.975  11.382  0.9242 -1.8783  0.5222
 9584TIP3    H250244   2.779   3.114  11.368 -1.3955 -0.9922 -0.5804
 9585TIP3   OH250245   4.814   6.780   4.918 -0.2088  0.1577 -0.4584
 9585TIP3    H150246   4.750   6.852   4.917  0.8043  1.0566 -0.8301
 9585TIP3    H250247   4.760   6.701   4.928 -1.2838  1.0112  0.7275
 9586TIP3   OH250248   2.754   6.005   5.672 -0.0578  0.4109  0.0817
 9586TIP3    H150249   2.812   6.081   5.665  1.6024 -0.7719  0.6613
 9586TIP3    H250250   2.685   6.033   5.732 -0.1362  1.8637 -0.6593
 9587TIP3   OH250251   2.629   5.688  12.354 -0.6369 -0.4626  0.0582
 9587TIP3    H150252   2.578   5.612  12.327 -0.0756 -0.7905 -0.0863
 9587TIP3    H250253   2.564   5.756  12.369 -1.3040 -1.4021  1.6724
 9588TIP3   OH250254   0.589   1.189   2.090  0.1915 -0.3051 -0.0337
 9588TIP3    H150255   0.503   1.149   2.098  0.1838 -0.2610  0.1043
 9588TIP3    H250256   0.584   1.269   2.143  0.3953 -0.4328  0.1816
 9589TIP3   OH250257   3.598   0.319   5.466 -0.0019 -0.1072  0.3506
 9589TIP3    H150258   3.603   0.358   5.379  0.1147  0.0687  0.4364
 9589TIP3    H250259   3.640   0.233   5.456 -1.6952 -0.8908 -0.2278
 9590TIP3   OH250260   3.302   4.412  11.255 -0.2724 -0.0476  0.3517
 9590TIP3    H150261   3.308   4.497  11.212 -0.7005 -0.0157  0.3460
 9590TIP3    H250262   3.225   4.419  11.312  1.0105  0.3316  2.0900
 9591TIP3   OH250263   4.121   5.453   5.565  0.6661 -0.0110 -0.6620
 9591TIP3    H150264   4.183   5.503   5.619 -0.3827  0.8165 -0.1922
 9591TIP3    H250265   4.167   5.372   5.544  1.0100 -0.4288  1.6468
 9592TIP3   OH250266   3.438   5.830   1.193  0.0157  0.3760 -0.3729
 9592TIP3    H150267   3.343   5.846   1.193 -0.0235  0.1579 -0.7206
 9592TIP3    H250268   3.449   5.756   1.133  0.3175 -0.1595  0.3407
 9593TIP3   OH250269   2.702   4.046   4.720  0.5213 -0.2665 -0.4356
 9593TIP3    H150270   2.737   4.131   4.746  3.9874 -1.7013 -0.2021
 9593TIP3    H250271   2.649   4.018   4.795 -0.2711  1.4630 -0.3319
 9594TIP3   OH250272   0.757   2.899  15.660  0.1400  0.1940  0.3079
 9594TIP3    H150273   0.746   2.806  15.641 -1.2201  0.5172 -0.5366
 9594TIP3    H250274   0.841   2.905  15.705  0.0335 -1.4922  0.7335
 9595TIP3   OH250275   0.465   3.416   0.460  0.0596  0.1103 -0.4237
 9595TIP3    H150276   0.543   3.364   0.441  0.2006  0.8916 -2.1582
 9595TIP3    H250277   0.495   3.506   0.455 -0.2988  0.3867  2.0313
 9596TIP3   OH250278   4.297   0.122  14.878 -0.1761 -0.0218 -0.4360
 9596TIP3    H150279   4.223   0.173  14.845  0.6656  2.1270  0.9149
 9596TIP3    H250280   4.283   0.118  14.972  0.6018 -0.9912 -0.3572
 9597TIP3   OH250281   3.989   6.389  16.191  0.1258  0.2464 -0.1058
 9597TIP3    H150282   3.975   6.464  16.250  0.0463 -0.4226  0.7386
 9597TIP3    H250283   3.911   6.386  16.136  0.2335  0.9229 -0.3009
 9598TIP3   OH250284   3.367   1.673  16.779  0.2046  0.5180  0.1078
 9598TIP3    H150285   3.414   1.606  16.829 -1.1438 -0.2420  0.3663
 9598TIP3    H250286   3.421   1.686  16.701  0.8822 -0.3047  0.4277
 9599TIP3   OH250287   6.527   2.197   2.966  0.1333 -0.1021 -0.5172
 9599TIP3    H150288   6.613   2.185   3.005 -0.2893  0.2211  0.5423
 9599TIP3    H250289   6.542   2.256   2.892  0.8491 -0.2305 -0.4801
 9600TIP3   OH250290   2.221   6.264   5.484 -0.1387 -0.1037 -0.1096
 9600TIP3    H150291   2.164   6.216   5.424  0.8435 -0.2668 -0.9149
 9600TIP3    H250292   2.222   6.353   5.449 -1.4312  0.3639  1.0066
 9601TIP3   OH250293   2.176   2.030  12.242  0.0076 -0.0654 -0.3192
 9601TIP3    H150294   2.147   1.976  12.169  0.9845  1.0968 -1.5807
 9601TIP3    H250295   2.114   2.103  12.244  0.6828  0.5104 -0.7048
 9602TIP3   OH250296   5.844   2.562   2.055 -0.2214  0.7626 -0.0625
 9602TIP3    H150297   5.769   2.509   2.082 -0.4888  0.2724 -1.7091
 9602TIP3    H250298   5.805   2.639   2.014  0.1782  0.8001 -0.3658
 9603TIP3   OH250299   4.098   2.356  17.050  0.1076 -0.1853  0.1192
 9603TIP3    H150300   4.026   2.368  17.112  0.5930  1.2823  0.4285
 9603TIP3    H250301   4.055   2.338  16.967 -0.6157  0.1433  0.4141
 9604TIP3   OH250302   1.158   1.359   6.151 -0.4127 -0.0855  0.2444
 9604TIP3    H150303   1.129   1.346   6.242 -3.1465 -0.2552 -0.6127
 9604TIP3    H250304   1.078   1.379   6.103  0.9483 -0.3876 -2.2306
 9605TIP3   OH250305   3.843   6.625  16.793  0.1485 -0.4036  0.5008
 9605TIP3    H150306   3.937   6.635  16.812  0.5090 -1.8162 -0.4643
 9605TIP3    H250307   3.835   6.654  16.702 -0.1907 -1.1428  0.2944
 9606TIP3   OH250308   0.603   5.343  16.413  0.5495  0.0068 -0.1180
 9606TIP3    H150309   0.650   5.369  16.491 -0.2399 -3.0117  1.4537
 9606TIP3    H250310   0.511   5.360  16.433  0.3875 -0.3136 -0.5692
 9607TIP3   OH250311   2.259   0.494  13.240 -0.1012 -0.1348  0.1600
 9607TIP3    H150312   2.224   0.545  13.313  0.4959  0.1747  0.2367
 9607TIP3    H250313   2.273   0.407  13.276  0.9138  0.2152  0.6338
 9608TIP3   OH250314   1.446   0.587   4.019 -0.4355 -0.4718  0.1931
 9608TIP3    H150315   1.396   0.665   4.044  0.9793  0.0390  1.4485
 9608TIP3    H250316   1.529   0.621   3.985 -0.8164 -1.3285 -1.6814
 9609TIP3   OH250317   5.053   5.478  17.133  0.0138  0.0539 -0.6216
 9609TIP3    H150318   5.011   5.427  17.202 -2.2302  0.3774 -1.7243
 9609TIP3    H250319   5.089   5.413  17.073  0.0455 -0.2100 -0.3198
 9610TIP3   OH250320   1.446   2.759  14.294  0.2300 -0.2346  0.1801
 9610TIP3    H150321   1.503   2.710  14.353 -1.1110  0.2930  1.9629
 9610TIP3    H250322   1.370   2.701  14.281  0.6446 -0.4770 -1.2991
 9611TIP3   OH250323   1.423   5.332  13.395  0.3912  0.4015 -0.2519
 9611TIP3    H150324   1.392   5.260  13.450  0.2744  0.9574  0.4105
 9611TIP3    H250325   1.417   5.410  13.451  0.1065  0.9996 -1.1101
 9612TIP3   OH250326   4.534   4.448   0.991 -0.6205  0.2845  0.4274
 9612TIP3    H150327   4.535   4.524   1.050  0.5668  1.3649 -0.9470
 9612TIP3    H250328   4.481   4.477   0.917 -1.0573 -0.6262  0.3783
 9613TIP3   OH250329   4.871   4.974   0.776  0.0799 -0.4454 -0.3243
 9613TIP3    H150330   4.911   4.999   0.693 -3.0782 -0.4341 -1.9391
 9613TIP3    H250331   4.793   5.030   0.782 -0.3556 -1.2741  2.0637
 9614TIP3   OH250332   6.695   3.184   4.013 -0.1401 -0.1967  0.5678
 9614TIP3    H150333   6.621   3.201   4.071 -0.4267 -0.1625  0.1890
 9614TIP3    H250334   6.663   3.118   3.952 -0.3907  1.0067 -0.6246
 9615TIP3   OH250335   2.011   6.791  13.515 -0.0154  0.6580  0.0176
 9615TIP3    H150336   2.025   6.876  13.472 -0.9209 -0.2574 -2.1801
 9615TIP3    H250337   2.077   6.788  13.584  3.9034  0.7876 -3.4906
 9616TIP3   OH250338   4.456   0.830   4.221  0.0382 -0.5097 -0.1966
 9616TIP3    H150339   4.374   0.784   4.201 -0.4881  0.3834 -0.1137
 9616TIP3    H250340   4.447   0.914   4.177  0.2488  0.2013  1.1068
 9617TIP3   OH250341   1.066   3.076  14.248 -0.3405  0.5562 -0.3206
 9617TIP3    H150342   0.996   3.123  14.202 -0.6630  1.2653  0.8466
 9617TIP3    H250343   1.144   3.092  14.195 -1.0393 -0.1821 -1.5986
 9618TIP3   OH250344   1.837   1.391   6.531 -0.1704 -0.0864 -0.2092
 9618TIP3    H150345   1.926   1.357   6.529 -0.1504 -0.0218 -0.3550
 9618TIP3    H250346   1.785   1.318   6.567  0.1049  0.2388  0.8757
 9619TIP3   OH250347   6.285   4.383   1.110  0.0016 -0.1650  0.0085
 9619TIP3    H150348   6.373   4.346   1.104 -0.4331 -1.2414  0.2500
 9619TIP3    H250349   6.296   4.463   1.161  0.4590 -1.5503  2.1326
 9620TIP3   OH250350   4.806   5.311  15.959  0.3125  0.1722 -0.1489
 9620TIP3    H150351   4.746   5.365  15.908 -0.9136  0.7500  1.8574
 9620TIP3    H250352   4.893   5.348  15.942 -0.4532  2.5047  0.8113
 9621TIP3   OH250353   6.626   0.225  13.741 -0.1494 -0.0652 -0.1855
 9621TIP3    H150354   6.607   0.280  13.666  1.1553  2.2920  1.1724
 9621TIP3    H250355   6.675   0.281  13.801  0.8444 -2.5632  1.4305
 9622TIP3   OH250356   3.714   4.247   4.296  0.1054  0.3945  0.4329
 9622TIP3    H150357   3.701   4.184   4.367 -1.2940 -0.9317 -0.9289
 9622TIP3    H250358   3.640   4.307   4.304  0.3860  0.7194  0.5786
 9623TIP3   OH250359   2.362   1.138   1.234  0.0572 -0.0956  0.3339
 9623TIP3    H150360   2.377   1.077   1.307  0.1710 -0.8320 -0.2987
 9623TIP3    H250361   2.449   1.159   1.201 -0.0768 -1.5493 -1.0317
 9624TIP3   OH250362   0.549   3.885   3.365  0.0157  0.0343  0.1303
 9624TIP3    H150363   0.467   3.912   3.406  0.8427  0.9570  1.1907
 9624TIP3    H250364   0.608   3.959   3.377  0.9372 -0.5159 -0.8640
 9625TIP3   OH250365   3.214   5.120  16.675 -0.1737 -0.2448  0.3061
 9625TIP3    H150366   3.153   5.186  16.709 -1.2455  0.0079 -2.0708
 9625TIP3    H250367   3.292   5.170  16.651  0.3493 -0.3432  1.6989
 9626TIP3   OH250368   2.440   5.566   1.317  0.4505  0.0348 -0.2980
 9626TIP3    H150369   2.451   5.512   1.395 -0.8656 -0.8347 -0.7066
 9626TIP3    H250370   2.391   5.642   1.348 -0.5819 -0.5890 -0.3867
 9627TIP3   OH250371   4.885   4.638   6.103 -0.2185 -0.3759 -0.0238
 9627TIP3    H150372   4.818   4.584   6.062 -1.2969  2.5277 -2.2368
 9627TIP3    H250373   4.836   4.709   6.144  1.3962  0.9932 -0.4240
 9628TIP3   OH250374   0.769   0.760   4.651 -0.1246 -0.0432 -0.1005
 9628TIP3    H150375   0.853   0.781   4.610 -0.3852  0.8036 -0.1999
 9628TIP3    H250376   0.707   0.759   4.578 -0.7330  2.2381  0.3634
 9629TIP3   OH250377   3.725   4.057   5.405 -0.3687  0.1337  0.4542
 9629TIP3    H150378   3.671   4.105   5.342 -1.2646  2.7781  3.0824
 9629TIP3    H250379   3.663   4.020   5.468  0.4790 -2.7319 -0.3214
 9630TIP3   OH250380   1.901   6.528   5.584  0.4007  0.1726 -0.2747
 9630TIP3    H150381   1.909   6.482   5.500 -2.1598  0.2974 -0.6325
 9630TIP3    H250382   1.929   6.617   5.565  2.0763 -0.3644 -0.4150
 9631TIP3   OH250383   3.703   5.889  14.260 -0.0727  0.0337  0.4569
 9631TIP3    H150384   3.789   5.930  14.244 -0.5770  1.1363  0.5193
 9631TIP3    H250385   3.717   5.835  14.337  0.6180  0.0826  0.3711
 9632TIP3   OH250386   0.662   6.479  11.806 -0.1736 -0.2962  0.5942
 9632TIP3    H150387   0.659   6.384  11.820 -1.2391 -0.1929  1.0774
 9632TIP3    H250388   0.751   6.495  11.774  0.5493 -1.2459  2.0689
 9633TIP3   OH250389   2.460   1.295  12.648  0.4493 -1.1000 -0.0171
 9633TIP3    H150390   2.479   1.246  12.568 -0.9973 -0.9008 -0.5047
 9633TIP3    H250391   2.365   1.287  12.658  0.4236  0.1863  0.8338
 9634TIP3   OH250392   2.630   1.494   5.623  0.1265 -0.1590  0.3925
 9634TIP3    H150393   2.686   1.522   5.695 -0.7907  0.6394  0.8128
 9634TIP3    H250394   2.555   1.553   5.627  0.9778  1.1744 -2.4361
 9635TIP3   OH250395   6.074   2.992   4.704 -0.2803  0.5623 -0.1825
 9635TIP3    H150396   6.135   2.917   4.705 -0.8912  0.0363  2.4647
 9635TIP3    H250397   5.987   2.952   4.700 -0.5402  1.2143 -1.0403
 9636TIP3   OH250398   4.009   6.416  15.913  0.0388 -0.2088 -0.2007
 9636TIP3    H150399   4.069   6.367  15.856 -1.7351 -0.0711 -2.2191
 9636TIP3    H250400   4.050   6.411  16.000  4.6471  2.5909 -2.0255
 9637TIP3   OH250401   1.697   6.597  14.040 -0.4561 -0.1863 -0.6230
 9637TIP3    H150402   1.731   6.671  13.990  1.4433 -0.8648 -0.3818
 9637TIP3    H250403   1.670   6.635  14.123  0.7511  0.2314 -0.3978
 9638TIP3   OH250404   2.127   5.897   0.489 -0.8036 -0.0725 -0.6931
 9638TIP3    H150405   2.145   5.803   0.480  0.0018  0.1123 -1.0715
 9638TIP3    H250406   2.164   5.936   0.410 -0.4865  0.6536 -0.1863
 9639TIP3   OH250407   0.490   4.855   3.641  0.4630  0.1094 -0.3598
 9639TIP3    H150408   0.561   4.827   3.699  1.6026 -0.4750 -1.9716
 9639TIP3    H250409   0.427   4.783   3.644  0.6222 -0.0148 -0.0010
 9640TIP3   OH250410   5.983   5.685   3.495 -0.4284 -0.1267 -0.3895
 9640TIP3    H150411   5.932   5.621   3.445 -0.4200  0.1225 -0.7158
 9640TIP3    H250412   5.918   5.735   3.544 -0.5214  0.4528 -1.1118
 9641TIP3   OH250413   2.449   5.581   4.674 -0.4862 -0.5004  0.0259
 9641TIP3    H150414   2.470   5.642   4.745 -2.1978 -0.1163  0.2226
 9641TIP3    H250415   2.531   5.535   4.657  0.6028  1.2376  0.4813
 9642TIP3   OH250416   2.574   5.885   0.480 -0.1719 -0.2857  0.4121
 9642TIP3    H150417   2.581   5.964   0.426  1.5407 -0.2112  0.7142
 9642TIP3    H250418   2.586   5.813   0.418 -0.2211 -0.2561  0.3684
 9643TIP3   OH250419   3.558   3.522  15.619  0.1347  0.0702 -0.1514
 9643TIP3    H150420   3.485   3.492  15.672 -0.4795  0.5860 -0.6923
 9643TIP3    H250421   3.583   3.446  15.566 -0.0495 -0.0883 -0.0101
 9644TIP3   OH250422   4.057   1.016  13.722  0.1941  0.5385 -0.0185
 9644TIP3    H150423   4.064   1.090  13.782  0.3742  0.6151 -0.1362
 9644TIP3    H250424   4.077   0.939  13.775 -1.7500  0.3904  0.5487
 9645TIP3   OH250425   1.218   6.268   2.116 -0.3394  0.0453 -0.0218
 9645TIP3    H150426   1.194   6.188   2.162 -0.1348  0.2859  0.5144
 9645TIP3    H250427   1.298   6.298   2.160 -0.3646  0.4940 -0.2738
 9646TIP3   OH250428   1.243   2.573   4.336 -0.0894  0.5609 -0.1167
 9646TIP3    H150429   1.287   2.501   4.290  2.8663  0.9920  1.8634
 9646TIP3    H250430   1.194   2.530   4.406 -2.0287  0.1493 -1.7102
 9647TIP3   OH250431   4.685   4.748  11.492  0.0493 -0.6199  0.4773
 9647TIP3    H150432   4.733   4.774  11.413 -2.0183 -0.1543 -0.6590
 9647TIP3    H250433   4.727   4.667  11.519  4.0941  1.7569  1.8472
 9648TIP3   OH250434   5.422   3.168  10.477 -0.1865 -0.5092 -0.3194
 9648TIP3    H150435   5.515   3.161  10.453 -0.5735 -1.2457 -1.5984
 9648TIP3    H250436   5.375   3.122  10.408 -1.4482 -1.0367  0.8625
 9649TIP3   OH250437   2.726   3.210  11.638 -0.0652 -0.0311  0.4247
 9649TIP3    H150438   2.803   3.188  11.585  0.0803 -0.0102  0.6300
 9649TIP3    H250439   2.745   3.296  11.675  0.8321 -1.0400  2.3816
 9650TIP3   OH250440   4.436   4.635   3.287 -0.8928 -0.3300 -0.1942
 9650TIP3    H150441   4.488   4.624   3.366 -0.5680 -1.2049 -0.5166
 9650TIP3    H250442   4.479   4.706   3.239 -1.3553  0.5005  0.6234
 9651TIP3   OH250443   6.398   4.317  12.322 -0.2110 -0.1660  0.2266
 9651TIP3    H150444   6.378   4.394  12.376  1.8743 -0.0808  0.9239
 9651TIP3    H250445   6.336   4.323  12.249 -0.6018  1.7492  0.6728
 9652TIP3   OH250446   0.810   3.191   3.347 -0.0430 -0.2571  0.0330
 9652TIP3    H150447   0.842   3.179   3.436  2.7439 -0.3057 -0.9128
 9652TIP3    H250448   0.731   3.137   3.343 -0.2150 -0.2555  2.4589
 9653TIP3   OH250449   0.053   3.974  15.932  0.2060  0.7036 -0.2280
 9653TIP3    H150450   0.038   4.057  15.977  1.2010  1.1438 -0.6922
 9653TIP3    H250451   0.108   3.996  15.857  0.7533 -0.4218 -0.1752
 9654TIP3   OH250452   3.636   3.634   3.995 -0.8499 -0.2859 -0.1807
 9654TIP3    H150453   3.609   3.542   4.006  0.0106 -0.6104 -0.7554
 9654TIP3    H250454   3.715   3.629   3.942 -1.0457  0.8247 -0.5765
 9655TIP3   OH250455   0.502   5.167   1.893  0.4351  0.3054 -0.1821
 9655TIP3    H150456   0.409   5.185   1.902  0.4247  0.2329 -0.1357
 9655TIP3    H250457   0.531   5.148   1.983  0.7833  1.6876  0.0085
 9656TIP3   OH250458   6.648   2.029   4.552 -0.1738 -0.1427 -0.2892
 9656TIP3    H150459   6.643   1.934   4.569  1.7863 -0.2026  0.0712
 9656TIP3    H250460   6.716   2.038   4.486 -0.5109  1.0072 -0.4862
 9657TIP3   OH250461   4.594   5.780   2.891 -0.9460  0.0627 -0.1188
 9657TIP3    H150462   4.580   5.794   2.797 -1.1928  0.5830 -0.0065
 9657TIP3    H250463   4.665   5.716   2.896 -0.5775  0.4238 -0.6551
 9658TIP3   OH250464   0.542   1.378  12.303 -0.1301  0.3116 -0.1757
 9658TIP3    H150465   0.477   1.354  12.369  1.5564 -0.9774  1.0962
 9658TIP3    H250466   0.515   1.331  12.224  0.5609 -2.2074  1.0189
 9659TIP3   OH250467   5.475   6.356   2.024  0.0766 -0.1658  0.5189
 9659TIP3    H150468   5.468   6.448   2.000  0.5976 -0.3204 -0.2379
 9659TIP3    H250469   5.568   6.341   2.035  0.1658 -1.0881 -1.3313
 9660TIP3   OH250470   5.121   4.383  15.147 -0.3012  0.2703 -0.7489
 9660TIP3    H150471   5.068   4.462  15.163  0.7747  1.2050 -1.6830
 9660TIP3    H250472   5.059   4.318  15.116 -1.2347  0.6966  0.1705
 9661TIP3   OH250473   2.951   4.344  11.656  0.4283 -0.6468  0.4359
 9661TIP3    H150474   2.865   4.334  11.617  0.8870 -1.7320 -0.3231
 9661TIP3    H250475   2.982   4.430  11.627 -0.2244 -0.4346  0.3763
 9662TIP3   OH250476   0.206   4.115   0.022  0.9539  0.0263 -0.1432
 9662TIP3    H150477   0.222   4.068   0.104  0.1863  1.5901  0.9293
 9662TIP3    H250478   0.263   4.192   0.027  1.2369 -0.1133 -1.2734
 9663TIP3   OH250479   5.887   5.999  12.499  0.5321 -0.1840 -0.3852
 9663TIP3    H150480   5.824   6.015  12.428  2.9746  0.0667 -2.5838
 9663TIP3    H250481   5.913   5.907  12.488 -0.0899 -0.5402  1.0522
 9664TIP3   OH250482   1.652   4.515   0.004 -0.1503 -0.1745  0.3295
 9664TIP3    H150483   1.724   4.519  -0.059 -1.7621  1.7948 -1.4765
 9664TIP3    H250484   1.683   4.566   0.079  0.6469 -0.0274 -0.0953
 9665TIP3   OH250485   4.708   1.771  17.186 -0.0037  0.4083  0.2172
 9665TIP3    H150486   4.682   1.841  17.126  0.5714  0.9492  0.5794
 9665TIP3    H250487   4.635   1.762  17.246 -1.0274 -0.8620 -1.1931
 9666TIP3   OH250488   6.399   0.202   0.404  0.7819  0.4659  0.1539
 9666TIP3    H150489   6.333   0.271   0.409  0.9768  0.4420  3.6412
 9666TIP3    H250490   6.471   0.242   0.355  0.6910  2.5794  1.6930
 9667TIP3   OH250491   2.675   4.020   3.917 -0.1467 -0.2415  0.0708
 9667TIP3    H150492   2.588   4.041   3.950  0.0641  0.7152  0.0311
 9667TIP3    H250493   2.672   4.042   3.824  0.2636  0.1970  0.1592
 9668TIP3   OH250494   0.005   4.611  13.392 -0.1638  0.4595  0.3676
 9668TIP3    H150495  -0.059   4.648  13.453 -1.3398  0.4991 -0.8548
 9668TIP3    H250496  -0.030   4.633  13.306  0.7046 -0.8757 -0.3367
 9669TIP3   OH250497   6.808   3.978   2.315 -0.3330  0.8361  0.0264
 9669TIP3    H150498   6.798   4.037   2.240  3.2593 -1.1775 -2.1685
 9669TIP3    H250499   6.901   3.985   2.338 -0.8381 -0.5408  2.6587
 9670TIP3   OH250500   6.378   4.586   3.029 -0.5396 -0.9168  0.0047
 9670TIP3    H150501   6.442   4.560   2.963 -1.2436 -2.0634 -0.2464
 9670TIP3    H250502   6.303   4.617   2.979 -0.7583 -1.0056  0.2729
 9671TIP3   OH250503   0.707   0.371   2.061  0.5147 -0.0104  0.5920
 9671TIP3    H150504   0.798   0.365   2.089  0.2108  1.1045  1.9346
 9671TIP3    H250505   0.661   0.406   2.138 -0.7286  1.1696 -0.6506
 9672TIP3   OH250506   1.291   2.468  11.457 -0.5278 -0.3926 -0.1315
 9672TIP3    H150507   1.214   2.501  11.410 -0.9157 -0.8398  0.1861
 9672TIP3    H250508   1.274   2.375  11.469 -0.8065 -0.1486  1.5742
 9673TIP3   OH250509   3.431   0.605  13.728 -0.5709  0.0534 -0.2532
 9673TIP3    H150510   3.444   0.689  13.772 -0.5822 -0.2292  0.2895
 9673TIP3    H250511   3.403   0.628  13.639 -1.7677  0.6004  0.2674
 9674TIP3   OH250512   6.033   3.229  14.442 -0.0485 -0.0815  0.1830
 9674TIP3    H150513   5.997   3.300  14.390  0.2966  0.5654  0.8119
 9674TIP3    H250514   5.956   3.188  14.483 -0.0710  1.6104  1.9206
 9675TIP3   OH250515   6.679   5.555   5.876  0.3790  0.0602 -0.8695
 9675TIP3    H150516   6.718   5.608   5.946  0.0617 -0.5484 -0.2236
 9675TIP3    H250517   6.683   5.611   5.798  0.2304  0.9557 -0.2395
 9676TIP3   OH250518   4.718   2.426  11.375 -0.1546 -0.0465 -0.1930
 9676TIP3    H150519   4.635   2.381  11.356  0.7197 -1.9064  0.2695
 9676TIP3    H250520   4.723   2.495  11.309 -2.4841  0.6641  0.3127
 9677TIP3   OH250521   2.636   6.057   0.269 -0.6263 -0.2313  0.5415
 9677TIP3    H150522   2.727   6.030   0.256 -1.1950 -2.2648  0.6346
 9677TIP3    H250523   2.597   6.052   0.182 -1.0376 -0.9025  0.7594
 9678TIP3   OH250524   6.037   0.468   2.945 -0.1974  0.0191  0.1506
 9678TIP3    H150525   6.098   0.518   2.999 -0.6972  1.5253 -0.6755
 9678TIP3    H250526   6.015   0.391   2.999  1.1131  0.3163  1.1271
 9679TIP3   OH250527   0.907   1.997  14.499 -0.3576 -0.1077 -0.1822
 9679TIP3    H150528   0.973   1.930  14.517 -0.3121 -0.0321 -0.0616
 9679TIP3    H250529   0.858   2.004  14.582  0.5029  0.9725  0.2477
 9680TIP3   OH250530   2.401   3.309  13.772  0.3041 -0.0969  0.2926
 9680TIP3    H150531   2.315   3.326  13.809 -0.0665 -0.3991 -0.4384
 9680TIP3    H250532   2.419   3.384  13.715  1.3283  0.8964  1.8717
 9681TIP3   OH250533   1.604   0.063   0.451  0.0634  0.0662 -0.4973
 9681TIP3    H150534   1.625   0.101   0.536  0.3277  1.4659 -1.1583
 9681TIP3    H250535   1.690   0.042   0.412 -0.0869 -1.3960 -0.0686
 9682TIP3   OH250536   0.818   6.731   2.094 -0.3591 -0.4819 -0.6328
 9682TIP3    H150537   0.898   6.681   2.078  1.1006  0.8939  2.0562
 9682TIP3    H250538   0.762   6.673   2.144  0.2396 -0.3553  0.1856
 9683TIP3   OH250539   1.267   1.882   4.717 -0.1644  0.1846 -0.6858
 9683TIP3    H150540   1.234   1.908   4.804 -1.0595 -1.9042 -0.3768
 9683TIP3    H250541   1.196   1.906   4.657 -0.4161 -0.2702 -0.5728
 9684TIP3   OH250542   3.104   1.256   4.001 -0.0841 -0.4567 -0.5902
 9684TIP3    H150543   3.056   1.238   4.081  1.3519  0.7239  0.5597
 9684TIP3    H250544   3.194   1.228   4.020  0.0103 -1.3092 -2.2064
 9685TIP3   OH250545   6.744   4.856   5.756 -0.1650 -0.2126  0.6938
 9685TIP3    H150546   6.791   4.938   5.740 -0.0286 -0.5207 -0.5204
 9685TIP3    H250547   6.778   4.825   5.840  1.0283  0.1134  0.3362
 9686TIP3   OH250548   1.961   6.100  15.582  0.3579 -0.3135  0.0220
 9686TIP3    H150549   1.939   6.174  15.639  2.1550  0.9945 -0.9346
 9686TIP3    H250550   1.927   6.125  15.496 -1.1496 -1.6917  0.1839
 9687TIP3   OH250551   4.833   0.341  16.683  0.2692 -0.2733  0.4430
 9687TIP3    H150552   4.863   0.419  16.730  0.3943  0.1452 -0.3369
 9687TIP3    H250553   4.766   0.373  16.623  1.1235 -0.5895 -0.6921
 9688TIP3   OH250554   4.839   2.882  11.946  0.6904  0.5310  0.4460
 9688TIP3    H150555   4.746   2.900  11.954  0.5826  0.0227  0.3423
 9688TIP3    H250556   4.879   2.968  11.933 -0.1361  0.4459 -3.1211
 9689TIP3   OH250557   3.768   5.243  15.770  0.1829  0.5173 -0.5649
 9689TIP3    H150558   3.843   5.303  15.764 -0.2372  1.1807  0.6337
 9689TIP3    H250559   3.697   5.291  15.727 -0.0942  0.7905  0.1893
 9690TIP3   OH250560   6.168   1.149   5.631  0.2861 -0.7947 -0.4086
 9690TIP3    H150561   6.088   1.104   5.657 -0.2617 -0.8380 -2.1438
 9690TIP3    H250562   6.170   1.144   5.536  1.0900  1.3328 -0.5471
 9691TIP3   OH250563   0.318   3.399   5.426 -0.2566 -0.1667  0.2481
 9691TIP3    H150564   0.322   3.306   5.407  1.8280 -0.0280 -0.1055
 9691TIP3    H250565   0.271   3.405   5.509  0.4355 -1.6144  0.7561
 9692TIP3   OH250566   1.337   3.477  12.046  0.2464  0.2625 -0.5812
 9692TIP3    H150567   1.405   3.414  12.071 -0.0310  0.6082  1.1414
 9692TIP3    H250568   1.369   3.561  12.079 -1.1290  0.3861  0.5011
 9693TIP3   OH250569   0.751   2.875   2.827  0.4910  0.5186  0.3423
 9693TIP3    H150570   0.827   2.931   2.838  0.0328  1.1321  0.4621
 9693TIP3    H250571   0.676   2.934   2.843 -0.0033 -0.0300  0.0526
 9694TIP3   OH250572   2.871   3.407  15.949  0.5205 -0.0518  0.9041
 9694TIP3    H150573   2.949   3.417  15.895  0.3608  1.7875  0.9741
 9694TIP3    H250574   2.805   3.372  15.889  0.6457  0.9531  0.1600
 9695TIP3   OH250575   5.280   2.853   0.775  0.0522 -0.1520  0.2746
 9695TIP3    H150576   5.229   2.849   0.695 -0.5333 -0.6389  0.6671
 9695TIP3    H250577   5.216   2.872   0.844  0.8271  2.2788  0.3658
 9696TIP3   OH250578   6.228   5.141   3.146  0.2615  0.6394  0.4099
 9696TIP3    H150579   6.299   5.097   3.194  0.4950  1.0552  0.4494
 9696TIP3    H250580   6.257   5.232   3.139  0.4895  0.4679 -1.0182
 9697TIP3   OH250581   3.190   1.424   4.440 -0.4680  0.0434  0.1445
 9697TIP3    H150582   3.178   1.354   4.503 -0.0252  1.4689  1.8396
 9697TIP3    H250583   3.103   1.442   4.405 -0.6551 -0.9727  0.0824
 9698TIP3   OH250584   1.131   2.697   5.869  0.4093 -0.5417  0.4308
 9698TIP3    H150585   1.046   2.685   5.825  1.2847 -2.1118 -0.8846
 9698TIP3    H250586   1.138   2.791   5.880 -0.1833 -0.1449 -2.1699
 9699TIP3   OH250587   3.997   5.549   4.361  0.2505  0.0082  0.2860
 9699TIP3    H150588   4.010   5.616   4.428  2.0327 -0.2463  0.2410
 9699TIP3    H250589   4.006   5.466   4.408  0.2290 -0.1822 -0.0412
 9700TIP3   OH250590   0.921   0.928  12.596 -0.2235 -0.0051 -0.8184
 9700TIP3    H150591   0.866   0.977  12.657 -1.0078 -0.0397 -1.4898
 9700TIP3    H250592   1.003   0.915  12.643  0.1327  2.2457 -0.7361
 9701TIP3   OH250593   6.292   0.457   0.038  0.5429  0.0267 -0.4716
 9701TIP3    H150594   6.208   0.412   0.031  1.7951 -3.0175  2.5503
 9701TIP3    H250595   6.271   0.542   0.077 -1.1707 -0.4184 -0.3814
 9702TIP3   OH250596   2.416   5.316   5.431  0.7499 -0.1527 -0.8985
 9702TIP3    H150597   2.487   5.252   5.429  0.0063 -0.9624 -1.5504
 9702TIP3    H250598   2.336   5.264   5.423 -0.0012  0.6335  0.9599
 9703TIP3   OH250599   5.033   3.337   0.277  0.3222  0.3805  0.5788
 9703TIP3    H150600   5.022   3.258   0.225 -1.4093  1.5925 -0.9305
 9703TIP3    H250601   4.959   3.393   0.253  0.2387  1.5378  3.3109
 9704TIP3   OH250602   0.733   3.379   5.922 -0.7638  0.4963 -0.6730
 9704TIP3    H150603   0.709   3.413   6.008 -1.5740  1.1018 -1.1350
 9704TIP3    H250604   0.762   3.290   5.939 -0.3459  0.8143  0.3110
 9705TIP3   OH250605   4.105   0.493  14.572  0.1829  0.4951 -0.5603
 9705TIP3    H150606   4.200   0.500  14.569  0.2107 -0.2702 -1.6819
 9705TIP3    H250607   4.085   0.413  14.522 -0.8602 -0.7838  1.7963
 9706TIP3   OH250608   5.737   6.305  12.286 -0.3522  0.5412 -0.3307
 9706TIP3    H150609   5.790   6.372  12.329 -1.7058  1.2319  0.2600
 9706TIP3    H250610   5.790   6.278  12.210  2.2144 -0.9429  1.8964
 9707TIP3   OH250611   1.397   6.056  16.847 -0.5353 -0.2939 -0.0434
 9707TIP3    H150612   1.362   5.971  16.821 -1.1171  0.7871 -2.9360
 9707TIP3    H250613   1.491   6.048  16.833 -0.8302  0.2504 -2.5806
 9708TIP3   OH250614   3.281   5.340  16.060  0.2268 -0.0719 -0.3198
 9708TIP3    H150615   3.329   5.340  16.142 -0.1914 -1.3183 -0.0666
 9708TIP3    H250616   3.327   5.276  16.005  0.3469  0.5586 -0.9625
 9709TIP3   OH250617   1.570   1.594   4.307  0.1654 -0.0985  0.5829
 9709TIP3    H150618   1.523   1.627   4.384  0.4617  1.7097  0.0269
 9709TIP3    H250619   1.596   1.673   4.260  0.2521 -1.1795 -1.2234
 9710TIP3   OH250620   0.130   3.516   3.589  0.3257  0.7688  0.2939
 9710TIP3    H150621   0.140   3.480   3.501 -0.1750  0.0802  0.5228
 9710TIP3    H250622   0.097   3.444   3.642  0.3992  1.2458  0.9998
 9711TIP3   OH250623   1.657   6.611  11.263  0.1115  0.2207  0.4798
 9711TIP3    H150624   1.623   6.540  11.209 -0.0549 -0.7050  1.7759
 9711TIP3    H250625   1.716   6.659  11.206  0.1888 -0.9288 -0.4212
 9712TIP3   OH250626   2.893   6.686   1.021  0.0911  0.1508 -0.0671
 9712TIP3    H150627   2.824   6.619   1.021  0.8106 -0.5943  0.1296
 9712TIP3    H250628   2.847   6.767   1.041 -1.3072  0.2673 -3.4194
 9713TIP3   OH250629   6.343   6.445  11.956  0.1326 -0.2500  0.5476
 9713TIP3    H150630   6.427   6.404  11.935  0.0938 -1.1542  2.0386
 9713TIP3    H250631   6.367   6.518  12.014  0.1296  1.3704 -1.4316
 9714TIP3   OH250632   3.512   2.324  15.560 -0.6496 -0.0016  0.1838
 9714TIP3    H150633   3.507   2.350  15.468  1.3799  2.0130  0.5966
 9714TIP3    H250634   3.572   2.249  15.561 -0.7828 -0.1135 -0.1341
 9715TIP3   OH250635   0.246   1.032   5.066 -0.1830 -0.5814  0.2552
 9715TIP3    H150636   0.251   1.085   5.145 -0.6796  0.1615 -0.2052
 9715TIP3    H250637   0.153   1.020   5.051 -0.1188  0.0970 -0.7491
 9716TIP3   OH250638   0.842   4.951  14.320 -0.2268  0.8351 -0.2275
 9716TIP3    H150639   0.771   4.912  14.371 -0.5917  1.6392 -0.1129
 9716TIP3    H250640   0.811   4.949  14.230  0.5083 -0.7848 -0.4594
 9717TIP3   OH250641   1.723   0.929  13.094 -0.5313 -0.5490  0.2802
 9717TIP3    H150642   1.701   0.926  13.187  1.8255 -0.9258  0.8412
 9717TIP3    H250643   1.724   0.837  13.067 -0.5112 -0.4821  0.0537
 9718TIP3   OH250644   0.051   4.577  14.298  0.0595 -0.3859 -0.4849
 9718TIP3    H150645   0.076   4.639  14.230 -2.0348 -0.1731 -1.0945
 9718TIP3    H250646  -0.026   4.532  14.263 -0.2718 -1.1900  1.2068
 9719TIP3   OH250647   5.870   2.314  16.459  0.4979  0.0830 -0.1223
 9719TIP3    H150648   5.850   2.312  16.365 -0.4162  2.2790  0.0054
 9719TIP3    H250649   5.883   2.222  16.482  1.4466 -0.4375 -2.5405
 9720TIP3   OH250650   1.085   6.585  12.185 -0.8303 -0.5792 -0.1785
 9720TIP3    H150651   1.055   6.647  12.118 -0.5226  1.0642  1.1420
 9720TIP3    H250652   1.044   6.616  12.266  0.0562 -1.5645  0.6608
 9721TIP3   OH250653   5.035   0.424  14.204 -0.3426  0.0617  0.0302
 9721TIP3    H150654   5.009   0.480  14.131 -0.9904  0.4653  0.5564
 9721TIP3    H250655   5.036   0.336  14.168  1.3877  0.4850 -0.9992
 9722TIP3   OH250656   4.107   4.909  17.059 -0.1066  0.6845 -0.2927
 9722TIP3    H150657   4.069   4.831  17.097 -1.4034  2.9444  3.2871
 9722TIP3    H250658   4.201   4.902  17.077 -0.1088 -0.4015 -0.6987
 9723TIP3   OH250659   1.801   4.927   5.605 -0.0166 -0.1318  0.2743
 9723TIP3    H150660   1.734   4.974   5.654 -0.8396 -1.5749  0.5783
 9723TIP3    H250661   1.757   4.846   5.577  0.7082  0.2272 -2.0278
 9724TIP3   OH250662   2.383   2.447   3.110 -0.1708  0.0416  0.1563
 9724TIP3    H150663   2.296   2.407   3.104  1.3095 -3.8868  2.7655
 9724TIP3    H250664   2.380   2.498   3.192  0.1009 -0.3945  0.4370
 9725TIP3   OH250665   3.303   2.346   3.361  0.1231 -0.4407  0.5852
 9725TIP3    H150666   3.283   2.367   3.452  0.0908 -1.8410  0.9127
 9725TIP3    H250667   3.398   2.338   3.358  0.2349  0.8346  0.2082
 9726TIP3   OH250668   2.156   6.743  13.917  0.3288  0.2907  0.1411
 9726TIP3    H150669   2.181   6.793  13.839  0.6266 -0.2882 -0.1409
 9726TIP3    H250670   2.067   6.772  13.937  0.3444  0.6287 -0.2602
 9727TIP3   OH250671   4.940   2.755   2.634 -0.1252 -0.5388  0.1892
 9727TIP3    H150672   5.003   2.758   2.705  1.3394  0.1097 -1.1210
 9727TIP3    H250673   4.969   2.683   2.578 -0.9099 -0.6498 -0.0874
 9728TIP3   OH250674   2.223   1.378   5.695  0.5530  0.2564 -0.6909
 9728TIP3    H150675   2.247   1.414   5.610  0.7537 -1.9284 -1.5928
 9728TIP3    H250676   2.161   1.309   5.675 -1.3297  1.3603  1.1493
 9729TIP3   OH250677   6.759   5.016  16.694  0.5638  0.0307  0.3093
 9729TIP3    H150678   6.718   4.949  16.638  1.8571 -3.1373  2.9642
 9729TIP3    H250679   6.690   5.043  16.754  1.1428 -2.1642  2.0185
 9730TIP3   OH250680   0.968   5.179   4.666 -0.1510 -0.2752  0.4998
 9730TIP3    H150681   1.028   5.244   4.703  0.8081 -1.9411  1.9263
 9730TIP3    H250682   0.900   5.169   4.732 -1.3526  0.6655 -0.5650
 9731TIP3   OH250683   5.351   6.333   5.070 -0.3640 -0.1324  0.3573
 9731TIP3    H150684   5.277   6.297   5.119 -0.6934  0.9689  0.6711
 9731TIP3    H250685   5.312   6.371   4.991  0.2001 -2.2099 -0.9670
 9732TIP3   OH250686   3.105   2.314  11.496 -0.4830  0.0419 -0.4200
 9732TIP3    H150687   3.128   2.407  11.500  1.1348 -0.2543 -2.1548
 9732TIP3    H250688   3.136   2.286  11.410 -2.2055 -1.7850 -0.4624
 9733TIP3   OH250689   5.824   2.965   4.765 -0.0523 -0.7295 -0.1550
 9733TIP3    H150690   5.743   2.929   4.729  0.7978 -0.8335 -2.0088
 9733TIP3    H250691   5.813   3.060   4.759  0.0818 -0.7461 -0.7150
 9734TIP3   OH250692   5.658   6.786  12.259  0.4125 -0.5971  0.3093
 9734TIP3    H150693   5.727   6.750  12.202  0.1456 -1.4635  0.5210
 9734TIP3    H250694   5.702   6.851  12.313  0.2778  1.7756 -2.3073
 9735TIP3   OH250695   3.486   2.881  15.048 -0.5101  0.7755 -1.0486
 9735TIP3    H150696   3.488   2.786  15.059  0.3758  0.9429  0.3584
 9735TIP3    H250697   3.453   2.894  14.959 -2.1843 -0.7882 -0.6748
 9736TIP3   OH250698   3.587   3.695  14.323  0.4417 -0.1778  0.0447
 9736TIP3    H150699   3.532   3.748  14.265 -1.0836 -0.5503  1.1102
 9736TIP3    H250700   3.575   3.605  14.293 -0.3887 -0.3760  0.9603
 9737TIP3   OH250701   5.739   0.797   1.998 -0.1658 -0.1702  0.4242
 9737TIP3    H150702   5.672   0.798   1.929 -0.2465  0.1667  0.5086
 9737TIP3    H250703   5.690   0.786   2.079 -0.2160  1.3981  0.6032
 9738TIP3   OH250704   3.080   3.816  12.441  0.0495 -0.0460 -0.6275
 9738TIP3    H150705   3.083   3.739  12.384  0.7700  0.0038 -0.6626
 9738TIP3    H250706   3.084   3.891  12.381  0.7160  0.0077 -0.5158
 9739TIP3   OH250707   3.989   1.370  14.955 -0.6841 -0.4978 -0.0950
 9739TIP3    H150708   4.064   1.339  15.005 -1.4840 -0.6415  1.0223
 9739TIP3    H250709   4.027   1.425  14.886  0.2792  1.4614  1.9617
 9740TIP3   OH250710   1.958   6.021   5.871  0.5031  0.1105  0.1642
 9740TIP3    H150711   1.996   6.037   5.784 -1.8559  2.7955 -0.4323
 9740TIP3    H250712   1.903   5.944   5.859  2.1314 -1.0601 -0.0548
 9741TIP3   OH250713   0.399   0.395  13.257  0.0850  0.4675  0.2036
 9741TIP3    H150714   0.433   0.324  13.203 -0.8748  0.6674 -0.6906
 9741TIP3    H250715   0.320   0.358  13.298  0.1112  0.7149  0.4754
 9742TIP3   OH250716   6.611   0.424  13.546  0.8144 -0.0128  0.2535
 9742TIP3    H150717   6.551   0.451  13.476  1.4346 -0.5773 -0.5119
 9742TIP3    H250718   6.663   0.502  13.565  2.4500 -0.5283 -1.7926
 9743TIP3   OH250719   2.056   2.188  15.580  0.0941  0.0437  0.1908
 9743TIP3    H150720   2.148   2.161  15.579 -0.3360 -1.5309  0.5285
 9743TIP3    H250721   2.022   2.162  15.495 -0.4805 -1.0885  0.7446
 9744TIP3   OH250722   1.868   1.873  17.057  0.2945 -0.1168  0.0170
 9744TIP3    H150723   1.927   1.809  17.095  0.6428  0.9035  1.2014
 9744TIP3    H250724   1.837   1.831  16.976 -0.1659 -2.1417  1.1897
 9745TIP3   OH250725   2.231   0.166  17.222  0.3585  0.1654  0.2176
 9745TIP3    H150726   2.282   0.126  17.151  0.4106 -0.1293  0.4189
 9745TIP3    H250727   2.151   0.114  17.227  0.0516  0.6100 -0.0788
 9746TIP3   OH250728   4.969   2.806   3.256  0.4034  0.0367 -0.3743
 9746TIP3    H150729   5.008   2.760   3.331 -0.4282 -1.6435 -0.9406
 9746TIP3    H250730   5.005   2.761   3.180 -0.2847  0.4588 -0.9544
 9747TIP3   OH250731   4.188   4.526   2.089  0.1806  0.5957 -0.6996
 9747TIP3    H150732   4.231   4.611   2.104  0.6705 -0.1064  2.0367
 9747TIP3    H250733   4.258   4.462   2.100 -1.1625 -0.4593  2.2132
 9748TIP3   OH250734   2.433   2.916  14.701  0.2383  0.3892  0.3606
 9748TIP3    H150735   2.346   2.905  14.661  1.1785 -0.5772 -1.4337
 9748TIP3    H250736   2.456   3.007  14.682 -0.5052  0.7568  1.1413
 9749TIP3   OH250737   4.451   6.300   1.666 -0.1895  0.2166  0.1336
 9749TIP3    H150738   4.505   6.378   1.650  0.9394 -0.2730  1.3734
 9749TIP3    H250739   4.502   6.250   1.730 -1.0592 -1.3843 -0.4208
 9750TIP3   OH250740   4.876   5.016   5.633 -0.0297  0.4926  0.7757
 9750TIP3    H150741   4.908   5.068   5.707  2.0198 -1.8063  1.5852
 9750TIP3    H250742   4.953   4.999   5.580 -1.0588  0.1113 -0.6395
 9751TIP3   OH250743   3.337   1.945  12.034  0.4961  0.0511 -0.5697
 9751TIP3    H150744   3.299   1.974  11.951  1.4566  0.9213 -0.7267
 9751TIP3    H250745   3.271   1.967  12.100  0.5301  1.1486 -0.8802
 9752TIP3   OH250746   5.492   4.503  14.861 -0.0349 -0.3105 -0.2168
 9752TIP3    H150747   5.492   4.409  14.880 -1.0264 -0.6507 -1.8133
 9752TIP3    H250748   5.417   4.538  14.910 -1.0109 -0.7471 -1.3692
 9753TIP3   OH250749   6.670   5.115   5.436 -0.3093  0.3679  0.1471
 9753TIP3    H150750   6.737   5.179   5.462  0.4348 -1.1330  2.0062
 9753TIP3    H250751   6.590   5.147   5.477  0.1268 -0.0373  1.3436
 9754TIP3   OH250752   1.986   4.956  14.278  0.2588  0.5186  0.1771
 9754TIP3    H150753   1.950   4.974  14.191 -0.8243  0.7895  0.6650
 9754TIP3    H250754   2.065   4.905  14.261  1.8224  3.2597 -1.1069
 9755TIP3   OH250755   2.474   3.928   3.167 -0.3523 -0.4954  0.3253
 9755TIP3    H150756   2.503   3.843   3.200  2.1987  1.2924  2.8708
 9755TIP3    H250757   2.541   3.953   3.104  0.3990  0.8423  1.6278
 9756TIP3   OH250758   5.221   6.163   3.698 -0.4814 -0.3350  0.5323
 9756TIP3    H150759   5.240   6.144   3.790 -2.4428  0.3445  1.1234
 9756TIP3    H250760   5.290   6.224   3.671 -0.2634 -0.0126  1.7635
 9757TIP3   OH250761   0.252   4.344   3.293  0.3818 -0.5234 -0.5125
 9757TIP3    H150762   0.211   4.337   3.207 -0.1924  0.7599 -0.3431
 9757TIP3    H250763   0.316   4.415   3.284 -0.6729  0.5710  0.5021
 9758TIP3   OH250764   1.172   5.996   2.208  0.0470 -0.6285 -0.0220
 9758TIP3    H150765   1.247   5.947   2.174 -0.7429 -1.3069 -0.8256
 9758TIP3    H250766   1.176   5.985   2.303  0.6378 -1.1208 -0.1049
 9759TIP3   OH250767   4.849   4.864  15.506  0.5076 -0.0339  1.0150
 9759TIP3    H150768   4.896   4.785  15.531  1.0555 -0.0380 -0.0340
 9759TIP3    H250769   4.914   4.918  15.462 -0.6475 -0.3759 -1.1542
 9760TIP3   OH250770   3.377   6.304   2.476 -0.2920 -0.2166  0.4688
 9760TIP3    H150771   3.360   6.231   2.535 -2.2173 -0.5827 -0.5017
 9760TIP3    H250772   3.470   6.321   2.485  0.2677 -3.0637  0.3815
 9761TIP3   OH250773   3.065   0.208   3.768 -0.3742 -0.0977  0.0277
 9761TIP3    H150774   3.157   0.234   3.773 -1.2091  2.7038  1.6007
 9761TIP3    H250775   3.025   0.270   3.707 -0.8960 -2.4839 -2.1570
 9762TIP3   OH250776   6.443   5.576   3.469  0.2089  0.3874  0.3880
 9762TIP3    H150777   6.420   5.634   3.396 -1.0406  1.0145  1.2645
 9762TIP3    H250778   6.375   5.590   3.534  1.1693 -0.3565  1.5918
 9763TIP3   OH250779   2.307   5.315   2.226  0.4477  0.6693  0.1309
 9763TIP3    H150780   2.248   5.244   2.201 -0.5109  1.2077  0.8507
 9763TIP3    H250781   2.283   5.388   2.168  1.8072  0.2503 -0.9970
 9764TIP3   OH250782   4.171   0.406  11.246  0.0601  0.0317  0.2484
 9764TIP3    H150783   4.201   0.425  11.157  0.0586  0.2277  0.2891
 9764TIP3    H250784   4.077   0.424  11.244  0.0780  0.1336  0.3145
 9765TIP3   OH250785   3.851   1.294  17.172 -0.1632 -0.1514  0.1645
 9765TIP3    H150786   3.890   1.364  17.225  0.1281 -0.5299  0.4472
 9765TIP3    H250787   3.777   1.337  17.127  1.3387  0.8909 -1.3655
 9766TIP3   OH250788   0.885   1.850  13.366  0.4616 -0.5366 -0.1384
 9766TIP3    H150789   0.963   1.803  13.335  0.2048 -0.4050 -1.0118
 9766TIP3    H250790   0.899   1.861  13.460  0.9594 -1.5286 -0.0876
 9767TIP3   OH250791   2.617   0.967   4.167 -0.2241  0.8309  0.0694
 9767TIP3    H150792   2.630   0.941   4.076  0.1395  1.8776 -0.1929
 9767TIP3    H250793   2.551   0.907   4.201  1.0927 -0.8358 -0.2955
 9768TIP3   OH250794   6.024   0.245  14.833 -0.5963  0.0854 -0.2446
 9768TIP3    H150795   6.097   0.277  14.779 -0.2507  0.4101  0.4079
 9768TIP3    H250796   6.002   0.160  14.796  0.7015 -0.4095  0.1073
 9769TIP3   OH250797   4.277   3.656   4.070 -0.1461  0.1399 -0.9417
 9769TIP3    H150798   4.334   3.630   4.142  0.3694  1.0884 -0.9905
 9769TIP3    H250799   4.195   3.609   4.086  0.7744 -1.5459 -1.0979
 9770TIP3   OH250800   1.326   4.088  16.476  0.1696  0.2011  0.1781
 9770TIP3    H150801   1.389   4.111  16.545  0.5116 -2.0047  0.6185
 9770TIP3    H250802   1.249   4.141  16.496  0.6821  0.4333  1.5912
 9771TIP3   OH250803   3.829   1.871   3.083  0.2319 -0.3649  0.7192
 9771TIP3    H150804   3.923   1.858   3.094  0.7302  2.3091 -0.0784
 9771TIP3    H250805   3.812   1.958   3.120 -1.4938  0.2104 -1.2923
 9772TIP3   OH250806   0.915   1.968   5.774 -0.1862 -0.0163  0.3261
 9772TIP3    H150807   0.881   1.883   5.748  1.2299 -0.4272 -0.2304
 9772TIP3    H250808   1.005   1.969   5.742 -0.5689  2.2065 -0.7882
 9773TIP3   OH250809   2.712   0.028  11.785 -0.6415 -0.1097 -0.3418
 9773TIP3    H150810   2.717   0.122  11.806 -1.7652 -0.1055 -0.0531
 9773TIP3    H250811   2.619   0.013  11.765 -0.5004 -1.2056 -0.1885
 9774TIP3   OH250812   0.025   6.134  11.734 -0.2517 -0.0253  0.1115
 9774TIP3    H150813   0.120   6.117  11.730 -0.7124 -3.0580  0.5674
 9774TIP3    H250814   0.015   6.198  11.804  1.6278  2.0123 -1.3915
 9775TIP3   OH250815   4.979   0.608   3.690 -0.8680  0.0441 -0.2835
 9775TIP3    H150816   4.923   0.616   3.613 -2.6387  2.0432  1.1688
 9775TIP3    H250817   4.936   0.541   3.744  0.4627 -1.4842 -1.0387
 9776TIP3   OH250818   2.500   3.535   5.977  0.2850  0.1969 -0.2398
 9776TIP3    H150819   2.410   3.541   6.010 -0.1574 -1.9087 -1.0200
 9776TIP3    H250820   2.507   3.447   5.941  3.5976 -0.7208  2.4198
 9777TIP3   OH250821   3.363   0.407  12.401 -0.3892 -0.2878 -0.6063
 9777TIP3    H150822   3.402   0.405  12.314 -0.3010  0.2859 -0.5796
 9777TIP3    H250823   3.312   0.488  12.403 -0.4034 -0.3061 -0.1285
 9778TIP3   OH250824   4.248   5.929  16.294  0.3690 -0.5949  1.1631
 9778TIP3    H150825   4.338   5.925  16.262  0.1078 -0.6657  0.4272
 9778TIP3    H250826   4.230   6.023  16.302 -0.2202 -0.5187 -0.7977
 9779TIP3   OH250827   3.582   6.650   5.382 -0.0759 -0.0877 -0.5324
 9779TIP3    H150828   3.614   6.685   5.465  2.2028  1.2494 -1.9098
 9779TIP3    H250829   3.651   6.589   5.355 -0.6656 -0.2934 -1.5881
 9780TIP3   OH250830   3.707   4.222   1.881 -0.2026  0.0838 -0.3211
 9780TIP3    H150831   3.781   4.198   1.938  1.0144  1.0684 -1.4425
 9780TIP3    H250832   3.670   4.300   1.922  1.7986  1.8735 -1.7788
 9781TIP3   OH250833   6.627   6.773  13.689  0.0977  0.2124 -0.3509
 9781TIP3    H150834   6.598   6.863  13.701  0.1041  0.1791 -0.0840
 9781TIP3    H250835   6.711   6.768  13.735 -0.4182 -0.2180  0.5684
 9782TIP3   OH250836   4.642   5.592  13.075  0.4965  0.3234 -0.4854
 9782TIP3    H150837   4.636   5.629  13.163 -0.3691 -1.0193  0.0359
 9782TIP3    H250838   4.660   5.499  13.090  0.2143  0.0643 -1.7274
 9783TIP3   OH250839   3.388   4.498  15.458  0.2865 -0.5537  0.1015
 9783TIP3    H150840   3.294   4.480  15.452 -0.0088  0.4321  1.4632
 9783TIP3    H250841   3.392   4.587  15.496  1.7775 -1.7858  2.9875
 9784TIP3   OH250842   4.490   5.383  15.525 -0.0378  0.2481 -0.4249
 9784TIP3    H150843   4.540   5.304  15.503 -0.6541 -0.0879 -0.6267
 9784TIP3    H250844   4.426   5.354  15.590  1.5393  1.1679  1.5782
 9785TIP3   OH250845   0.083   6.369   2.402  0.1901  0.0006  0.8150
 9785TIP3    H150846   0.050   6.458   2.391 -1.0533 -0.5885 -0.3697
 9785TIP3    H250847   0.006   6.318   2.428  0.8701 -0.7574  1.3818
 9786TIP3   OH250848   3.351   3.497  15.824  0.2117  0.4740 -0.1795
 9786TIP3    H150849   3.271   3.446  15.812  1.4337 -2.1664  2.2053
 9786TIP3    H250850   3.325   3.568  15.882 -0.2200 -1.0005  1.4954
 9787TIP3   OH250851   4.680   5.652   4.507 -0.1271  0.5408  0.2795
 9787TIP3    H150852   4.740   5.720   4.537 -0.4786  1.3018 -0.6904
 9787TIP3    H250853   4.593   5.686   4.527 -0.2226 -1.6459  3.9489
 9788TIP3   OH250854   6.069   4.844   3.996  0.0338 -0.1975  0.3320
 9788TIP3    H150855   6.055   4.882   3.909 -0.5270  2.5184  1.5695
 9788TIP3    H250856   6.156   4.876   4.022  0.6546 -1.8668  0.3576
 9789TIP3   OH250857   3.788   1.762   0.084  0.0481  0.5254 -0.4006
 9789TIP3    H150858   3.779   1.667   0.092  1.2617  0.4742  0.5219
 9789TIP3    H250859   3.727   1.786   0.015 -0.3421 -0.9172 -0.5780
 9790TIP3   OH250860   6.359   1.593   6.130 -0.6605  0.1513  0.1645
 9790TIP3    H150861   6.273   1.622   6.159 -1.0117  1.4354 -2.0483
 9790TIP3    H250862   6.421   1.651   6.175 -1.0713  0.7168 -0.0001
 9791TIP3   OH250863   3.717   3.980   4.820 -0.2380 -0.2935 -0.2075
 9791TIP3    H150864   3.629   3.943   4.829 -0.1848 -0.7149 -1.3764
 9791TIP3    H250865   3.716   4.025   4.736  0.4985  0.1837  0.0314
 9792TIP3   OH250866   0.828   4.274  16.852 -0.2391  0.2676  0.1396
 9792TIP3    H150867   0.783   4.250  16.771 -1.4548  0.3116  0.8046
 9792TIP3    H250868   0.920   4.250  16.835 -0.3560  0.8761 -1.4831
 9793TIP3   OH250869   3.508   4.429   5.513  0.0579 -0.1393  0.0079
 9793TIP3    H150870   3.422   4.470   5.514  0.6204  1.0945 -0.0427
 9793TIP3    H250871   3.518   4.394   5.425  0.4676  1.6493 -0.6756
 9794TIP3   OH250872   5.304   1.652   5.021  0.1097  0.2369  0.4404
 9794TIP3    H150873   5.244   1.641   5.094  0.7887 -0.4812  0.8973
 9794TIP3    H250874   5.352   1.569   5.016  1.8693  1.1944  0.8334
 9795TIP3   OH250875   6.179   1.998  11.875  0.4325  0.0468 -0.4192
 9795TIP3    H150876   6.106   2.037  11.828  0.8476  0.0480 -1.0586
 9795TIP3    H250877   6.254   2.006  11.816  1.4144  1.8334  1.0128
 9796TIP3   OH250878   5.599   6.783  14.742 -0.3155  0.0197  0.3213
 9796TIP3    H150879   5.512   6.805  14.775 -0.2598  1.0486 -0.2053
 9796TIP3    H250880   5.601   6.818  14.653  1.1208  1.2524  0.8183
 9797TIP3   OH250881   5.238   3.051  10.305  0.0833 -0.1300  0.5840
 9797TIP3    H150882   5.279   2.967  10.323  0.1101 -0.4492 -0.9189
 9797TIP3    H250883   5.163   3.031  10.249 -0.8979  0.6753  1.5729
 9798TIP3   OH250884   0.425   3.815   3.794 -0.1092  0.4650 -0.0663
 9798TIP3    H150885   0.521   3.817   3.797 -0.1066  0.6201 -0.2857
 9798TIP3    H250886   0.399   3.906   3.809 -0.2928  0.0053  2.7152
 9799TIP3   OH250887   5.465   6.559   1.836 -0.5261  0.1772  0.0842
 9799TIP3    H150888   5.500   6.648   1.830 -1.1156  0.4233  0.2170
 9799TIP3    H250889   5.495   6.515   1.757 -1.1442  0.8292 -0.5183
 9800TIP3   OH250890   5.589   2.772  14.004 -0.1086  0.1656  0.0050
 9800TIP3    H150891   5.620   2.825  13.931 -0.3214 -0.8422 -0.8342
 9800TIP3    H250892   5.592   2.831  14.079  3.5942  0.2124 -0.0707
 9801TIP3   OH250893   3.455   4.048  16.865  0.0606 -0.5117 -0.7882
 9801TIP3    H150894   3.474   4.085  16.952 -2.6102  0.4592 -0.5623
 9801TIP3    H250895   3.380   4.099  16.834  0.3168 -1.5800 -3.2146
 9802TIP3   OH250896   0.536   3.102  17.224 -0.3870  0.2823 -0.9587
 9802TIP3    H150897   0.444   3.087  17.202 -0.6342  2.2072 -1.2960
 9802TIP3    H250898   0.583   3.032  17.179 -1.6184 -0.3041 -1.3592
 9803TIP3   OH250899   3.816   3.810   2.921 -0.3406  0.2553  0.5307
 9803TIP3    H150900   3.864   3.730   2.897 -0.5186 -0.2037  1.6836
 9803TIP3    H250901   3.724   3.785   2.914 -0.4267  1.0478 -1.3775
 9804TIP3   OH250902   2.210   2.535   0.325  0.6380 -0.1109 -0.2062
 9804TIP3    H150903   2.239   2.615   0.368  1.2760  0.2871 -1.3687
 9804TIP3    H250904   2.283   2.474   0.336  1.0018  0.1555 -1.1674
 9805TIP3   OH250905   4.808   6.144  14.818  0.1035  0.1326  0.1561
 9805TIP3    H150906   4.820   6.066  14.763 -0.1164  0.6970 -0.7029
 9805TIP3    H250907   4.745   6.117  14.884  3.1514 -1.7055  2.4315
 9806TIP3   OH250908   5.611   2.055   4.844  0.0441  0.2112 -0.2713
 9806TIP3    H150909   5.594   1.992   4.915 -1.8667  0.4177 -0.5138
 9806TIP3    H250910   5.596   2.005   4.764  0.7335  0.3771 -0.5032
 9807TIP3   OH250911   1.453   0.747   0.759  0.4456 -0.0664  0.3393
 9807TIP3    H150912   1.373   0.712   0.799 -0.3959  1.8670  0.4245
 9807TIP3    H250913   1.426   0.780   0.674  1.5059 -0.8876 -0.3306
 9808TIP3   OH250914   0.845   2.372   0.937  0.0495  0.1136  0.1365
 9808TIP3    H150915   0.764   2.419   0.916  0.2237  0.8677  1.1185
 9808TIP3    H250916   0.833   2.285   0.899 -1.9892 -0.3670  1.8013
 9809TIP3   OH250917   3.646   1.742  14.979  0.3909  0.2756 -0.1356
 9809TIP3    H150918   3.556   1.738  14.947  0.4039  0.9261 -0.2466
 9809TIP3    H250919   3.692   1.675  14.928  0.1851  0.6177 -0.7762
 9810TIP3   OH250920   2.475   0.466  15.561  0.1289 -0.3774 -0.1865
 9810TIP3    H150921   2.476   0.539  15.624  1.0568 -0.7968  0.2925
 9810TIP3    H250922   2.412   0.404  15.598 -1.2111  0.4907 -0.9667
 9811TIP3   OH250923   6.259   1.155  11.645 -0.5330  0.4673 -0.4160
 9811TIP3    H150924   6.263   1.196  11.559 -0.6656 -1.5107 -1.3947
 9811TIP3    H250925   6.297   1.220  11.704  0.1053  1.6199 -2.0499
 9812TIP3   OH250926   4.253   1.413  13.566 -0.3773  0.0054  0.7394
 9812TIP3    H150927   4.299   1.378  13.490 -2.0296  0.8499 -0.6909
 9812TIP3    H250928   4.240   1.506  13.545  0.4793  0.5952  2.7315
 9813TIP3   OH250929   2.465   5.250  10.425 -0.7405 -0.4493  0.1800
 9813TIP3    H150930   2.531   5.181  10.418 -2.1269 -1.7174 -0.6643
 9813TIP3    H250931   2.426   5.237  10.511  2.2642  2.3351  2.0917
 9814TIP3   OH250932   1.291   4.289  15.975  0.5755 -0.1552  0.1239
 9814TIP3    H150933   1.231   4.253  15.910  0.9831 -0.1878 -0.2391
 9814TIP3    H250934   1.318   4.215  16.028  0.3640 -0.1553  0.2287
 9815TIP3   OH250935   0.609   0.190  16.278  0.4176 -0.0845 -0.1480
 9815TIP3    H150936   0.623   0.178  16.184  0.0730  0.4496 -0.2701
 9815TIP3    H250937   0.669   0.262  16.301 -2.3723  2.5400 -0.7623
 9816TIP3   OH250938   3.592   4.508   3.977 -0.1713  0.6901 -0.2602
 9816TIP3    H150939   3.548   4.576   4.028 -2.0406  0.0269 -0.9488
 9816TIP3    H250940   3.549   4.426   4.003  0.6843  0.0176 -0.9139
 9817TIP3   OH250941   4.326   6.285   6.143 -0.2467  0.4142 -0.3117
 9817TIP3    H150942   4.417   6.279   6.111 -0.5709 -0.9003 -1.0303
 9817TIP3    H250943   4.322   6.223   6.216 -0.6480  0.2430 -0.4781
 9818TIP3   OH250944   4.384   6.064  15.855 -0.1832  0.0996  0.2035
 9818TIP3    H150945   4.350   5.978  15.830 -0.4615 -0.0089  0.9424
 9818TIP3    H250946   4.464   6.074  15.803 -1.6448  0.6334 -2.0529
 9819TIP3   OH250947   0.255   1.345   3.907  0.1630 -0.0259 -0.0142
 9819TIP3    H150948   0.202   1.336   3.828 -0.0729  1.1440  0.0142
 9819TIP3    H250949   0.194   1.329   3.979  0.1938 -0.2499 -0.0376
 9820TIP3   OH250950   1.951   2.493  15.110  0.5570  0.1193  0.2688
 9820TIP3    H150951   2.031   2.443  15.098 -0.0532 -0.8005  0.0031
 9820TIP3    H250952   1.980   2.574  15.153  1.5390 -0.4634  0.7366
 9821TIP3   OH250953   2.564   2.862   5.867  0.5844 -0.0749 -0.6072
 9821TIP3    H150954   2.483   2.862   5.918  0.9130  1.6990 -0.0409
 9821TIP3    H250955   2.602   2.775   5.882 -1.0057 -0.7819 -0.5699
 9822TIP3   OH250956   4.855   1.388  14.839  0.8938 -0.1889  0.5203
 9822TIP3    H150957   4.762   1.407  14.847  0.3490 -2.0776 -0.9903
 9822TIP3    H250958   4.897   1.474  14.834 -0.3983  0.7871  4.5738
 9823TIP3   OH250959   2.106   3.456   2.010  0.0729 -0.4177 -0.1057
 9823TIP3    H150960   2.014   3.470   1.990 -0.3432 -1.8422  0.7676
 9823TIP3    H250961   2.135   3.539   2.048 -0.7708  0.1295 -0.6491
 9824TIP3   OH250962   4.349   2.426  12.882  0.0899  0.2585 -0.2556
 9824TIP3    H150963   4.402   2.447  12.959 -1.1354 -0.8729  0.9074
 9824TIP3    H250964   4.395   2.354  12.839 -0.2740 -0.4390  0.5184
 9825TIP3   OH250965   1.784   6.115  14.286 -0.6421 -0.2375 -0.3213
 9825TIP3    H150966   1.851   6.171  14.247 -0.8628  1.8377  2.1230
 9825TIP3    H250967   1.832   6.039  14.319  0.5216  1.1528  1.2458
 9826TIP3   OH250968   4.131   4.890   0.236  0.0927 -0.2958 -0.6818
 9826TIP3    H150969   4.186   4.814   0.219  0.0273 -0.1624 -1.4834
 9826TIP3    H250970   4.191   4.958   0.266  0.0625 -0.8823  0.7437
 9827TIP3   OH250971   4.534   6.426   1.367  0.2226 -0.3835 -0.7995
 9827TIP3    H150972   4.477   6.436   1.443  0.8343 -0.7219 -0.2896
 9827TIP3    H250973   4.501   6.489   1.303  0.4650  0.7850  0.2089
 9828TIP3   OH250974   1.209   1.401  15.703 -0.2275  0.0447 -0.9712
 9828TIP3    H150975   1.173   1.376  15.788  1.4091 -1.8281 -0.7900
 9828TIP3    H250976   1.288   1.450  15.724  1.4022 -2.2897 -1.3459
 9829TIP3   OH250977   3.316   1.329   3.783 -0.6512 -0.1244 -0.7755
 9829TIP3    H150978   3.312   1.378   3.866 -1.8542 -0.5056 -0.6024
 9829TIP3    H250979   3.385   1.264   3.797 -2.6699 -1.9990  0.9493
 9830TIP3   OH250980   2.998   0.099   1.759  0.0316 -0.5151 -0.0927
 9830TIP3    H150981   3.005   0.166   1.691 -0.6319 -0.2614  0.0897
 9830TIP3    H250982   2.988   0.017   1.710 -0.4270 -0.3352 -0.3015
 9831TIP3   OH250983   2.893   4.117  12.424 -0.4472  0.0018  1.1379
 9831TIP3    H150984   2.841   4.044  12.456 -3.6645  2.5301  1.8496
 9831TIP3    H250985   2.856   4.137  12.338  1.4203 -0.1367  0.2761
 9832TIP3   OH250986   1.496   4.456   5.784 -0.2315  0.3802  0.3200
 9832TIP3    H150987   1.536   4.500   5.709 -0.1161 -0.3960 -0.0758
 9832TIP3    H250988   1.426   4.403   5.746  0.6733 -1.0510  0.6041
 9833TIP3   OH250989   3.798   1.652   5.841 -0.9242 -0.0292 -0.0510
 9833TIP3    H150990   3.731   1.716   5.818  0.1344  0.4238 -2.0127
 9833TIP3    H250991   3.802   1.593   5.766  1.0784  0.1455 -0.1131
 9834TIP3   OH250992   6.275   1.320   2.849 -0.8770 -0.0277 -0.7250
 9834TIP3    H150993   6.270   1.241   2.902 -0.6419 -2.1034 -3.6472
 9834TIP3    H250994   6.342   1.374   2.891 -0.3515 -1.8217  0.7613
 9835TIP3   OH250995   6.124   6.787  12.354  0.1722 -0.3795  0.1766
 9835TIP3    H150996   6.177   6.779  12.434  2.8355 -0.4568 -1.5267
 9835TIP3    H250997   6.156   6.716  12.298 -1.7869 -0.4183 -0.9139
 9836TIP3   OH250998   5.705   5.348  14.676  0.2407 -0.0025  0.5470
 9836TIP3    H150999   5.711   5.334  14.582  1.2632 -1.3230  0.7898
 9836TIP3    H251000   5.785   5.396  14.699 -0.3065  0.8741  0.6576
 9837TIP3   OH251001   5.781   3.649  14.699  0.1389  0.8474 -0.3614
 9837TIP3    H151002   5.750   3.727  14.745  0.0514 -0.2439  1.4962
 9837TIP3    H251003   5.850   3.614  14.755  0.4510 -0.1779 -1.3743
 9838TIP3   OH251004   6.696   5.868   0.055 -0.2210  0.6653  0.7333
 9838TIP3    H151005   6.700   5.794  -0.005  0.3598  2.0036 -0.9190
 9838TIP3    H251006   6.639   5.838   0.126 -4.1053  0.3605 -2.3505
 9839TIP3   OH251007   1.520   6.279  13.997 -0.0796  0.4778  0.0157
 9839TIP3    H151008   1.553   6.276  14.087  2.5178 -1.1146 -0.9199
 9839TIP3    H251009   1.480   6.365  13.988  0.7928  1.1464  2.3264
 9840TIP3   OH251010   1.027   2.738   4.860  0.1906 -0.4926  0.6167
 9840TIP3    H151011   1.098   2.692   4.903  0.0471 -1.6505 -0.3713
 9840TIP3    H251012   1.070   2.806   4.808  0.5265 -0.7314  0.5833
 9841TIP3   OH251013   1.072   6.326  14.087 -0.0109  0.4515 -0.0682
 9841TIP3    H151014   1.074   6.417  14.058  1.4123 -0.2186 -2.2310
 9841TIP3    H251015   0.990   6.291  14.053  0.6413  0.2581 -1.4835
 9842TIP3   OH251016   4.077   5.436   3.629 -0.1564 -0.1506 -0.4219
 9842TIP3    H151017   3.989   5.428   3.594 -0.2254 -1.6840  0.0691
 9842TIP3    H251018   4.066   5.478   3.714 -0.2074  1.4524 -1.1970
 9843TIP3   OH251019   4.303   0.428  15.034 -0.0708 -0.2786 -0.0228
 9843TIP3    H151020   4.267   0.464  14.954  1.8820  2.9228  0.4389
 9843TIP3    H251021   4.228   0.415  15.091 -1.1068  0.7676 -1.1267
 9844TIP3   OH251022   1.346   2.459  12.295 -0.0454  0.2038 -0.1185
 9844TIP3    H151023   1.346   2.426  12.385  0.4164  1.9376  0.5410
 9844TIP3    H251024   1.329   2.382  12.241 -2.5347 -0.5130  1.5748
 9845TIP3   OH251025   4.120   2.768   0.111  0.7259 -0.1169 -0.4565
 9845TIP3    H151026   4.153   2.746   0.198  0.4416 -0.2282 -0.3766
 9845TIP3    H251027   4.166   2.709   0.052 -1.0588 -1.9153 -0.0997
 9846TIP3   OH251028   2.875   2.793   1.580  0.1372  0.4058 -0.4290
 9846TIP3    H151029   2.947   2.773   1.520  0.7015  0.9585  0.0529
 9846TIP3    H251030   2.904   2.756   1.664  0.5930  2.0645  0.1519
 9847TIP3   OH251031   1.491   6.191  16.011  0.4325  0.1042  0.0746
 9847TIP3    H151032   1.417   6.247  15.989  0.5597 -1.2403 -4.1356
 9847TIP3    H251033   1.464   6.104  15.984  2.4175 -0.9318  1.3082
 9848TIP3   OH251034   5.822   1.346  16.251 -0.4654 -0.5100  0.1754
 9848TIP3    H151035   5.838   1.376  16.340  0.3570  0.3072 -0.2382
 9848TIP3    H251036   5.832   1.251  16.255  0.8273 -0.3620  0.7035
 9849TIP3   OH251037   1.227   0.556   3.418 -0.2534 -0.0634 -0.4771
 9849TIP3    H151038   1.265   0.469   3.425  0.9521  0.2504 -2.6478
 9849TIP3    H251039   1.294   0.614   3.453 -0.4780  0.1128 -0.3392
 9850TIP3   OH251040   6.659   0.041  14.459  0.2095 -0.0121 -0.0266
 9850TIP3    H151041   6.627   0.036  14.369  1.7541 -0.6448 -0.5598
 9850TIP3    H251042   6.692  -0.047  14.478 -0.7382 -0.0765  1.4078
 9851TIP3   OH251043   0.684   6.497   0.160 -0.4202 -0.5812 -0.0494
 9851TIP3    H151044   0.634   6.466   0.085 -1.4110 -1.6294  1.0191
 9851TIP3    H251045   0.742   6.565   0.124 -1.5974 -0.3473 -1.5517
 9852TIP3   OH251046   5.377   3.139   1.558 -0.1971 -0.2801  0.0463
 9852TIP3    H151047   5.321   3.094   1.495  0.0026  0.1543 -0.4463
 9852TIP3    H251048   5.438   3.189   1.505 -1.0228  1.3419  0.5603
 9853TIP3   OH251049   4.791   4.018  14.769 -0.0591 -0.1615 -0.0947
 9853TIP3    H151050   4.821   3.962  14.841 -0.8825 -1.1755 -0.5279
 9853TIP3    H251051   4.844   3.989  14.694 -1.3747 -1.2496 -0.6191
 9854TIP3   OH251052   4.901   0.466   1.072 -0.4996 -0.0178 -0.1260
 9854TIP3    H151053   4.808   0.467   1.048 -0.7232 -1.2452  0.6654
 9854TIP3    H251054   4.918   0.555   1.101 -1.3323  0.3218 -0.6432
 9855TIP3   OH251055   6.548   4.497   5.957  0.4983 -0.9311  0.5027
 9855TIP3    H151056   6.489   4.527   6.026  1.0350  0.5241  0.3473
 9855TIP3    H251057   6.621   4.455   6.004  0.1979 -1.1757  0.7553
 9856TIP3   OH251058   5.415   4.479   0.858 -0.1904  0.3988  0.4375
 9856TIP3    H151059   5.369   4.406   0.901 -1.4225  0.1284 -1.3114
 9856TIP3    H251060   5.507   4.465   0.881 -0.3817 -1.8167 -0.0145
 9857TIP3   OH251061   2.913   6.468   3.585 -0.7487 -0.0914 -0.1447
 9857TIP3    H151062   2.891   6.395   3.526  2.0110  1.3488 -3.1922
 9857TIP3    H251063   2.832   6.516   3.596 -1.3317 -0.3360 -2.9844
 9858TIP3   OH251064   3.145   4.579  14.264  0.1519 -0.1888  0.3996
 9858TIP3    H151065   3.175   4.575  14.173  0.1430 -1.1433  0.4341
 9858TIP3    H251066   3.221   4.609  14.313  0.4937 -0.7332  0.2170
 9859TIP3   OH251067   0.083   2.588   6.479 -0.4207  0.8077 -0.2481
 9859TIP3    H151068   0.139   2.523   6.435 -0.8861  0.8664 -0.9206
 9859TIP3    H251069   0.030   2.536   6.539  1.2288  0.8777  1.3251
 9860TIP3   OH251070   1.423   0.596   1.177  1.0485 -0.3912  0.1845
 9860TIP3    H151071   1.498   0.554   1.217 -0.8730 -0.2683  4.1193
 9860TIP3    H251072   1.378   0.525   1.130  1.7961 -1.1822  0.6513
 9861TIP3   OH251073   0.421   4.821  15.686 -0.4242 -0.0150 -1.3874
 9861TIP3    H151074   0.383   4.886  15.626 -2.1343 -0.5904 -0.9548
 9861TIP3    H251075   0.374   4.740  15.666 -0.2200 -0.4739 -0.0349
 9862TIP3   OH251076   2.554   0.409  13.325 -0.9905  0.1654  0.2264
 9862TIP3    H151077   2.570   0.388  13.417 -1.2482  1.1096  0.4991
 9862TIP3    H251078   2.464   0.382  13.310 -1.7373  2.1409  0.9203
 9863TIP3   OH251079   1.440   3.501   2.155  0.3442 -0.3529  0.1177
 9863TIP3    H151080   1.447   3.548   2.072 -0.3705 -0.5588 -0.0607
 9863TIP3    H251081   1.480   3.560   2.220 -0.0922  0.2834 -0.1872
 9864TIP3   OH251082   4.372   4.716   4.376 -0.2370  0.2463  0.2422
 9864TIP3    H151083   4.335   4.637   4.336 -0.3546  0.8267 -0.8246
 9864TIP3    H251084   4.467   4.706   4.367 -0.2793  0.7891 -1.0579
 9865TIP3   OH251085   0.391   1.591   1.244 -0.0747 -0.1730  0.6324
 9865TIP3    H151086   0.342   1.647   1.183  0.3589  0.2026  0.6210
 9865TIP3    H251087   0.372   1.628   1.330  0.5653  0.2817  0.5902
 9866TIP3   OH251088   5.098   4.947   4.472 -0.1372  0.3516  0.5695
 9866TIP3    H151089   5.177   4.903   4.439 -0.5371 -0.4349  0.6477
 9866TIP3    H251090   5.063   4.886   4.537 -0.0742  1.3031  1.5040
 9867TIP3   OH251091   1.949   4.312  16.219 -0.3274 -0.4532 -0.3959
 9867TIP3    H151092   2.004   4.281  16.291  1.6851  0.9287 -1.2983
 9867TIP3    H251093   1.903   4.233  16.188 -1.6816 -0.9767  2.7191
 9868TIP3   OH251094   5.747   2.906  14.640 -0.0679 -0.2695 -0.0514
 9868TIP3    H151095   5.819   2.850  14.666  0.1367 -0.5662 -1.2414
 9868TIP3    H251096   5.680   2.892  14.707  0.7546 -0.4215  0.7398
 9869TIP3   OH251097   3.108   4.882   0.648 -0.3443 -0.0437 -0.1009
 9869TIP3    H151098   3.047   4.910   0.716 -0.1581 -3.4876  1.5623
 9869TIP3    H251099   3.176   4.950   0.648 -2.2132  1.8838  0.5998
 9870TIP3   OH251100   0.967   2.758  17.216  0.3896 -0.1899  0.0679
 9870TIP3    H151101   1.007   2.829  17.166 -0.4557  0.0280 -0.3162
 9870TIP3    H251102   1.027   2.684  17.206 -0.0861 -0.3397 -1.8047
 9871TIP3   OH251103   2.502   3.198  12.092 -0.1365 -0.0661  0.3691
 9871TIP3    H151104   2.455   3.125  12.134  0.3581 -0.5375  0.1142
 9871TIP3    H251105   2.481   3.190  11.999 -0.8633  0.7082  0.4591
 9872TIP3   OH251106   1.412   6.065   3.441  0.8078  0.2355 -0.4808
 9872TIP3    H151107   1.391   6.020   3.522  0.3403  2.0375  0.4249
 9872TIP3    H251108   1.356   6.143   3.442  1.3821  0.6882 -2.1475
 9873TIP3   OH251109   3.385   6.660  11.257 -0.5013  0.3237  0.2538
 9873TIP3    H151110   3.412   6.569  11.272 -1.2900  0.2628  1.3473
 9873TIP3    H251111   3.457   6.712  11.292  0.9027  0.1320 -2.2206
 9874TIP3   OH251112   5.643   1.690  11.536  0.2597 -0.1677  0.1074
 9874TIP3    H151113   5.645   1.629  11.609 -0.0780 -2.2730 -1.5969
 9874TIP3    H251114   5.619   1.774  11.576  0.8469 -1.0971  2.4959
 9875TIP3   OH251115   3.990   5.850   5.201 -0.2695 -0.0671 -0.1819
 9875TIP3    H151116   3.907   5.815   5.233 -0.2089  1.2850  1.5158
 9875TIP3    H251117   4.057   5.796   5.244 -0.2263  0.0998 -0.0433
 9876TIP3   OH251118   5.051   0.962  12.567  0.2635 -0.5217 -0.2015
 9876TIP3    H151119   5.010   1.032  12.618  1.8042  0.7947 -0.7351
 9876TIP3    H251120   4.977   0.912  12.531 -0.8461  0.9066  0.0584
 9877TIP3   OH251121   5.227   4.725   3.453 -0.7474  0.2625  0.2417
 9877TIP3    H151122   5.320   4.748   3.460 -0.8141  0.3916  0.7756
 9877TIP3    H251123   5.223   4.634   3.482 -0.3023 -0.8677 -3.0640
 9878TIP3   OH251124   3.676   3.773   4.220 -0.2271  0.1056  0.3416
 9878TIP3    H151125   3.681   3.720   4.140 -1.1144  1.0470 -0.3531
 9878TIP3    H251126   3.610   3.730   4.274  0.3727 -0.5314  0.5792
 9879TIP3   OH251127   5.383   1.054  13.987  0.0199 -0.4630 -1.0316
 9879TIP3    H151128   5.444   1.121  14.018 -0.3476 -1.0091  0.9397
 9879TIP3    H251129   5.322   1.102  13.932 -0.2218  0.8494  0.3230
 9880TIP3   OH251130   2.528   4.071  12.346  0.0665 -0.2385  0.0006
 9880TIP3    H151131   2.438   4.072  12.378 -0.3566 -1.1212 -1.1178
 9880TIP3    H251132   2.536   4.149  12.292  0.4890  0.7348  1.4575
 9881TIP3   OH251133   6.707   6.366  13.458 -0.8048 -0.4239  0.5597
 9881TIP3    H151134   6.727   6.318  13.538  1.3345  0.2565  0.4777
 9881TIP3    H251135   6.776   6.340  13.397 -1.3173  0.5140 -0.4366
 9882TIP3   OH251136   2.965   0.627   2.061 -0.0222  0.3946  0.9370
 9882TIP3    H151137   2.976   0.698   1.999  2.1430  0.7783  1.7080
 9882TIP3    H251138   3.013   0.553   2.023 -2.1629 -0.6543  0.1908
 9883TIP3   OH251139   5.482   2.164   0.727 -0.7966  0.3232  0.2830
 9883TIP3    H151140   5.531   2.240   0.759  1.6825  0.1100 -2.7193
 9883TIP3    H251141   5.397   2.199   0.701  0.3151  2.1107 -1.0357
 9884TIP3   OH251142   0.950   4.811  11.563 -0.1393  0.1451  0.3989
 9884TIP3    H151143   0.903   4.733  11.592  1.1227 -0.3614  1.0911
 9884TIP3    H251144   0.977   4.790  11.473 -0.8787  0.2771  0.1432
 9885TIP3   OH251145   2.409   0.051   2.778 -0.0105 -0.3301  0.2465
 9885TIP3    H151146   2.466  -0.012   2.733  1.5749  0.3249  1.2864
 9885TIP3    H251147   2.456   0.072   2.858 -0.7603  1.8087  0.1483
 9886TIP3   OH251148   6.810   5.286   1.348 -0.1531  0.5571  0.4072
 9886TIP3    H151149   6.818   5.193   1.327 -3.6224  0.0118  1.2408
 9886TIP3    H251150   6.858   5.296   1.431 -0.0739 -0.5621  0.5077
 9887TIP3   OH251151   2.096   0.922  14.046  0.1457 -0.2642  0.3662
 9887TIP3    H151152   2.138   0.905  14.130  1.3578 -1.8328 -0.5276
 9887TIP3    H251153   2.156   0.885  13.981 -1.9121 -1.2214 -1.0451
 9888TIP3   OH251154   0.786   3.395  12.746 -0.2363 -1.0045 -0.4575
 9888TIP3    H151155   0.810   3.437  12.664 -2.5162 -1.0793 -1.1819
 9888TIP3    H251156   0.797   3.302  12.730  0.1698 -0.9693 -0.3886
 9889TIP3   OH251157   2.390   3.498  15.175 -0.5769  0.4344 -0.5292
 9889TIP3    H151158   2.342   3.447  15.241 -1.1317  0.9509 -0.5269
 9889TIP3    H251159   2.397   3.585  15.214  0.4201  0.3428 -0.5101
 9890TIP3   OH251160   3.095   5.899   0.100 -0.2861 -0.2395 -0.2403
 9890TIP3    H151161   3.029   5.904   0.031  0.4886 -1.3153 -1.0622
 9890TIP3    H251162   3.130   5.988   0.106 -1.6918  0.3074  0.1001
 9891TIP3   OH251163   2.197   4.488  11.103 -0.4789 -0.1751 -0.1376
 9891TIP3    H151164   2.238   4.408  11.071 -0.2063 -0.4123  0.8032
 9891TIP3    H251165   2.138   4.514  11.032  0.9664 -0.0541 -1.3204
 9892TIP3   OH251166   1.576   6.170   3.932 -0.5668 -0.0035 -0.0992
 9892TIP3    H151167   1.598   6.187   3.840 -0.4612 -0.7615 -0.2109
 9892TIP3    H251168   1.511   6.238   3.953  0.0927  0.7501 -0.4579
 9893TIP3   OH251169   2.670   0.307  13.089  0.5076 -0.1134  0.5385
 9893TIP3    H151170   2.612   0.331  13.161 -0.5743 -2.2611  0.4205
 9893TIP3    H251171   2.618   0.249  13.034  1.9999 -0.1752 -0.8569
 9894TIP3   OH251172   4.300   2.418   6.189 -0.5867  0.3836 -0.3652
 9894TIP3    H151173   4.218   2.417   6.139 -1.0256 -0.0035  0.3439
 9894TIP3    H251174   4.298   2.501   6.236 -1.5673 -0.5326  1.2465
 9895TIP3   OH251175   3.278   3.482  12.028 -0.0720 -0.1175 -0.5625
 9895TIP3    H151176   3.242   3.486  11.940 -0.0384  1.2680 -0.5269
 9895TIP3    H251177   3.368   3.514  12.019  0.6323 -1.9684 -0.3745
 9896TIP3   OH251178   2.617   4.345  11.221  0.3598 -0.0653 -0.7790
 9896TIP3    H151179   2.641   4.327  11.130 -0.4154 -0.1022 -0.9808
 9896TIP3    H251180   2.542   4.404  11.215 -1.0092 -1.7188 -0.1951
 9897TIP3   OH251181   2.309   3.654   1.801 -0.5928  0.2210  0.1229
 9897TIP3    H151182   2.378   3.615   1.856 -0.7227 -0.7512 -0.3913
 9897TIP3    H251183   2.241   3.680   1.863 -0.7058 -0.7963  0.4393
 9898TIP3   OH251184   3.774   2.411   2.446 -0.1491  0.1651  0.2450
 9898TIP3    H151185   3.735   2.481   2.499  1.2299 -0.1222  1.6882
 9898TIP3    H251186   3.712   2.338   2.452 -0.6287  0.5810  0.3793
 9899TIP3   OH251187   3.368   3.769   1.670 -0.1464  0.5784 -0.1690
 9899TIP3    H151188   3.382   3.681   1.635 -0.2396  0.7006 -0.5230
 9899TIP3    H251189   3.451   3.792   1.713 -0.2732  0.1485  0.3045
 9900TIP3   OH251190   5.859   3.300   3.632  0.6726 -0.0722 -0.8420
 9900TIP3    H151191   5.900   3.386   3.624  0.9833 -0.2321 -0.9635
 9900TIP3    H251192   5.765   3.319   3.638  0.8071  0.3362  0.1563
 9901TIP3   OH251193   1.236   6.356  12.158  0.0222  0.3055  0.0361
 9901TIP3    H151194   1.175   6.418  12.200  1.1948  0.7326  1.1421
 9901TIP3    H251195   1.306   6.344  12.222 -0.4534 -2.6352  0.0696
 9902TIP3   OH251196   5.203   0.433   0.298  0.2379 -0.4849  0.1572
 9902TIP3    H151197   5.139   0.362   0.302  0.4657 -0.6876  0.2805
 9902TIP3    H251198   5.284   0.394   0.332  1.3837 -1.2513 -3.2317
 9903TIP3   OH251199   2.538   5.195  11.183  0.2095  0.0256  0.0355
 9903TIP3    H151200   2.621   5.177  11.226 -0.6909 -3.4638  0.4382
 9903TIP3    H251201   2.548   5.161  11.094 -0.8956 -0.7345  0.1895
 9904TIP3   OH251202   3.897   1.193  16.638 -0.2310 -0.1244  0.3552
 9904TIP3    H151203   3.816   1.145  16.655 -0.6907  0.7917  0.8070
 9904TIP3    H251204   3.952   1.131  16.591 -0.8875 -1.0244  0.7511
 9905TIP3   OH251205   1.801   1.008   4.492 -0.2228  0.5291 -0.0957
 9905TIP3    H151206   1.759   0.924   4.472  1.4964 -0.1282 -0.9873
 9905TIP3    H251207   1.815   1.048   4.406 -1.0412  1.7550  0.3252
 9906TIP3   OH251208   2.763   3.283  17.061 -0.8425  0.7427 -0.4700
 9906TIP3    H151209   2.828   3.282  17.132 -1.5938  2.3521  0.2731
 9906TIP3    H251210   2.788   3.359  17.008  0.7337 -1.4127 -2.9396
 9907TIP3   OH251211   3.889   3.726   3.914 -0.1320  0.0692 -0.0598
 9907TIP3    H151212   3.926   3.695   3.832 -2.2602 -1.3380 -0.5323
 9907TIP3    H251213   3.962   3.722   3.976  0.6656 -2.1417 -1.0680
 9908TIP3   OH251214   1.036   2.015   3.730 -0.0668 -0.5700 -0.5526
 9908TIP3    H151215   0.967   1.951   3.716 -0.1752 -0.5442 -0.1308
 9908TIP3    H251216   1.115   1.973   3.696  0.1373 -1.5129  1.0241
 9909TIP3   OH251217   5.644   4.408  12.635 -0.1926 -0.3277  0.0661
 9909TIP3    H151218   5.593   4.429  12.712 -2.2177  0.3316 -1.4123
 9909TIP3    H251219   5.723   4.462  12.642  0.1684 -1.1095  2.1958
 9910TIP3   OH251220   3.607   5.379  17.005 -0.5791 -0.2250  0.2072
 9910TIP3    H151221   3.588   5.462  17.050 -0.5405  0.4722 -1.0610
 9910TIP3    H251222   3.596   5.313  17.074 -0.6809  0.8138  1.2209
 9911TIP3   OH251223   0.643   3.193   6.398 -0.8571 -0.5302  0.1349
 9911TIP3    H151224   0.721   3.214   6.448 -1.1335  1.0897 -0.0941
 9911TIP3    H251225   0.675   3.140   6.325 -0.2670 -1.6433  1.1839
 9912TIP3   OH251226   2.045   2.978  15.938 -0.5011 -0.2378 -0.1197
 9912TIP3    H151227   2.140   2.993  15.941 -0.7263  1.5899 -1.1649
 9912TIP3    H251228   2.010   3.031  16.009 -0.8722  0.2644 -0.6767
 9913TIP3   OH251229   5.724   5.791  13.064  0.0161 -0.2410  0.9439
 9913TIP3    H151230   5.705   5.763  12.974  1.9814  0.7487  0.2035
 9913TIP3    H251231   5.663   5.864  13.079  0.2284  0.1020  0.1444
 9914TIP3   OH251232   1.612   3.237  14.145 -0.3713 -0.5209 -0.0499
 9914TIP3    H151233   1.619   3.255  14.239 -0.3134  0.5542 -0.2629
 9914TIP3    H251234   1.566   3.153  14.141 -0.0864 -0.7416  0.9462
 9915TIP3   OH251235   1.733   6.389   4.266 -0.5399  0.3709 -0.3709
 9915TIP3    H151236   1.721   6.445   4.343  1.7220 -0.5501  0.6957
 9915TIP3    H251237   1.743   6.301   4.302 -0.1992 -0.1648 -1.7569
 9916TIP3   OH251238   6.042   1.435  16.648  0.2287 -0.1987 -0.3939
 9916TIP3    H151239   6.086   1.367  16.598  1.3234 -0.3488  0.7602
 9916TIP3    H251240   5.984   1.388  16.707  1.1910 -0.1641  0.6012
 9917TIP3   OH251241   1.257   1.660  14.654  0.0563  0.2970 -0.2103
 9917TIP3    H151242   1.173   1.619  14.673 -1.0736  1.9531 -1.4326
 9917TIP3    H251243   1.311   1.640  14.730 -0.9180 -2.1290 -0.0999
 9918TIP3   OH251244   4.045   2.659  16.515  0.5519 -0.1619 -0.2121
 9918TIP3    H151245   4.008   2.747  16.510  0.5152 -0.2407 -1.2457
 9918TIP3    H251246   3.969   2.601  16.513  0.5904 -0.2349  0.2605
 9919TIP3   OH251247   6.600   5.764  13.215  0.5057 -0.0857  0.0800
 9919TIP3    H151248   6.637   5.801  13.135  0.5841  0.4083  0.3389
 9919TIP3    H251249   6.514   5.732  13.188  0.7460 -0.4010 -0.3166
 9920TIP3   OH251250   1.223   0.889  14.188 -0.2333 -0.0301 -0.3041
 9920TIP3    H151251   1.246   0.947  14.260 -0.0226 -0.1258 -0.2921
 9920TIP3    H251252   1.145   0.842  14.218 -0.7214  0.6427 -0.5305
 9921TIP3   OH251253   5.958   0.731   2.748 -0.3582  0.1721 -0.0639
 9921TIP3    H151254   6.005   0.655   2.781 -0.4620  0.6831  1.2913
 9921TIP3    H251255   6.023   0.778   2.695  1.1253  1.6108  2.9200
 9922TIP3   OH251256   3.423   6.282  13.399 -0.3581  0.3773 -0.7482
 9922TIP3    H151257   3.331   6.292  13.422 -0.2717 -0.8548  0.2450
 9922TIP3    H251258   3.455   6.215  13.460  0.6910 -0.6868 -2.4321
 9923TIP3   OH251259   4.456   5.078   5.011  0.0536  0.2867 -0.1720
 9923TIP3    H151260   4.478   5.015   5.080 -2.7504 -0.4342  0.1470
 9923TIP3    H251261   4.391   5.032   4.957  0.9933  1.4384 -2.3612
 9924TIP3   OH251262   5.764   0.688   0.077  0.3239 -0.0996  0.1129
 9924TIP3    H151263   5.726   0.770   0.107  1.2058  0.1327  0.6061
 9924TIP3    H251264   5.851   0.711   0.046  0.5839 -0.8485  0.2626
 9925TIP3   OH251265   1.634   3.090  11.686 -0.5364  0.3219  0.0442
 9925TIP3    H151266   1.694   3.147  11.735  0.9103 -0.0833 -1.2247
 9925TIP3    H251267   1.608   3.143  11.611  0.2658 -0.4065 -0.7671
 9926TIP3   OH251268   6.335   5.945   6.298  0.1977  0.0709  0.1604
 9926TIP3    H151269   6.369   6.023   6.341  4.1942 -2.8929  2.6662
 9926TIP3    H251270   6.404   5.919   6.237  0.5237 -3.3674  1.8744
 9927TIP3   OH251271   6.715   2.047  13.309  0.3304  0.0686 -0.1394
 9927TIP3    H151272   6.628   2.087  13.304  0.4020  0.0764 -1.5855
 9927TIP3    H251273   6.775   2.122  13.310  0.3375  0.0585  0.6551
 9928TIP3   OH251274   3.923   6.762   5.928 -0.1892  0.3298  0.7080
 9928TIP3    H151275   3.906   6.725   6.014 -0.4045  1.7114  1.2807
 9928TIP3    H251276   3.981   6.700   5.885 -1.4821 -1.2359  1.1941
 9929TIP3   OH251277   3.772   4.184   1.477 -0.1099 -0.4382  0.0498
 9929TIP3    H151278   3.859   4.193   1.516 -0.4464  0.4323  0.6319
 9929TIP3    H251279   3.763   4.091   1.458  1.6932 -0.2587 -1.7680
 9930TIP3   OH251280   5.620   4.682   5.739  0.4911 -0.0706  0.5746
 9930TIP3    H151281   5.613   4.729   5.822  0.7054 -0.8428  1.0372
 9930TIP3    H251282   5.658   4.597   5.762  0.2981 -0.3985 -0.2738
 9931TIP3   OH251283   4.076   0.793   2.707 -0.3531  0.0047 -0.1666
 9931TIP3    H151284   4.015   0.843   2.762  1.1173  0.7458  0.8042
 9931TIP3    H251285   4.090   0.849   2.631  1.9258  1.4836  1.2940
 9932TIP3   OH251286   3.681   6.033   5.791 -0.0159 -0.2704 -0.2450
 9932TIP3    H151287   3.599   6.068   5.754 -0.3853 -0.8782 -0.0092
 9932TIP3    H251288   3.746   6.100   5.771 -1.4215  2.4012  3.4673
 9933TIP3   OH251289   5.806   2.544  17.238  0.7579  0.0587 -0.5622
 9933TIP3    H151290   5.891   2.500  17.234  0.7317  0.0306 -0.8069
 9933TIP3    H251291   5.810   2.597  17.318  0.6552 -0.6575 -0.0664
 9934TIP3   OH251292   2.721   0.008   3.458  0.0945 -0.1906  0.4781
 9934TIP3    H151293   2.670  -0.073   3.464 -2.7350  1.6214  2.4696
 9934TIP3    H251294   2.773   0.009   3.539  0.1555 -0.0463  0.4368
 9935TIP3   OH251295   5.424   6.781   0.131 -0.2476 -0.2789  0.7131
 9935TIP3    H151296   5.481   6.853   0.159 -1.3252  1.0750 -0.4722
 9935TIP3    H251297   5.375   6.757   0.209 -1.1162  1.4712  0.7360
 9936TIP3   OH251298   6.121   6.639  14.031 -0.3511  0.1441  0.4527
 9936TIP3    H151299   6.141   6.586  13.954 -1.7539  2.0655 -1.2988
 9936TIP3    H251300   6.028   6.623  14.048 -0.5874  1.4066  0.4000
 9937TIP3   OH251301   0.897   0.014  16.378 -0.2595 -0.6469  0.3168
 9937TIP3    H151302   0.845   0.086  16.414  1.5975  1.7917 -1.6996
 9937TIP3    H251303   0.856  -0.006  16.294  0.2271 -0.8260  0.1208
 9938TIP3   OH251304   0.756   2.012  14.283  0.2206  0.1791 -0.3355
 9938TIP3    H151305   0.825   2.013  14.349 -0.7612 -0.6939  0.7145
 9938TIP3    H251306   0.674   2.018  14.333 -0.5838 -1.6623 -1.3744
 9939TIP3   OH251307   3.873   0.484   3.506 -0.4082  0.4207 -0.0582
 9939TIP3    H151308   3.962   0.486   3.541 -1.1209  0.8224  1.7772
 9939TIP3    H251309   3.867   0.400   3.460  1.4568  1.1598 -1.7005
 9940TIP3   OH251310   6.238   3.230   1.332 -0.4636  0.0878  0.4568
 9940TIP3    H151311   6.296   3.269   1.397 -0.7615 -0.3215  0.9716
 9940TIP3    H251312   6.204   3.304   1.282 -0.0286  0.3824  0.6009
 9941TIP3   OH251313   3.893   5.492  12.340  0.2676  0.1927  1.0188
 9941TIP3    H151314   3.934   5.416  12.380  1.0850  0.1191  0.0650
 9941TIP3    H251315   3.802   5.465  12.323 -0.1260  0.2605  2.8719
 9942TIP3   OH251316   4.867   6.778   4.110  0.2010 -0.5776  0.0020
 9942TIP3    H151317   4.840   6.686   4.104 -0.9804 -0.2131 -0.2487
 9942TIP3    H251318   4.885   6.792   4.203 -1.1570 -0.6320  0.2810
 9943TIP3   OH251319   0.434   3.854   1.352  0.3224  0.2405  0.0208
 9943TIP3    H151320   0.519   3.898   1.361 -1.2450  3.2748  0.5921
 9943TIP3    H251321   0.396   3.893   1.273 -0.6423 -0.9422 -0.1032
 9944TIP3   OH251322   3.263   4.323  11.518  0.0724  0.3831 -0.0972
 9944TIP3    H151323   3.179   4.280  11.536  0.5282 -0.5321 -0.1008
 9944TIP3    H251324   3.292   4.285  11.436 -0.5419  2.3239 -1.2385
 9945TIP3   OH251325   0.500   1.532  15.608 -0.0791 -0.3683  0.3019
 9945TIP3    H151326   0.549   1.608  15.638 -1.2106  0.6331 -0.3594
 9945TIP3    H251327   0.567   1.473  15.572  0.6762  0.8421 -0.3050
 9946TIP3   OH251328   3.670   6.608   5.800  0.1672  0.0482 -0.2522
 9946TIP3    H151329   3.761   6.619   5.829  0.4250  0.7773 -1.3166
 9946TIP3    H251330   3.622   6.589   5.880  1.4624 -1.6316  0.1811
 9947TIP3   OH251331   3.154   4.689   2.755  0.2215  0.0834  0.3056
 9947TIP3    H151332   3.095   4.635   2.807 -0.6215 -0.4946 -1.2083
 9947TIP3    H251333   3.102   4.767   2.734  0.1694 -0.1861 -0.5795
 9948TIP3   OH251334   5.872   3.253  11.426  0.2747  0.3720  0.6616
 9948TIP3    H151335   5.787   3.213  11.406  2.0502 -2.3741 -1.8021
 9948TIP3    H251336   5.889   3.229  11.517 -1.1422  0.1367  0.8787
 9949TIP3   OH251337   0.087   5.939   2.579  0.0483 -0.2332 -0.2452
 9949TIP3    H151338   0.130   5.857   2.604  0.9308  0.6398  1.1635
 9949TIP3    H251339   0.004   5.938   2.626  1.1552  0.8227  1.7699
 9950TIP3   OH251340   2.036   6.807   0.019  0.0518  0.5922 -0.0690
 9950TIP3    H151341   2.086   6.726   0.025 -0.1180  0.4227 -0.8710
 9950TIP3    H251342   2.006   6.824   0.108 -1.9199 -1.5189 -0.2821
 9951TIP3   OH251343   6.300   2.715  11.708  0.7511  0.7444  0.4080
 9951TIP3    H151344   6.251   2.738  11.629 -1.3027 -0.3891  1.3071
 9951TIP3    H251345   6.390   2.702  11.677 -0.0608  0.0439 -1.7971
 9952TIP3   OH251346   5.267   1.147  15.085  0.7033  0.1930 -0.3240
 9952TIP3    H151347   5.359   1.123  15.092  1.1251  1.6691 -0.6391
 9952TIP3    H251348   5.264   1.206  15.010 -0.9063 -1.8192 -1.8945
 9953TIP3   OH251349   2.056   5.089   4.375 -0.5312  0.0091  0.2065
 9953TIP3    H151350   1.998   5.105   4.301  1.1192 -2.1014 -1.5928
 9953TIP3    H251351   2.051   4.995   4.389  1.0433  0.0650  1.2220
 9954TIP3   OH251352   5.063   5.969  15.710 -0.4434 -0.5762  0.1117
 9954TIP3    H151353   5.048   5.941  15.620  1.3858  1.7175 -0.9287
 9954TIP3    H251354   4.998   6.036  15.726 -0.8404 -1.0597  0.5579
 9955TIP3   OH251355   4.318   2.177  11.759  0.0537  0.8583  0.2161
 9955TIP3    H151356   4.333   2.119  11.684 -0.5195  0.3332  0.5013
 9955TIP3    H251357   4.293   2.261  11.720  2.0527  1.2603 -0.2226
 9956TIP3   OH251358   2.877   3.871  15.370 -0.1791 -0.1789  0.0993
 9956TIP3    H151359   2.828   3.815  15.430 -0.2586  0.2501  0.4388
 9956TIP3    H251360   2.811   3.912  15.315 -0.3523  1.5893  1.5705
 9957TIP3   OH251361   1.586   5.127  13.002 -0.8438  0.2230  0.4881
 9957TIP3    H151362   1.636   5.146  12.922 -0.7419 -0.9511  0.2655
 9957TIP3    H251363   1.653   5.102  13.066 -0.6376  3.7674  1.7903
 9958TIP3   OH251364   3.123   4.773   1.642  0.0943  0.3223 -0.1003
 9958TIP3    H151365   3.185   4.812   1.702 -0.9014 -1.6042  2.2821
 9958TIP3    H251366   3.135   4.678   1.653 -1.6601 -0.0628 -1.2674
 9959TIP3   OH251367   0.666   6.644   0.994  0.9080  0.0238  1.2878
 9959TIP3    H151368   0.750   6.653   1.040  1.6231 -0.3738  0.0662
 9959TIP3    H251369   0.631   6.560   1.026  0.3644  0.8002  2.7674
 9960TIP3   OH251370   0.037   2.739   1.097 -0.6681  0.0189  0.4161
 9960TIP3    H151371   0.016   2.693   1.178  0.1917 -3.4012 -1.1780
 9960TIP3    H251372  -0.004   2.686   1.028  2.5092  0.1836 -1.7156
 9961TIP3   OH251373   2.457   3.096   4.610 -0.4499  0.0454  0.6215
 9961TIP3    H151374   2.518   3.131   4.675  1.7951  0.6244 -1.7224
 9961TIP3    H251375   2.393   3.167   4.598  0.1034  0.6074  0.9316
 9962TIP3   OH251376   5.214   1.561  11.545 -0.3827 -0.3454 -0.3695
 9962TIP3    H151377   5.180   1.574  11.633 -0.2279  2.5058 -0.6973
 9962TIP3    H251378   5.136   1.565  11.489 -0.2636 -0.2740 -0.5297
 9963TIP3   OH251379   3.895   0.982  16.416  0.7395 -0.1200  0.1051
 9963TIP3    H151380   3.964   0.915  16.419  0.0848 -0.8024  0.1326
 9963TIP3    H251381   3.821   0.942  16.461  0.0251  0.2607 -0.7307
 9964TIP3   OH251382   2.748   0.429   2.486 -0.2500  0.2561 -0.0197
 9964TIP3    H151383   2.785   0.441   2.399 -0.0746  0.1408  0.0389
 9964TIP3    H251384   2.657   0.456   2.477 -0.1199  0.6628 -0.1326
 9965TIP3   OH251385   2.182   1.680   4.596  0.0773  0.4952 -0.1919
 9965TIP3    H151386   2.232   1.680   4.514 -0.4611  1.7585 -0.5205
 9965TIP3    H251387   2.099   1.640   4.572  0.0543  0.5384 -0.1831
 9966TIP3   OH251388   4.954   6.812  11.670 -0.0867 -0.1665 -0.0592
 9966TIP3    H151389   4.971   6.899  11.706  0.0662 -0.2355  0.0388
 9966TIP3    H251390   4.870   6.787  11.706 -0.3069  0.0988 -0.3879
 9967TIP3   OH251391   0.913   6.576  13.908 -0.7944 -0.4139  0.9171
 9967TIP3    H151392   0.857   6.611  13.977  1.0858  1.5663  1.5045
 9967TIP3    H251393   0.975   6.646  13.890  1.6742 -2.6118  0.5104
 9968TIP3   OH251394   5.593   3.820  14.263  0.3814  0.3097  0.4446
 9968TIP3    H151395   5.540   3.855  14.191  0.2478  0.1462  0.4634
 9968TIP3    H251396   5.681   3.853  14.246  0.3723  0.1860  0.1487
 9969TIP3   OH251397   0.904   5.900   2.613 -0.3341  0.4510 -0.2027
 9969TIP3    H151398   0.888   5.993   2.632 -3.1994 -0.1161  0.4506
 9969TIP3    H251399   0.880   5.891   2.520 -1.6592  0.0671  0.1615
 9970TIP3   OH251400   1.813   5.401   4.907  0.2776  0.1905  0.3788
 9970TIP3    H151401   1.789   5.400   5.000  1.5193 -0.8214  0.6986
 9970TIP3    H251402   1.783   5.486   4.876 -2.5256 -0.4710  1.0717
 9971TIP3   OH251403   0.945   6.296   5.965  0.3448 -0.4917 -0.3888
 9971TIP3    H151404   1.000   6.218   5.969 -1.5299 -1.9092 -1.4935
 9971TIP3    H251405   0.928   6.318   6.057  0.7895 -1.4661 -0.0701
 9972TIP3   OH251406   1.306   2.049  10.888  0.0776 -0.1905  0.3272
 9972TIP3    H151407   1.399   2.069  10.879 -0.0212 -0.6525 -2.1859
 9972TIP3    H251408   1.277   2.102  10.962  2.0483  1.0541  0.2453
 9973TIP3   OH251409   4.699   2.055  14.056  0.2204  0.2282  0.2827
 9973TIP3    H151410   4.743   2.120  14.111 -0.4637 -0.3535  1.5142
 9973TIP3    H251411   4.765   1.987  14.043  1.0499  1.2614 -1.2684
 9974TIP3   OH251412   2.495   4.250  12.127 -0.1937 -0.0792 -0.4168
 9974TIP3    H151413   2.456   4.212  12.048  0.5249  0.2923 -0.9569
 9974TIP3    H251414   2.560   4.312  12.094 -0.2101  0.4131  0.4659
 9975TIP3   OH251415   2.644   6.053  11.666  0.2163  0.2520 -0.3090
 9975TIP3    H151416   2.662   5.996  11.741  1.5379 -0.2050 -0.9584
 9975TIP3    H251417   2.588   6.000  11.608  0.3022  0.1147 -0.2665
 9976TIP3   OH251418   1.679   3.458  12.601 -1.0610  0.0203 -0.3335
 9976TIP3    H151419   1.645   3.369  12.609  0.2740 -0.5116 -0.5279
 9976TIP3    H251420   1.618   3.501  12.541 -2.1056 -0.5531  0.2912
 9977TIP3   OH251421   4.572   3.629  16.717 -0.1425  0.4936 -0.0282
 9977TIP3    H151422   4.490   3.677  16.725  0.4526  1.6714 -0.7891
 9977TIP3    H251423   4.635   3.694  16.686  0.8924 -0.5834 -0.2384
 9978TIP3   OH251424   3.250   4.988   5.479 -0.2399  0.2475  0.0772
 9978TIP3    H151425   3.155   4.995   5.473 -0.3675  1.2522  2.8625
 9978TIP3    H251426   3.282   5.053   5.416 -1.3823 -0.3000 -1.0843
 9979TIP3   OH251427   2.224   3.654   5.575 -0.0960 -0.6169  0.3564
 9979TIP3    H151428   2.137   3.648   5.614 -0.7145 -1.8205 -1.1325
 9979TIP3    H251429   2.271   3.578   5.609 -0.0362 -0.6390  0.2265
 9980TIP3   OH251430   3.641   6.048   6.282  0.5898  0.3952 -0.2967
 9980TIP3    H151431   3.702   6.044   6.357  0.9621  0.6110 -0.5883
 9980TIP3    H251432   3.664   5.971   6.230 -1.2568 -1.1040  1.0221
 9981TIP3   OH251433   0.619   1.063  15.157  0.6522  0.0180  0.6773
 9981TIP3    H151434   0.631   1.129  15.226 -0.5560 -0.1152  1.0138
 9981TIP3    H251435   0.525   1.046  15.156  0.6192  0.3028 -1.2685
 9982TIP3   OH251436   3.057   3.021  10.481  0.4626 -0.0545 -0.1064
 9982TIP3    H151437   2.978   2.974  10.508 -0.0454  0.6732 -0.3097
 9982TIP3    H251438   3.125   2.954  10.479 -0.8515 -1.4453 -3.2861
 9983TIP3   OH251439   4.721   5.721  12.858 -0.0164  0.1131  0.0710
 9983TIP3    H151440   4.716   5.684  12.947 -0.0624  0.7152  0.3167
 9983TIP3    H251441   4.710   5.645  12.801 -0.6566 -0.1883  0.5817
 9984TIP3   OH251442   4.453   1.730   3.569  0.1744 -0.2162 -0.6027
 9984TIP3    H151443   4.367   1.698   3.597 -1.3073  2.5402 -1.7535
 9984TIP3    H251444   4.476   1.675   3.494 -1.0325 -0.3535 -0.8742
 9985TIP3   OH251445   6.538   0.389  15.535 -0.2136 -0.1914  0.3141
 9985TIP3    H151446   6.582   0.432  15.462  0.0079 -0.7454  0.1242
 9985TIP3    H251447   6.473   0.332  15.495  0.1558 -0.7715  0.5368
 9986TIP3   OH251448   4.377   1.098  12.003 -0.4458 -0.5460  0.0597
 9986TIP3    H151449   4.436   1.137  11.939 -0.9576  0.5900  0.2635
 9986TIP3    H251450   4.340   1.022  11.959 -1.3060  0.6078 -1.2369
 9987TIP3   OH251451   2.055   5.062  14.012  0.3193  0.0633 -0.0187
 9987TIP3    H151452   2.147   5.037  14.019  0.2942 -0.1491 -0.4465
 9987TIP3    H251453   2.040   5.074  13.918 -0.1825 -0.2594  0.0148
 9988TIP3   OH251454   4.989   3.769   5.592 -0.0775  0.1580 -0.1185
 9988TIP3    H151455   5.047   3.694   5.605  0.1747  0.5600  1.1882
 9988TIP3    H251456   5.045   3.845   5.605 -0.9072  0.5497  1.2477
 9989TIP3   OH251457   5.473   3.061   0.712  0.4774  0.0316  0.1214
 9989TIP3    H151458   5.403   3.024   0.765 -0.9660  1.9804 -0.3531
 9989TIP3    H251459   5.548   3.067   0.772 -0.7426  0.9763  1.5962
 9990TIP3   OH251460   4.837   5.319  12.653 -0.3730  0.6910 -0.4333
 9990TIP3    H151461   4.788   5.290  12.730  0.3847 -0.6293 -0.4439
 9990TIP3    H251462   4.813   5.411  12.643  1.1587  1.4628  2.6544
 9991TIP3   OH251463   4.687   2.163   1.560 -0.3122 -0.3845 -0.0255
 9991TIP3    H151464   4.678   2.166   1.656 -1.6718  1.9390 -0.2091
 9991TIP3    H251465   4.774   2.200   1.544 -1.3714  2.2317  0.1348
 9992TIP3   OH251466   3.569   5.751   3.546  0.0382  0.0939 -0.3164
 9992TIP3    H151467   3.617   5.750   3.629  1.3859 -0.4575 -1.0773
 9992TIP3    H251468   3.486   5.792   3.567  0.1977 -0.4078  1.3990
 9993TIP3   OH251469   5.128   6.284   0.900 -0.2085  0.0270  0.6984
 9993TIP3    H151470   5.076   6.221   0.949 -0.2132 -0.5410 -0.0388
 9993TIP3    H251471   5.082   6.367   0.911 -0.8561 -0.3294  0.6754
 9994TIP3   OH251472   1.081   6.274  14.918 -0.2000  0.4534  0.4210
 9994TIP3    H151473   0.992   6.271  14.883 -1.3794  1.1638  3.2431
 9994TIP3    H251474   1.100   6.184  14.945  0.3191  0.1158 -1.0104
 9995TIP3   OH251475   1.625   3.678   0.394 -0.0894  0.3073  0.2917
 9995TIP3    H151476   1.582   3.632   0.323  0.9053 -1.3831  0.7570
 9995TIP3    H251477   1.654   3.761   0.355 -0.5664 -0.1055 -0.9579
 9996TIP3   OH251478   1.955   6.031  14.845 -0.6336 -0.3800 -0.0976
 9996TIP3    H151479   1.862   6.054  14.850 -0.8023 -0.9020 -0.8250
 9996TIP3    H251480   2.000   6.115  14.839 -1.0081 -0.0943  0.8701
 9997TIP3   OH251481   1.228   3.823  16.697  0.5559 -0.2071  0.0276
 9997TIP3    H151482   1.233   3.799  16.605  2.0802  1.5444 -0.3814
 9997TIP3    H251483   1.290   3.765  16.741  0.0389 -0.8491 -0.0841
 9998TIP3   OH251484   3.629   6.473  15.446  0.0538  0.5121  0.2494
 9998TIP3    H151485   3.604   6.414  15.375  0.0647  1.5912 -0.6574
 9998TIP3    H251486   3.546   6.508  15.479  0.0354 -0.1427  0.9045
 9999TIP3   OH251487   6.001   1.652   5.867  0.3600 -0.0693 -0.2471
 9999TIP3    H151488   5.994   1.700   5.950  0.8621  0.4781 -0.5195
 9999TIP3    H251489   6.051   1.710   5.810  2.5890 -1.6791 -0.0001
10000TIP3   OH251490   1.002   1.883  16.807 -0.6226  0.2787 -0.3933
10000TIP3    H151491   1.001   1.814  16.872 -0.2559 -1.8806 -2.6157
10000TIP3    H251492   1.048   1.956  16.849 -1.3472 -0.6769  2.0887
10001TIP3   OH251493   1.616   2.723  15.859 -0.5999  0.4345 -0.7858
10001TIP3    H151494   1.614   2.816  15.838 -0.7485  0.2481 -1.6297
10001TIP3    H251495   1.648   2.681  15.779 -0.8261 -0.2665 -0.5146
10002TIP3   OH251496   5.964   2.376   5.709 -0.8835 -0.3622  0.5744
10002TIP3    H151497   5.891   2.314   5.719 -1.0218 -0.0641  1.4934
10002TIP3    H251498   5.952   2.438   5.781 -1.1443  1.1379 -0.7390
10003TIP3   OH251499   3.863   6.705  14.525 -0.5888  0.2379  0.5013
10003TIP3    H151500   3.774   6.693  14.559 -0.1255 -0.7278  1.4086
10003TIP3    H251501   3.886   6.795  14.550 -1.2973  0.4892  0.2690
10004TIP3   OH251502   4.838   3.449  11.578 -0.4911 -0.3937 -0.3982
10004TIP3    H151503   4.791   3.407  11.506  0.9978  1.1801 -2.3356
10004TIP3    H251504   4.799   3.537  11.585 -0.7718 -0.6037  0.8745
10005TIP3   OH251505   3.044   4.014  11.205 -0.3097  0.5988 -0.2405
10005TIP3    H151506   3.139   4.003  11.212 -0.6416 -2.7159  0.2462
10005TIP3    H251507   3.027   4.102  11.239  2.3597  0.3044  2.0543
10006TIP3   OH251508   4.532   2.698   4.709 -0.6378  0.4244  0.5288
10006TIP3    H151509   4.620   2.709   4.675 -0.6537 -1.1252 -0.0825
10006TIP3    H251510   4.538   2.718   4.802  0.3299  0.4654  0.4540
10007TIP3   OH251511   6.133   6.305  11.287  0.4123 -0.3692  0.8285
10007TIP3    H151512   6.225   6.316  11.261  0.8705  1.5303  3.1349
10007TIP3    H251513   6.084   6.315  11.206  2.1628 -0.3260 -0.2532
10008TIP3   OH251514   5.334   0.216  12.848  0.2333 -0.5289  0.1304
10008TIP3    H151515   5.382   0.201  12.930  1.7981  1.8285 -0.3089
10008TIP3    H251516   5.318   0.310  12.847  1.3399 -0.3369 -2.8614
10009TIP3   OH251517   0.504   1.016   4.522 -0.4270  0.4643 -0.2968
10009TIP3    H151518   0.596   1.042   4.519 -0.4854  0.6093 -1.0796
10009TIP3    H251519   0.456   1.098   4.508 -0.6185 -0.0209 -2.7287
10010TIP3   OH251520   2.518   5.431   1.021  0.2478 -0.5807 -0.0752
10010TIP3    H151521   2.492   5.405   1.109 -1.0030  0.6392 -0.0582
10010TIP3    H251522   2.449   5.491   0.992  1.7134  0.6802 -1.0773
10011TIP3   OH251523   5.650   1.824  15.603 -0.5690  0.2249  0.6332
10011TIP3    H151524   5.591   1.758  15.567 -1.2986  0.3340  1.5912
10011TIP3    H251525   5.736   1.799  15.570 -0.9656 -0.6736  0.2373
10012TIP3   OH251526   5.855   1.568  12.387 -0.2721 -0.0911 -0.0002
10012TIP3    H151527   5.778   1.602  12.433 -0.8184 -1.4374  0.1183
10012TIP3    H251528   5.834   1.578  12.294  0.5607  2.0364  0.0180
10013TIP3   OH251529   0.763   0.808   0.837  0.1783  0.1242  0.0106
10013TIP3    H151530   0.831   0.806   0.904 -0.0260  1.2115  0.2672
10013TIP3    H251531   0.801   0.762   0.762  0.8255 -0.1249  0.4868
10014TIP3   OH251532   2.851   4.035   1.089  0.0490 -0.3466 -0.2784
10014TIP3    H151533   2.802   4.116   1.104 -0.4042 -0.7384  0.3708
10014TIP3    H251534   2.851   4.024   0.994 -0.4681  0.0531 -0.3278
10015TIP3   OH251535   5.621   1.639  12.929 -0.0434 -0.1032  0.1096
10015TIP3    H151536   5.599   1.621  13.020 -0.2303 -0.3232  0.0208
10015TIP3    H251537   5.562   1.583  12.879 -2.4715  2.5925 -0.2213
10016TIP3   OH251538   2.772   4.398  16.112 -0.0701 -0.0066 -0.1514
10016TIP3    H151539   2.770   4.438  16.025  2.0220 -0.5472 -0.4776
10016TIP3    H251540   2.849   4.436  16.154 -0.7921 -0.1130  1.3014
10017TIP3   OH251541   0.047   0.609   1.638  0.0627 -0.2788 -0.4227
10017TIP3    H151542   0.050   0.513   1.638  0.7438 -0.3085 -3.7378
10017TIP3    H251543   0.137   0.636   1.623 -0.0278  0.9285  1.0821
10018TIP3   OH251544   1.342   4.372   6.538  0.7035 -0.2548  0.3064
10018TIP3    H151545   1.287   4.355   6.461  0.0822 -1.5763  1.0166
10018TIP3    H251546   1.393   4.450   6.515 -1.6470  1.1644 -0.2981
10019TIP3   OH251547   0.541   5.782  14.344  0.7921 -0.5597 -0.1043
10019TIP3    H151548   0.462   5.799  14.293  0.2350 -2.0655  0.2349
10019TIP3    H251549   0.607   5.758  14.279  0.5994 -0.6317 -0.2740
10020TIP3   OH251550   0.463   2.252  12.626 -0.4287  0.2617 -0.7397
10020TIP3    H151551   0.457   2.238  12.532 -0.5520  1.4244 -0.9196
10020TIP3    H251552   0.450   2.166  12.665 -0.7582 -0.1583 -1.7750
10021TIP3   OH251553   2.726   3.160   1.746  0.0676  0.0920 -0.2380
10021TIP3    H151554   2.780   3.160   1.825 -2.9637 -1.2011  1.9021
10021TIP3    H251555   2.710   3.067   1.729  1.4441  0.3088 -2.9564
10022TIP3   OH251556   4.390   5.002   0.947 -0.5625  0.9934  0.3251
10022TIP3    H151557   4.436   4.961   0.873 -0.1040  1.6368  0.2541
10022TIP3    H251558   4.331   4.934   0.979 -1.0488  0.8329 -0.8846
10023TIP3   OH251559   4.149   2.776  13.603  0.0929 -0.0245  0.1367
10023TIP3    H151560   4.126   2.749  13.692  0.6012  0.8269  0.5406
10023TIP3    H251561   4.244   2.783  13.604 -0.0241  1.9798  0.1351
10024TIP3   OH251562   2.382   2.664  14.512  0.1725 -0.6041 -0.0889
10024TIP3    H151563   2.433   2.583  14.506  0.1973 -0.5541 -0.5889
10024TIP3    H251564   2.291   2.636  14.502  0.1715 -0.5888 -0.1260
10025TIP3   OH251565   3.444   2.133  14.568  0.1361  0.0112  0.0309
10025TIP3    H151566   3.448   2.213  14.516 -0.1225  0.7403  1.1058
10025TIP3    H251567   3.354   2.102  14.556 -0.7016  1.5259  1.9595
10026TIP3   OH251568   4.197   5.741   5.356 -0.5104 -0.6092  0.0911
10026TIP3    H151569   4.162   5.778   5.437 -1.6992  0.9073 -1.0879
10026TIP3    H251570   4.285   5.777   5.350 -0.5684 -0.3942  0.4907
10027TIP3   OH251571   4.504   3.312   0.596 -0.1803 -0.1332  0.8931
10027TIP3    H151572   4.433   3.361   0.554 -0.2932 -0.0683  1.1630
10027TIP3    H251573   4.535   3.370   0.666 -2.3037 -1.6718  3.1818
10028TIP3   OH251574   4.851   2.390   1.008  0.0436 -0.5174 -0.3359
10028TIP3    H151575   4.830   2.366   0.917  0.0813  0.1087 -0.5141
10028TIP3    H251576   4.869   2.307   1.051 -0.7627 -0.8973 -0.7064
10029TIP3   OH251577   5.373   2.601  12.234  0.0387 -0.3435  0.1839
10029TIP3    H151578   5.428   2.534  12.274  0.8930  0.0596 -0.3085
10029TIP3    H251579   5.390   2.593  12.140 -1.0637 -0.4952 -0.0145
10030TIP3   OH251580   3.108   0.446   1.881  1.0817 -0.4053  0.1792
10030TIP3    H151581   3.109   0.376   1.946  0.1830 -1.0672 -0.5067
10030TIP3    H251582   3.174   0.421   1.816  0.6898 -0.6825 -0.1191
10031TIP3   OH251583   0.797   0.202   5.976 -0.0266 -0.1557 -0.5242
10031TIP3    H151584   0.772   0.229   5.887 -1.1304 -0.8527 -0.4398
10031TIP3    H251585   0.761   0.269   6.033 -1.3057 -0.8853 -0.4435
10032TIP3   OH251586   1.094   1.684  14.348  0.0709  0.0898  0.3842
10032TIP3    H151587   1.112   1.735  14.269  1.0439  0.1512  0.6349
10032TIP3    H251588   1.098   1.747  14.419  3.3521 -0.6402  0.9309
10033TIP3   OH251589   6.343   4.121   2.636  0.1080 -0.1630 -0.3186
10033TIP3    H151590   6.320   4.099   2.546  0.2574 -0.6840 -0.2324
10033TIP3    H251591   6.331   4.040   2.684  0.2913  0.0452  0.0788
10034TIP3   OH251592   0.725   5.649  14.620  0.7439 -0.1772  0.4406
10034TIP3    H151593   0.659   5.582  14.639  2.0526 -1.2384  1.3302
10034TIP3    H251594   0.676   5.720  14.579 -0.6778 -1.6830 -0.5318
10035TIP3   OH251595   4.935   2.750  13.365 -0.1347 -0.2110  1.4518
10035TIP3    H151596   4.978   2.675  13.323  0.6198  0.5556  0.8345
10035TIP3    H251597   4.888   2.712  13.440 -0.4880 -1.4207  0.6328
10036TIP3   OH251598   2.957   0.279  12.923 -0.4825 -0.0617 -0.2379
10036TIP3    H151599   2.998   0.213  12.979  0.3462  1.0706  0.4906
10036TIP3    H251600   2.913   0.338  12.984 -1.2983  0.0213 -0.9005
10037TIP3   OH251601   5.431   4.853   5.142 -0.1585 -0.3980  0.0690
10037TIP3    H151602   5.413   4.797   5.066 -1.8924  0.4541 -0.1647
10037TIP3    H251603   5.425   4.794   5.217 -4.4876 -0.1483  0.0586
10038TIP3   OH251604   3.940   1.178  11.017  0.2244  0.1068  0.0325
10038TIP3    H151605   3.989   1.144  10.942  0.5179 -1.5998  0.9979
10038TIP3    H251606   3.879   1.108  11.040 -1.3167  1.4367  0.1065
10039TIP3   OH251607   5.967   4.862  13.136 -0.0192  0.0240  0.0981
10039TIP3    H151608   6.040   4.858  13.074 -1.2232  0.3605 -1.3850
10039TIP3    H251609   6.004   4.835  13.219  2.2449  1.9465 -0.2310
10040TIP3   OH251610   4.937   4.959   2.221  0.1017 -0.1470 -0.1720
10040TIP3    H151611   4.902   4.885   2.271 -1.9206  0.8749 -0.0130
10040TIP3    H251612   4.954   4.922   2.134 -1.7449 -0.6180 -0.3561
10041TIP3   OH251613   6.218   6.130   5.398 -0.0549 -0.3433  0.1248
10041TIP3    H151614   6.176   6.099   5.317 -0.6598  0.6276  0.0680
10041TIP3    H251615   6.294   6.072   5.408  0.1034 -0.3890 -1.2119
10042TIP3   OH251616   5.050   5.022  15.707 -0.0186  0.2407  0.2123
10042TIP3    H151617   4.955   5.013  15.702  0.0733 -0.4468 -0.4268
10042TIP3    H251618   5.073   5.074  15.630  0.1381  0.2154  0.2414
10043TIP3   OH251619   3.216   2.775  10.462  0.0183  0.0062  0.4046
10043TIP3    H151620   3.138   2.730  10.429 -0.2904  0.3895  0.6077
10043TIP3    H251621   3.265   2.708  10.508 -0.1402 -0.2616  0.1847
10044TIP3   OH251622   6.484   2.940  15.514  0.4673 -0.4527 -0.2993
10044TIP3    H151623   6.504   2.847  15.516 -0.4429 -0.6369  0.7806
10044TIP3    H251624   6.493   2.968  15.606  2.4365  0.8984 -0.8564
10045TIP3   OH251625   3.677   6.295  16.016 -0.0268  0.2260 -0.3454
10045TIP3    H151626   3.642   6.234  15.951  0.7200 -0.4446 -0.1343
10045TIP3    H251627   3.642   6.264  16.100 -0.3823  0.6350 -0.3443
10046TIP3   OH251628   5.560   6.568  14.060  0.0032 -0.2489  0.0850
10046TIP3    H151629   5.483   6.611  14.097 -0.0436 -0.6124  0.4108
10046TIP3    H251630   5.529   6.531  13.977  0.2385  1.0212 -0.5931
10047TIP3   OH251631   2.091   0.811   0.686  0.0091  0.8691 -0.2612
10047TIP3    H151632   2.068   0.727   0.726 -0.4395  1.7408  1.3660
10047TIP3    H251633   2.186   0.816   0.695  0.1866 -0.0029 -1.4862
10048TIP3   OH251634   5.458   5.207   5.567 -0.3669  0.1491  0.2134
10048TIP3    H151635   5.539   5.172   5.604  0.1921  1.2270  0.0247
10048TIP3    H251636   5.446   5.157   5.486  1.3106  1.4749 -0.9032
10049TIP3   OH251637   1.882   0.441   2.947  0.3775  0.1692  0.0321
10049TIP3    H151638   1.805   0.431   2.892 -2.8650  1.6303  4.0121
10049TIP3    H251639   1.924   0.522   2.917 -0.3381  0.0237 -1.3549
10050TIP3   OH251640   4.519   5.965  12.297  0.2261 -0.0963 -0.0806
10050TIP3    H151641   4.484   5.966  12.208 -1.8559 -0.6914  0.7021
10050TIP3    H251642   4.504   6.053  12.330 -0.8916 -0.4500  0.3770
10051TIP3   OH251643   4.881   5.531  12.033 -0.3892 -0.2733 -0.4059
10051TIP3    H151644   4.849   5.544  12.122  1.2394 -1.7354  0.4421
10051TIP3    H251645   4.891   5.620  11.998 -3.1678  0.2634  0.0387
10052TIP3   OH251646   4.431   2.687  13.325  0.3997 -0.5084  0.3237
10052TIP3    H151647   4.429   2.653  13.414  1.3939 -0.8004  0.2403
10052TIP3    H251648   4.366   2.635  13.278  0.6738 -1.1154  0.6098
10053TIP3   OH251649   1.741   4.957   3.427  0.3439  0.1670  0.5353
10053TIP3    H151650   1.747   5.006   3.345  0.9847  0.9146  1.0119
10053TIP3    H251651   1.651   4.969   3.456  0.5173  1.1688  0.6939
10054TIP3   OH251652   0.204   6.623  11.990  1.1452  0.2669 -0.2060
10054TIP3    H151653   0.119   6.633  12.032  0.1073  0.6178 -2.3118
10054TIP3    H251654   0.213   6.701  11.935  2.9797  0.4050  0.2633
10055TIP3   OH251655   4.387   1.086   1.281 -0.1085 -0.4447  0.2740
10055TIP3    H151656   4.473   1.075   1.321  0.4601  0.1559 -0.7704
10055TIP3    H251657   4.370   1.003   1.236 -0.6321 -1.0245  1.5073
10056TIP3   OH251658   2.120   5.352   0.395 -0.0821 -0.3478  0.1985
10056TIP3    H151659   2.196   5.294   0.387 -0.3282 -0.6460  0.0104
10056TIP3    H251660   2.156   5.440   0.391  0.1131 -0.4791 -1.3090
10057TIP3   OH251661   6.803   3.372  12.518  0.2245 -0.5119 -0.0608
10057TIP3    H151662   6.863   3.349  12.447  0.1758  0.4026 -0.3978
10057TIP3    H251663   6.754   3.447  12.486 -1.3104 -1.4135  0.1138
10058TIP3   OH251664   5.380   0.399   3.327 -0.0296  0.4045 -0.2247
10058TIP3    H151665   5.309   0.367   3.382 -1.0746  0.4727 -1.5175
10058TIP3    H251666   5.365   0.358   3.242  1.2659  0.7154 -0.6165
10059TIP3   OH251667   4.827   4.446  12.830  0.0701  0.3002 -0.1347
10059TIP3    H151668   4.756   4.476  12.774 -1.6625  0.5894  2.1414
10059TIP3    H251669   4.821   4.350  12.829 -0.9728  0.3395  0.7631
10060TIP3   OH251670   3.662   4.306  13.541 -0.2998  0.2716 -0.1857
10060TIP3    H151671   3.624   4.390  13.567  1.5146  1.1517 -0.3111
10060TIP3    H251672   3.666   4.311  13.445 -0.0456  0.1038 -0.1830
10061TIP3   OH251673   5.517   6.037   2.094  0.1554  0.2359 -0.0072
10061TIP3    H151674   5.530   6.060   2.186  0.3066 -1.1930  0.3318
10061TIP3    H251675   5.427   6.063   2.075 -0.7108 -1.7247  1.2445
10062TIP3   OH251676   2.292   2.023  12.518 -0.4563  0.6178 -0.5583
10062TIP3    H151677   2.342   2.099  12.546  0.6700  0.0821 -1.0822
10062TIP3    H251678   2.280   2.036  12.424 -0.0316  0.0305 -0.6973
10063TIP3   OH251679   4.304   0.548   0.746  0.3373 -0.7229  0.0001
10063TIP3    H151680   4.264   0.546   0.659  2.4203  0.2761 -1.0188
10063TIP3    H251681   4.232   0.527   0.806 -1.3144 -0.6154 -1.8902
10064TIP3   OH251682   5.349   1.596  13.908 -0.4361  0.5208  0.7753
10064TIP3    H151683   5.405   1.634  13.840 -1.4270  0.3782 -0.1460
10064TIP3    H251684   5.297   1.670  13.939 -0.9121  0.3334  0.4364
10065TIP3   OH251685   6.304   3.986  12.837 -0.3987  0.3936 -0.0465
10065TIP3    H151686   6.274   4.025  12.755  2.3649  1.1363 -0.7729
10065TIP3    H251687   6.235   4.005  12.900 -1.3604  2.1372 -1.5807
10066TIP3   OH251688   5.909   6.258   4.147 -0.3129  0.7558 -0.3602
10066TIP3    H151689   5.953   6.251   4.063 -0.7264  1.5301 -0.6477
10066TIP3    H251690   5.817   6.243   4.127 -0.1973 -0.7445  0.2195
10067TIP3   OH251691   1.750   2.463   3.536 -0.1511  0.1077  0.1251
10067TIP3    H151692   1.756   2.517   3.615 -0.6212 -0.5354  0.6100
10067TIP3    H251693   1.695   2.514   3.477 -2.9159 -1.0175  1.6064
10068TIP3   OH251694   4.689   0.698  17.232  0.5900  0.0098  0.1268
10068TIP3    H151695   4.655   0.775  17.186  0.0382 -0.4289 -0.2075
10068TIP3    H251696   4.646   0.624  17.189  1.4117 -0.5076  0.1928
10069TIP3   OH251697   5.432   4.002   4.089  0.0643 -0.2277  0.3500
10069TIP3    H151698   5.397   4.062   4.023 -0.9227  0.5009  1.5241
10069TIP3    H251699   5.525   3.995   4.068  0.2749  2.0374  0.4720
10070TIP3   OH251700   6.023   4.825   4.649 -0.5936  0.2392 -0.1566
10070TIP3    H151701   6.041   4.819   4.743 -0.9862  1.7661  0.0184
10070TIP3    H251702   5.977   4.908   4.638 -1.0303 -0.1786 -1.6302
10071TIP3   OH251703   3.949   0.913  16.681 -0.3520  0.6318 -0.6348
10071TIP3    H151704   3.987   0.826  16.670 -3.0121 -0.7685  0.7977
10071TIP3    H251705   4.025   0.971  16.688  1.5225 -1.9178  1.1997
10072TIP3   OH251706   5.024   5.340   0.432 -0.0466 -0.0310  0.4669
10072TIP3    H151707   4.993   5.430   0.439 -0.7252 -0.0932 -1.3842
10072TIP3    H251708   5.083   5.342   0.357  0.5242 -0.9728  0.8944
10073TIP3   OH251709   1.516   1.447  16.240 -0.1141 -0.3089 -0.3878
10073TIP3    H151710   1.580   1.376  16.234  2.0940  1.5799  0.0033
10073TIP3    H251711   1.527   1.482  16.329 -2.6713 -0.7869  0.1769
10074TIP3   OH251712   1.091   2.951  11.191  0.3139 -0.5183 -0.1065
10074TIP3    H151713   1.159   2.895  11.154 -0.3874 -1.4909  0.0765
10074TIP3    H251714   1.138   3.029  11.221  1.2031 -0.7220 -0.9375
10075TIP3   OH251715   1.396   2.591   1.178  0.6661  0.2065 -0.0997
10075TIP3    H151716   1.306   2.622   1.186  0.2875 -0.4192 -1.7545
10075TIP3    H251717   1.405   2.568   1.086  2.2399 -0.6027  0.2461
10076TIP3   OH251718   2.078   3.428   0.748  0.7287  0.1308  0.2281
10076TIP3    H151719   2.015   3.390   0.687  2.2889 -0.0942 -1.2806
10076TIP3    H251720   2.158   3.376   0.736  1.4068  0.8291  1.6172
10077TIP3   OH251721   0.672   3.696  14.215  0.4413  0.4294 -0.0954
10077TIP3    H151722   0.583   3.674  14.244  0.3880  1.1826  0.3376
10077TIP3    H251723   0.691   3.632  14.146 -0.1553 -0.1955  0.3074
10078TIP3   OH251724   3.961   0.943  15.654 -0.0805  0.4484  0.1519
10078TIP3    H151725   3.952   1.000  15.578 -0.2629 -0.4360 -0.5044
10078TIP3    H251726   3.908   0.984  15.722  0.0481  1.2233 -0.2103
10079TIP3   OH251727   1.000   0.412   0.402  0.6690  0.2863  0.3746
10079TIP3    H151728   1.008   0.334   0.458 -0.1481  0.6908  1.0775
10079TIP3    H251729   1.063   0.474   0.438 -0.6104  0.9468  1.5718
10080TIP3   OH251730   1.330   2.182   3.400 -0.3476  0.2854 -0.0991
10080TIP3    H151731   1.324   2.173   3.495  0.0212  1.8775  0.0897
10080TIP3    H251732   1.401   2.122   3.375 -0.4448 -0.1375  0.6297
10081TIP3   OH251733   4.333   5.439  13.442 -0.4988 -0.1144 -0.2917
10081TIP3    H151734   4.323   5.532  13.463 -0.1777  0.1510 -1.2975
10081TIP3    H251735   4.400   5.408  13.503 -2.3266 -0.2626  1.6853
10082TIP3   OH251736   5.815   5.028   5.436  0.2127 -0.1163  0.1901
10082TIP3    H151737   5.740   5.015   5.378  2.3706  3.0127 -3.5177
10082TIP3    H251738   5.775   5.055   5.519 -2.9016 -3.3040 -0.1343
10083TIP3   OH251739   6.645   4.142   5.361 -0.2582  0.0518  0.3632
10083TIP3    H151740   6.595   4.066   5.330  1.4698 -0.3923 -1.4700
10083TIP3    H251741   6.636   4.139   5.456 -1.6556 -1.4379  0.2173
10084TIP3   OH251742   5.489   5.216  14.459 -0.1080  0.1336 -0.1969
10084TIP3    H151743   5.448   5.173  14.534 -1.4804 -0.2779 -1.1645
10084TIP3    H251744   5.468   5.309  14.470 -0.3107  0.0735 -0.0717
10085TIP3   OH251745   6.361   5.880  13.362  0.2755 -0.1055  0.8792
10085TIP3    H151746   6.335   5.792  13.337  2.7325 -1.0197  1.3488
10085TIP3    H251747   6.400   5.917  13.283 -0.9717  0.6612  0.6149
10086TIP3   OH251748   0.718   0.931  14.950  0.4415 -0.4566 -0.0026
10086TIP3    H151749   0.674   1.010  14.918 -1.5489 -1.2832  0.5554
10086TIP3    H251750   0.686   0.922  15.040  2.4494 -0.6412  0.7185
10087TIP3   OH251751   4.432   4.655   4.680 -0.6814 -0.3625 -0.0481
10087TIP3    H151752   4.427   4.602   4.759 -0.9003 -1.2065 -0.6270
10087TIP3    H251753   4.400   4.598   4.610 -2.9775  1.2090 -0.3511
10088TIP3   OH251754   2.834   4.540  12.816 -0.1213  0.1053  0.3495
10088TIP3    H151755   2.784   4.563  12.894  0.6622 -0.0792  0.9190
10088TIP3    H251756   2.785   4.468  12.775 -1.2472  1.0950 -0.0694
10089TIP3   OH251757   1.857   1.044   0.337  0.1004 -0.0143  0.0353
10089TIP3    H151758   1.857   1.104   0.262 -1.9115  1.4792  1.1810
10089TIP3    H251759   1.929   1.075   0.392  1.4192 -0.9556 -1.1231
10090TIP3   OH251760   6.525   4.857  16.180 -0.1620  0.2308  0.2633
10090TIP3    H151761   6.585   4.917  16.225 -0.1346  1.2355 -1.0707
10090TIP3    H251762   6.512   4.897  16.094 -0.9420 -1.1745 -0.2868
10091TIP3   OH251763   2.963   2.458  11.718 -1.1227 -0.6394 -0.3883
10091TIP3    H151764   3.048   2.418  11.702 -0.7579 -0.9207  2.0659
10091TIP3    H251765   2.908   2.385  11.750 -1.1276  0.2800  1.8265
10092TIP3   OH251766   1.863   3.359  14.018 -0.2947 -0.2162  0.3222
10092TIP3    H151767   1.891   3.375  13.927  1.4677 -2.0285  0.5054
10092TIP3    H251768   1.829   3.270  14.017  2.3869 -1.3236  1.9869
10093TIP3   OH251769   6.789   2.083   0.285 -0.3063  0.5008  0.1913
10093TIP3    H151770   6.766   2.172   0.260  1.2894  0.7309 -0.5509
10093TIP3    H251771   6.860   2.093   0.349 -0.3447 -0.2240  0.3530
10094TIP3   OH251772   5.853   3.588   4.763 -0.6725  0.4269  0.0236
10094TIP3    H151773   5.841   3.493   4.769  1.9079  0.0452 -0.5808
10094TIP3    H251774   5.861   3.617   4.854 -1.5120  0.0901  0.2108
10095TIP3   OH251775   4.161   1.319  15.948 -0.0185  0.4866  0.5089
10095TIP3    H151776   4.122   1.233  15.961 -0.6921  1.0118  2.0741
10095TIP3    H251777   4.248   1.301  15.912 -1.1766 -0.7329 -1.7677
10096TIP3   OH251778   1.856   6.135   0.863 -0.7372  0.6374 -0.0572
10096TIP3    H151779   1.927   6.094   0.814  1.0845  1.3632  1.8942
10096TIP3    H251780   1.785   6.144   0.800  1.4794  1.4168 -2.5149
10097TIP3   OH251781   1.828   6.680  15.207 -0.4713 -0.2475  0.4744
10097TIP3    H151782   1.754   6.660  15.264 -1.1471 -0.1787 -0.3796
10097TIP3    H251783   1.868   6.757  15.247 -0.6353 -0.4958  1.1387
10098TIP3   OH251784   2.698   1.740   1.133 -0.0408 -0.1770 -0.1540
10098TIP3    H151785   2.789   1.770   1.134 -0.2481  0.6291 -2.3873
10098TIP3    H251786   2.686   1.702   1.046 -1.4761 -1.4934  0.5933
10099TIP3   OH251787   5.759   1.508  15.261 -0.7150  0.6747 -0.0377
10099TIP3    H151788   5.789   1.492  15.172 -0.1708 -1.4098  0.4925
10099TIP3    H251789   5.806   1.586  15.289  1.0846 -0.1645 -0.6659
10100TIP3   OH251790   4.874   1.737   1.874  0.0185  0.3722  0.9544
10100TIP3    H151791   4.951   1.743   1.817 -0.8937 -0.7188 -0.4642
10100TIP3    H251792   4.884   1.808   1.937  0.4199  2.4695 -1.3863
10101TIP3   OH251793   0.794   6.378   3.683 -0.1976  0.0715  0.5918
10101TIP3    H151794   0.704   6.385   3.653 -0.7302  0.1575  2.1604
10101TIP3    H251795   0.805   6.285   3.703 -0.0866  0.1323  0.8191
10102TIP3   OH251796   3.524   1.076  13.064 -0.1484 -0.0138  0.0423
10102TIP3    H151797   3.445   1.038  13.023 -0.1334  0.5153 -0.4816
10102TIP3    H251798   3.569   1.001  13.102  1.3467 -0.9637 -3.4519
10103TIP3   OH251799   2.537   2.514  11.462 -0.0939 -0.1123  0.3179
10103TIP3    H151800   2.616   2.460  11.460 -0.3888 -0.8204  4.1422
10103TIP3    H251801   2.550   2.572  11.537 -1.5894  2.3260 -1.2888
10104TIP3   OH251802   5.602   6.759  15.253 -0.6591 -0.4410 -0.1860
10104TIP3    H151803   5.522   6.779  15.206 -1.3899 -0.2522  1.1047
10104TIP3    H251804   5.574   6.744  15.343  0.8288  0.2098  0.4012
10105TIP3   OH251805   3.899   5.750  17.218  0.3815 -0.1469  0.2856
10105TIP3    H151806   3.893   5.816  17.148 -0.9802 -0.6412 -0.0817
10105TIP3    H251807   3.919   5.668  17.172  1.6045 -0.0952  0.6991
10106TIP3   OH251808   0.250   1.763   0.148 -0.4214 -0.3313  0.2088
10106TIP3    H151809   0.289   1.847   0.123  0.6929 -0.7438  0.5532
10106TIP3    H251810   0.258   1.761   0.243  0.2391 -1.1631  0.1365
10107TIP3   OH251811   0.768   6.559  16.688  0.3052 -0.8630  0.5390
10107TIP3    H151812   0.714   6.494  16.644 -0.3912 -0.0251  0.1523
10107TIP3    H251813   0.708   6.630  16.711  1.3420  0.4140 -0.5518
10108TIP3   OH251814   0.738   1.055  13.717 -0.2211 -0.0371 -0.6009
10108TIP3    H151815   0.758   1.143  13.685  1.7456 -0.2346  0.0228
10108TIP3    H251816   0.796   1.044  13.792 -0.6384 -1.7687 -0.5297
10109TIP3   OH251817   4.690   4.687   3.862  0.1914 -0.3155 -0.3618
10109TIP3    H151818   4.702   4.732   3.945 -1.9610 -2.7250  1.3219
10109TIP3    H251819   4.704   4.594   3.882 -1.0644 -1.0124 -2.5116
10110TIP3   OH251820   2.357   2.293  17.002 -0.0114 -0.2054  0.4568
10110TIP3    H151821   2.322   2.243  16.928 -2.2259  0.7535  0.8053
10110TIP3    H251822   2.450   2.306  16.980 -0.6181  0.0962 -2.1885
10111TIP3   OH251823   0.932   2.470  11.587  0.2403 -0.4774 -0.3822
10111TIP3    H151824   0.901   2.511  11.507 -2.8758  1.7232  1.8570
10111TIP3    H251825   0.976   2.540  11.635  1.1378 -1.5018  0.3234
10112TIP3   OH251826   4.940   1.315  15.328 -0.7654 -0.1596  0.3785
10112TIP3    H151827   4.880   1.245  15.351 -0.0168 -1.0290 -0.2531
10112TIP3    H251828   4.950   1.308  15.233  1.9219 -1.3889  0.6859
10113TIP3   OH251829   4.665   1.199   2.685 -0.2025 -0.0534  0.2733
10113TIP3    H151830   4.703   1.183   2.771 -2.6857  0.2498  1.4676
10113TIP3    H251831   4.682   1.292   2.669  0.5684 -0.1902  0.2517
10114TIP3   OH251832   3.922   3.546   1.027 -0.7803  0.1864  0.0250
10114TIP3    H151833   3.945   3.478   1.091  0.3433  0.9343  0.4178
10114TIP3    H251834   3.977   3.620   1.050 -2.6902  1.5901  0.2008
10115TIP3   OH251835   3.486   4.167  10.238 -0.3031  0.4489 -0.1880
10115TIP3    H151836   3.436   4.118  10.172  2.3476  0.3491 -2.1681
10115TIP3    H251837   3.506   4.102  10.305 -0.8270 -0.0624 -0.5151
10116TIP3   OH251838   0.992   0.723   3.443  0.4155  0.0508 -0.0581
10116TIP3    H151839   1.033   0.802   3.478  0.6443 -0.2824  0.4399
10116TIP3    H251840   1.065   0.662   3.429 -0.0651 -1.3319  2.8928
10117TIP3   OH251841   2.853   0.608  12.011 -0.2565  0.3314 -0.0619
10117TIP3    H151842   2.765   0.643  11.997 -0.0323  0.6531 -0.6688
10117TIP3    H251843   2.856   0.587  12.105 -0.9574  0.3752 -0.0292
10118TIP3   OH251844   0.652   3.370   4.745 -0.3858 -0.3367  0.0209
10118TIP3    H151845   0.680   3.280   4.761  1.0336  0.6289  3.2297
10118TIP3    H251846   0.560   3.362   4.718 -0.3228 -2.7002  0.3983
10119TIP3   OH251847   3.947   2.206   1.975 -0.6185 -1.3175 -0.2234
10119TIP3    H151848   3.928   2.195   2.069  1.4202 -2.6500  0.0652
10119TIP3    H251849   3.933   2.299   1.958 -1.0322 -1.0687  1.3942
10120TIP3   OH251850   5.664   1.199   1.299 -0.1717 -0.1770 -0.2676
10120TIP3    H151851   5.616   1.117   1.287 -0.7971  0.0940  0.3416
10120TIP3    H251852   5.599   1.268   1.282  0.9164  0.2353 -3.1070
10121TIP3   OH251853   5.972   3.913   3.106 -0.3074 -0.9622 -0.3261
10121TIP3    H151854   6.067   3.901   3.115  0.0136  0.9771 -0.8548
10121TIP3    H251855   5.954   3.994   3.154 -1.2214  0.2727 -2.6895
10122TIP3   OH251856   3.876   4.868  16.021 -0.2958 -0.4387  0.3904
10122TIP3    H151857   3.893   4.957  15.991  1.3685 -0.5432  0.9737
10122TIP3    H251858   3.854   4.877  16.114 -1.5675 -0.5134  0.1150
10123TIP3   OH251859   0.866   3.481  15.603  0.2627  0.0433 -0.0320
10123TIP3    H151860   0.866   3.547  15.534  0.6859  0.4607  0.3628
10123TIP3    H251861   0.897   3.401  15.561 -0.1392  0.1238 -0.4811
10124TIP3   OH251862   5.501   2.987  12.728 -0.3179 -0.1978  0.2272
10124TIP3    H151863   5.444   2.910  12.740  0.4994 -1.1413 -1.6812
10124TIP3    H251864   5.501   3.030  12.813 -1.4904 -1.8399  1.0949
10125TIP3   OH251865   2.824   0.658   5.680  0.0648 -0.4571  0.3774
10125TIP3    H151866   2.884   0.620   5.744  0.9783 -0.6073 -0.5457
10125TIP3    H251867   2.826   0.597   5.606 -0.1830  0.2310 -0.2069
10126TIP3   OH251868   3.231   2.478  15.415 -0.0755 -0.0584  0.2051
10126TIP3    H151869   3.219   2.571  15.397  1.5114  0.1439  0.1180
10126TIP3    H251870   3.317   2.457  15.378 -1.1743 -1.9807 -1.3504
10127TIP3   OH251871   4.548   0.586   2.051  0.0184  0.2230 -0.4089
10127TIP3    H151872   4.489   0.540   1.991 -1.0456  0.2929  0.5691
10127TIP3    H251873   4.500   0.665   2.076 -1.2674 -1.6845  3.5756
10128TIP3   OH251874   3.319   4.879   2.653  0.4078 -0.2309  0.1149
10128TIP3    H151875   3.298   4.792   2.686  0.1847 -0.2912 -0.1887
10128TIP3    H251876   3.329   4.868   2.559  1.3310 -0.1088  0.1970
10129TIP3   OH251877   3.948   4.891  15.166 -0.4537 -0.5433  0.0673
10129TIP3    H151878   4.025   4.834  15.164 -0.9716 -1.2532  0.1943
10129TIP3    H251879   3.878   4.838  15.127 -1.6422 -1.0558  2.7956
10130TIP3   OH251880   1.153   4.168  14.202 -0.3526 -0.0291 -0.5127
10130TIP3    H151881   1.236   4.178  14.156 -0.8305  0.2620 -1.3145
10130TIP3    H251882   1.146   4.074  14.218  1.0154  0.1261  1.2238
10131TIP3   OH251883   4.803   2.929  16.278 -0.1171  0.1158  0.2234
10131TIP3    H151884   4.779   3.019  16.301  0.2177  0.4998 -0.8975
10131TIP3    H251885   4.883   2.913  16.328  0.3161  0.7595 -0.2452
10132TIP3   OH251886   6.070   4.630   5.371 -0.5814  0.1423  0.3484
10132TIP3    H151887   6.143   4.689   5.388  0.1142 -0.5156 -0.3443
10132TIP3    H251888   6.009   4.647   5.443  0.1340  0.8710  0.7927
10133TIP3   OH251889   5.259   4.127   1.061 -0.1727  0.4358 -0.0465
10133TIP3    H151890   5.227   4.173   0.983 -0.3903 -1.6885 -1.2603
10133TIP3    H251891   5.190   4.063   1.081  0.4245  0.1624  1.1614
10134TIP3   OH251892   0.959   3.118   5.723 -0.2481  0.4446 -0.1502
10134TIP3    H151893   0.973   3.194   5.779  0.3725 -0.0267  0.3310
10134TIP3    H251894   0.867   3.126   5.695 -0.8281  0.2029  1.6331
10135TIP3   OH251895   1.013   4.622  14.456 -0.0141 -0.3580 -0.8584
10135TIP3    H151896   0.962   4.700  14.435  0.9477  0.3974 -0.4199
10135TIP3    H251897   0.949   4.550  14.456 -1.2016  0.6745  0.3653
10136TIP3   OH251898   1.117   1.877   3.025  0.9341 -0.5447  0.3267
10136TIP3    H151899   1.175   1.809   3.060 -1.4690 -1.9242  1.8285
10136TIP3    H251900   1.131   1.952   3.082  1.0281 -0.9677  0.8663
10137TIP3   OH251901   3.090   4.530  13.393  0.0673 -0.4309 -0.0660
10137TIP3    H151902   3.118   4.441  13.373  2.5761  0.2607  0.1481
10137TIP3    H251903   3.060   4.565  13.309 -1.3047 -1.6011 -0.0689
10138TIP3   OH251904   3.378   3.204   2.712  0.1120 -0.8133 -0.1670
10138TIP3    H151905   3.287   3.203   2.742 -0.0087 -0.7021 -0.5355
10138TIP3    H251906   3.427   3.235   2.788 -0.3893  1.1107 -0.6181
10139TIP3   OH251907   5.062   5.601  12.879  0.5300  0.4052 -0.0755
10139TIP3    H151908   5.001   5.536  12.914  1.9541 -0.6300  0.5226
10139TIP3    H251909   5.076   5.662  12.952  2.5150 -1.0420  0.7863
10140TIP3   OH251910   6.244   3.428  16.926 -0.0557  0.0139 -0.3212
10140TIP3    H151911   6.230   3.411  16.833 -0.6556 -2.8495  0.2543
10140TIP3    H251912   6.164   3.472  16.954 -0.6681 -0.7745 -0.7861
10141TIP3   OH251913   5.695   3.733   2.632  0.5900  0.7033 -0.1645
10141TIP3    H151914   5.721   3.683   2.710  0.7556  0.2480 -0.5069
10141TIP3    H251915   5.601   3.718   2.625  0.9067 -0.9013 -1.1944
10142TIP3   OH251916   0.790   6.217  15.408  0.2787 -0.1284 -0.3521
10142TIP3    H151917   0.791   6.245  15.500 -0.1660 -1.9491  0.2352
10142TIP3    H251918   0.733   6.279  15.365 -1.5124 -0.6982  1.1289
10143TIP3   OH251919   4.876   2.987   0.831 -0.4094 -0.3397 -0.0875
10143TIP3    H151920   4.849   2.997   0.922 -0.3477 -2.1717  0.1490
10143TIP3    H251921   4.795   2.996   0.780 -0.2376  2.1900 -0.0093
10144TIP3   OH251922   4.881   6.167  11.895 -0.0660  0.0425  0.4942
10144TIP3    H151923   4.885   6.147  11.802  0.1066 -0.2962  0.5768
10144TIP3    H251924   4.966   6.207  11.915 -0.7162  1.6475  0.1510
10145TIP3   OH251925   5.853   0.432   2.699  0.2427 -0.0867 -0.1119
10145TIP3    H151926   5.935   0.474   2.672 -1.1555  3.0258  0.1600
10145TIP3    H251927   5.853   0.440   2.794  0.1568 -1.1404 -0.0238
10146TIP3   OH251928   5.786   3.236   2.233  0.1149 -0.1686 -0.9090
10146TIP3    H151929   5.699   3.248   2.271 -0.5576 -0.0380 -2.4849
10146TIP3    H251930   5.772   3.235   2.139  1.7413 -0.8125 -1.1653
10147TIP3   OH251931   3.065   6.769   5.410 -0.3426 -0.5099 -0.2409
10147TIP3    H151932   3.114   6.788   5.489  0.1196  0.2744 -0.7145
10147TIP3    H251933   3.130   6.737   5.348 -0.4004  0.6035 -0.8923
10148TIP3   OH251934   4.783   5.857  16.660 -0.2447  0.0422 -0.2322
10148TIP3    H151935   4.812   5.765  16.659  0.3284  0.2219 -0.4887
10148TIP3    H251936   4.865   5.907  16.657 -0.4089  0.5804  2.6774
10149TIP3   OH251937   1.466   2.564   0.312  0.7555  0.9134 -0.1764
10149TIP3    H151938   1.380   2.550   0.351  0.6832  3.4099  0.6664
10149TIP3    H251939   1.448   2.601   0.226  0.9637  1.5006  0.0258
10150TIP3   OH251940   6.745   5.032  16.327 -1.1147  1.0294 -0.5905
10150TIP3    H151941   6.754   5.055  16.419 -0.8315  1.3930 -0.7068
10150TIP3    H251942   6.827   4.989  16.304 -1.1054  1.1215 -0.7274
10151TIP3   OH251943   1.303   4.326  12.972 -0.0526 -0.0083 -0.0260
10151TIP3    H151944   1.334   4.252  13.025 -1.7910 -0.9627 -0.2655
10151TIP3    H251945   1.274   4.285  12.890 -0.1554  1.0703 -0.5331
10152TIP3   OH251946   0.387   5.724   6.280  0.5695  0.0069  0.1736
10152TIP3    H151947   0.464   5.730   6.337  1.0148 -1.5305 -0.2516
10152TIP3    H251948   0.363   5.815   6.263  0.5482  0.5173  2.6610
10153TIP3   OH251949   2.824   0.131  11.145 -0.3603 -0.3525  0.1517
10153TIP3    H151950   2.884   0.160  11.077  1.0180  0.7563  1.7883
10153TIP3    H251951   2.858   0.046  11.172  2.1660  1.4114  2.9068
10154TIP3   OH251952   4.470   3.792   1.003 -0.0184 -0.0408  0.4244
10154TIP3    H151953   4.541   3.800   1.067 -0.1844  1.2695  0.4690
10154TIP3    H251954   4.503   3.838   0.926  0.0325 -1.2949 -0.3203
10155TIP3   OH251955   2.563   5.109   5.112  0.3385  0.1573 -0.0356
10155TIP3    H151956   2.487   5.108   5.054 -0.7683  0.1454  1.3761
10155TIP3    H251957   2.636   5.083   5.056 -0.7944 -0.4409 -1.2715
10156TIP3   OH251958   4.790   1.388  14.039 -0.0552  0.4515 -0.4416
10156TIP3    H151959   4.773   1.417  14.129 -0.3345  1.7199 -0.8969
10156TIP3    H251960   4.728   1.437  13.986 -0.0976 -0.5262 -1.3039
10157TIP3   OH251961   5.877   3.842   5.402 -0.1075  0.6212 -0.0057
10157TIP3    H151962   5.866   3.929   5.441 -1.4565  0.3179  0.3446
10157TIP3    H251963   5.801   3.793   5.435  0.8405 -0.7866  0.0931
10158TIP3   OH251964   2.629   0.650  12.315  0.0871 -0.4248 -0.0101
10158TIP3    H151965   2.599   0.560  12.330  0.6817 -0.4551  1.0982
10158TIP3    H251966   2.577   0.703  12.376 -0.3037 -0.0113 -0.7028
10159TIP3   OH251967   6.119   0.334  12.621 -0.6758  0.2822  0.2154
10159TIP3    H151968   6.176   0.268  12.581 -1.3379  0.4131 -0.9876
10159TIP3    H251969   6.060   0.284  12.677  0.1314  0.0697  0.8781
10160TIP3   OH251970   4.874   2.228  14.609  0.4434  0.5972 -0.0101
10160TIP3    H151971   4.837   2.273  14.685 -0.5809  2.0192 -1.3141
10160TIP3    H251972   4.826   2.145  14.604 -0.0355  0.8472  0.4287
10161TIP3   OH251973   3.930   0.754  10.805  0.5995  0.3671 -0.3467
10161TIP3    H151974   3.925   0.749  10.709  1.0197  1.7673 -0.4524
10161TIP3    H251975   3.884   0.676  10.835  1.6998 -0.8413 -1.7090
10162TIP3   OH251976   5.277   4.605   3.895 -0.1023 -0.2120  0.1292
10162TIP3    H151977   5.350   4.546   3.909  1.6005  1.7541 -0.3214
10162TIP3    H251978   5.294   4.646   3.811 -0.7415  1.6617  0.8874
10163TIP3   OH251979   4.012   0.873  16.033  0.6590  0.0091  0.4821
10163TIP3    H151980   3.941   0.935  16.050  1.3219  0.1535  2.9693
10163TIP3    H251981   4.071   0.920  15.973 -1.5750 -0.3261 -2.0351
10164TIP3   OH251982   4.443   5.168  10.950  0.0948  0.3577 -0.0509
10164TIP3    H151983   4.530   5.207  10.945 -0.0547  0.6072 -0.7451
10164TIP3    H251984   4.386   5.230  10.904 -0.4219  0.1106  0.2418
10165TIP3   OH251985   5.359   1.520  15.203 -0.6395  0.1499  0.0238
10165TIP3    H151986   5.357   1.592  15.140 -0.6992  0.4861  0.4096
10165TIP3    H251987   5.452   1.506  15.221 -0.6666  0.6709  0.5678
10166TIP3   OH251988   3.469   0.626  17.254 -0.3089 -0.4017  0.6300
10166TIP3    H151989   3.391   0.583  17.219 -0.3344  1.5022 -1.8160
10166TIP3    H251990   3.439   0.669  17.334 -2.7390  3.1415 -1.9995
10167TIP3   OH251991   0.904   4.620   3.703 -0.1218  0.7478  0.5051
10167TIP3    H151992   0.926   4.550   3.765  0.9409  0.7564  0.1450
10167TIP3    H251993   0.987   4.666   3.688  0.3837 -1.2703 -3.4639
10168TIP3   OH251994   5.582   2.131   4.412 -0.6309  0.4739 -0.0423
10168TIP3    H151995   5.511   2.191   4.391 -0.3777  1.6909  2.4735
10168TIP3    H251996   5.649   2.149   4.346 -1.5884  1.1230 -0.8513
10169TIP3   OH251997   5.051   2.574  13.186  0.3076 -0.5542  0.1065
10169TIP3    H151998   5.129   2.624  13.160 -0.0743  0.6266  1.2235
10169TIP3    H251999   4.992   2.583  13.111  0.1252  0.9268  0.4040
10170TIP3   OH252000   1.546   4.403  16.171  1.0375 -0.4939  0.7893
10170TIP3    H152001   1.518   4.365  16.254  0.0210 -0.3812  0.5006
10170TIP3    H252002   1.571   4.328  16.117  1.4907 -0.5817  1.1200
10171TIP3   OH252003   0.707   4.764   4.047 -0.2408  0.7108 -0.0295
10171TIP3    H152004   0.617   4.745   4.072  0.1036 -1.3660 -0.3020
10171TIP3    H252005   0.747   4.799   4.126 -1.1449  1.1638  0.2314
10172TIP3   OH252006   1.802   2.573   2.831 -0.1312 -0.6774 -0.5604
10172TIP3    H152007   1.837   2.661   2.823 -1.1639 -0.4900 -3.2808
10172TIP3    H252008   1.879   2.517   2.845  0.5933  0.5289  0.3216
10173TIP3   OH252009   5.703   4.533   1.795 -0.1799  0.0300 -0.4275
10173TIP3    H152010   5.719   4.457   1.739 -0.3830 -0.3872  0.0664
10173TIP3    H252011   5.702   4.608   1.736 -0.3515 -0.4005 -0.9720
10174TIP3   OH252012   2.106   1.102  11.243  0.0295 -0.2701  0.6389
10174TIP3    H152013   2.150   1.063  11.318  2.6007  0.4380 -0.4375
10174TIP3    H252014   2.075   1.028  11.190  1.9948 -0.8277  0.2498
10175TIP3   OH252015   6.083   4.100  17.024 -0.1155  0.7712 -0.1813
10175TIP3    H152016   6.142   4.027  17.044 -1.3855 -0.3480 -0.4584
10175TIP3    H252017   6.137   4.178  17.036  1.5127 -0.2361 -0.7513
10176TIP3   OH252018   2.021   1.898  11.179 -0.3009  0.9245 -0.0111
10176TIP3    H152019   1.927   1.881  11.181 -0.2148  0.5276  1.4698
10176TIP3    H252020   2.033   1.958  11.105 -1.7601  1.3161  0.0475
10177TIP3   OH252021   4.077   1.938  13.853 -0.4360  0.1357  0.2590
10177TIP3    H152022   4.066   1.846  13.831  0.8555  0.4670 -1.9035
10177TIP3    H252023   4.115   1.938  13.941  0.1672 -1.4007  0.0018
10178TIP3   OH252024   1.138   5.145  14.694  0.2135 -0.1103 -0.0087
10178TIP3    H152025   1.122   5.074  14.631 -1.6773  1.6140 -1.5283
10178TIP3    H252026   1.164   5.219  14.640 -3.2576  1.9444  1.0031
10179TIP3   OH252027   4.447   2.862   1.301 -0.1043 -0.4006  0.1655
10179TIP3    H152028   4.540   2.852   1.318  0.0343 -0.4821 -0.6230
10179TIP3    H252029   4.410   2.776   1.320 -0.0191 -0.3705  0.4722
10180TIP3   OH252030   3.752   0.386  12.833 -0.0510  0.1682  0.3026
10180TIP3    H152031   3.671   0.375  12.785  0.3759  1.9111 -0.8713
10180TIP3    H252032   3.819   0.346  12.777 -0.2095 -2.0729  1.6826
10181TIP3   OH252033   5.266   4.970  15.051  0.1746 -0.1655  0.0266
10181TIP3    H152034   5.296   4.898  14.996 -0.3392 -1.6324  1.6119
10181TIP3    H252035   5.346   5.012  15.082  0.5169 -0.9590  0.2354
10182TIP3   OH252036   0.842   1.215   3.497 -0.1994  0.0527  0.6820
10182TIP3    H152037   0.924   1.229   3.544  0.1613  1.0708 -0.2354
10182TIP3    H252038   0.801   1.301   3.494 -2.3874 -0.8491  3.0867
10183TIP3   OH252039   0.089   1.796  17.002 -0.2365  0.5976 -0.5853
10183TIP3    H152040   0.077   1.890  16.993 -0.9257  0.5808  0.0619
10183TIP3    H252041   0.068   1.778  17.094  0.1933 -0.1376 -0.6264
10184TIP3   OH252042   4.314   5.274   2.075  0.0878  0.0605  0.2898
10184TIP3    H152043   4.270   5.357   2.058 -0.4792 -0.0556  1.1753
10184TIP3    H252044   4.278   5.244   2.158  2.0875  0.1068  1.1910
10185TIP3   OH252045   1.609   5.180  14.534  0.0064 -0.3149 -0.1150
10185TIP3    H152046   1.653   5.111  14.584 -0.5331  0.6929  1.7638
10185TIP3    H252047   1.643   5.262  14.570 -0.9585  0.4434 -0.8954
10186TIP3   OH252048   4.363   4.046   2.540  0.8185  0.2454 -0.8484
10186TIP3    H152049   4.293   4.002   2.493  1.9954 -1.1881 -1.3181
10186TIP3    H252050   4.320   4.089   2.614 -0.7964  1.0069 -2.2019
10187TIP3   OH252051   6.664   6.672   0.870  0.1391 -0.0355 -0.9009
10187TIP3    H152052   6.686   6.764   0.853 -1.3082  0.4760 -0.1040
10187TIP3    H252053   6.606   6.648   0.797  0.5315 -0.3165 -1.1174
10188TIP3   OH252054   6.519   1.504  15.278  0.2340 -0.0173 -0.3410
10188TIP3    H152055   6.479   1.572  15.225 -0.8163  1.3454  2.0976
10188TIP3    H252056   6.466   1.426  15.262  0.2295  0.2427 -1.6191
10189TIP3   OH252057   5.526   2.534  13.791 -0.3012 -0.0381  0.9438
10189TIP3    H152058   5.572   2.610  13.827 -0.5136  0.2356  0.6293
10189TIP3    H252059   5.464   2.570  13.729 -0.4216 -0.4690  0.8126
10190TIP3   OH252060   2.206   0.198   1.745 -0.1872  0.1827 -0.0129
10190TIP3    H152061   2.275   0.260   1.769  0.8371 -1.6866  2.0558
10190TIP3    H252062   2.248   0.135   1.687 -0.0384 -1.0623  1.3926
10191TIP3   OH252063   2.798   0.135  13.295 -0.1952 -0.7599 -0.4756
10191TIP3    H152064   2.731   0.194  13.262  0.9208 -0.1167 -1.6321
10191TIP3    H252065   2.837   0.095  13.217  2.4189  0.7451 -0.0237
10192TIP3   OH252066   1.053   4.107   0.371 -0.1926  0.7846  0.7384
10192TIP3    H152067   1.096   4.113   0.286 -0.9542 -2.3490  0.0628
10192TIP3    H252068   1.125   4.096   0.434  0.1962 -1.4036 -0.0435
10193TIP3   OH252069   6.219   5.332  15.632 -0.1730 -0.2760  0.1951
10193TIP3    H152070   6.278   5.386  15.579 -1.7333  1.0125 -0.2749
10193TIP3    H252071   6.230   5.243  15.598  0.9044  0.0839 -0.4081
10194TIP3   OH252072   0.070   5.601   4.657 -0.3031  0.1979 -0.1540
10194TIP3    H152073   0.119   5.524   4.687  0.6370  0.2643 -1.4485
10194TIP3    H252074   0.034   5.639   4.736  1.5689 -0.0064  0.8301
10195TIP3   OH252075   0.258   4.736   3.368  0.4178  0.1641 -0.2956
10195TIP3    H152076   0.282   4.820   3.328  2.7290 -0.5295 -0.4219
10195TIP3    H252077   0.181   4.708   3.319 -0.0082  1.9179 -0.6667
10196TIP3   OH252078   1.509   3.364   1.665  0.2594 -0.5017 -0.0323
10196TIP3    H152079   1.448   3.436   1.650 -1.1607 -1.7722 -0.6042
10196TIP3    H252080   1.467   3.312   1.735  3.3844  1.5678  3.5513
10197TIP3   OH252081   2.763   3.859   2.478  0.8575 -0.4877 -0.0181
10197TIP3    H152082   2.815   3.828   2.404  1.1386  0.8960 -0.4152
10197TIP3    H252083   2.827   3.872   2.548  0.6612 -1.3300  0.3201
10198TIP3   OH252084   5.618   6.816   2.341  0.1185  0.4733 -0.3698
10198TIP3    H152085   5.653   6.905   2.336  1.1077  0.0962 -0.2762
10198TIP3    H252086   5.695   6.761   2.354 -0.4581 -0.4309 -0.7621
10199TIP3   OH252087   5.024   4.539   3.816  0.2282  0.3537 -0.2246
10199TIP3    H152088   5.088   4.563   3.883  1.6907 -1.5662 -0.8577
10199TIP3    H252089   4.984   4.621   3.789  0.3434  1.2668  2.2584
10200TIP3   OH252090   1.440   6.350   0.368 -0.6596  0.1761  0.3938
10200TIP3    H152091   1.468   6.437   0.395 -0.3004 -0.0989  0.9218
10200TIP3    H252092   1.386   6.365   0.291 -0.4667  0.8522  0.3867
10201TIP3   OH252093   4.032   4.580  12.679 -0.1008 -0.3352  0.5467
10201TIP3    H152094   4.090   4.507  12.703 -0.3263 -0.5092  0.5650
10201TIP3    H252095   4.028   4.634  12.758  0.3702 -0.1001  0.4111
10202TIP3   OH252096   1.024   3.417  16.539  0.5331 -0.0544  0.3991
10202TIP3    H152097   1.033   3.329  16.501 -1.0886  0.2104 -0.6478
10202TIP3    H252098   0.960   3.460  16.483 -2.4706  0.1656  3.8581
10203TIP3   OH252099   4.706   2.272   2.097  0.2514  0.2117 -0.4987
10203TIP3    H152100   4.799   2.272   2.120 -0.3841 -1.8282  2.4166
10203TIP3    H252101   4.668   2.340   2.153  0.1452  1.9570 -2.6307
10204TIP3   OH252102   0.382   3.318  14.560 -0.0754  0.3384  0.4510
10204TIP3    H152103   0.468   3.345  14.590 -0.1887 -1.2383  2.2396
10204TIP3    H252104   0.399   3.248  14.496 -0.0501 -0.3238  1.1840
10205TIP3   OH252105   3.006   2.261   4.031 -0.4300 -0.1755  0.6518
10205TIP3    H152106   3.046   2.274   3.944 -1.3938  0.8474  0.3595
10205TIP3    H252107   3.042   2.177   4.061 -1.5482 -1.4945 -1.5526
10206TIP3   OH252108   2.050   0.735  11.687  0.1409 -0.2661 -0.0934
10206TIP3    H152109   2.121   0.692  11.640 -0.0161  1.1341 -1.6543
10206TIP3    H252110   2.044   0.687  11.769  1.2891 -1.9354 -0.9422
10207TIP3   OH252111   0.595   1.245  15.353 -0.5330 -0.4849 -0.7800
10207TIP3    H152112   0.600   1.334  15.320 -0.7333 -0.6663 -1.3203
10207TIP3    H252113   0.529   1.248  15.422 -0.0958 -0.0942 -0.3774
10208TIP3   OH252114   2.065   6.099   2.670 -0.4173  0.0238  0.2875
10208TIP3    H152115   2.070   6.112   2.765 -0.2404  0.6905  0.1875
10208TIP3    H252116   2.070   6.004   2.659 -2.7232 -0.2293  1.0864
10209TIP3   OH252117   1.815   3.499   5.162 -0.0241 -0.3616  0.6253
10209TIP3    H152118   1.903   3.479   5.196  0.2261  0.6896  0.6095
10209TIP3    H252119   1.782   3.567   5.221  0.0516  0.8261 -0.6863
10210TIP3   OH252120   3.973   1.500   2.018 -0.1056 -0.1765 -0.2027
10210TIP3    H152121   4.055   1.452   2.030  0.1671  0.4506  0.4653
10210TIP3    H252122   3.961   1.503   1.923  0.5616 -0.4117 -0.2976
10211TIP3   OH252123   5.385   2.438  15.312  0.2730 -0.8004 -0.0057
10211TIP3    H152124   5.327   2.395  15.375 -0.5463  0.0236 -0.1964
10211TIP3    H252125   5.361   2.530  15.315  1.7190 -0.4059  0.0610
10212TIP3   OH252126   2.755   3.088  15.875  0.0422 -0.5741  0.0184
10212TIP3    H152127   2.729   3.149  15.944  0.2688 -0.7374  0.2467
10212TIP3    H252128   2.778   3.008  15.921 -0.8015 -1.0161 -0.3300
10213TIP3   OH252129   1.233   5.021   1.863 -0.3750 -0.6481 -1.0077
10213TIP3    H152130   1.271   5.092   1.916  0.2667 -1.7823  0.0650
10213TIP3    H252131   1.286   5.020   1.784  1.2712 -1.6004  0.0756
10214TIP3   OH252132   6.230   4.041  15.869 -0.3605  0.0704 -0.2958
10214TIP3    H152133   6.229   3.964  15.926 -0.8117 -0.6737 -1.2976
10214TIP3    H252134   6.155   4.094  15.899 -1.5164 -1.0419 -1.1627
10215TIP3   OH252135   1.067   4.302   2.039 -0.2342 -0.1433  0.5509
10215TIP3    H152136   1.046   4.377   2.095 -2.2651 -0.1820 -0.1099
10215TIP3    H252137   1.060   4.336   1.950 -0.4132 -0.9100  0.2698
10216TIP3   OH252138   1.889   4.086   4.305 -0.0775  0.5412 -0.2487
10216TIP3    H152139   1.957   4.138   4.347  1.5167 -0.9540 -0.9019
10216TIP3    H252140   1.909   3.995   4.331 -2.1077  0.1215 -0.0635
10217TIP3   OH252141   2.621   3.880  16.008 -0.2385  0.1307 -0.0559
10217TIP3    H152142   2.610   3.921  16.094 -1.3148 -0.1490 -0.0523
10217TIP3    H252143   2.711   3.846  16.009  0.3699  1.7067  0.2639
10218TIP3   OH252144   1.047   0.658  12.825 -0.7231 -0.3516  0.9758
10218TIP3    H152145   1.036   0.741  12.871  0.3113  0.6708 -0.5642
10218TIP3    H252146   0.957   0.629  12.806 -1.1038  0.0410  2.1380
10219TIP3   OH252147   4.881   0.687   4.593 -0.4300 -0.8407 -0.0130
10219TIP3    H152148   4.923   0.638   4.663 -1.5393 -0.8218  0.6718
10219TIP3    H252149   4.802   0.637   4.572 -0.4860 -0.4591 -0.7405
10220TIP3   OH252150   1.276   1.984  16.176  0.5949  0.1355 -0.2849
10220TIP3    H152151   1.307   1.897  16.149  0.8951  0.3693 -0.7036
10220TIP3    H252152   1.266   2.032  16.093  2.3298  1.1428  0.0754
10221TIP3   OH252153   2.754   4.253  11.455 -0.4770  0.4029  0.2602
10221TIP3    H152154   2.676   4.245  11.510 -1.4843  0.6148 -1.1030
10221TIP3    H252155   2.720   4.279  11.369  1.0996  0.5015 -0.3513
10222TIP3   OH252156   0.047   5.021   0.681  0.7102  0.0420 -0.1799
10222TIP3    H152157  -0.022   5.064   0.732  1.2389 -0.8243  1.2945
10222TIP3    H252158   0.008   5.009   0.594 -0.6945  0.3081  0.3946
10223TIP3   OH252159   1.844   3.038   4.711 -0.2890  0.2952 -0.4634
10223TIP3    H152160   1.871   2.955   4.670  0.3906 -0.0965  0.7523
10223TIP3    H252161   1.748   3.035   4.709 -0.2722  0.3834 -2.2066
10224TIP3   OH252162   0.741   1.067  16.008 -0.6629 -0.1134  0.5804
10224TIP3    H152163   0.813   1.093  15.950  0.2804  0.4113  1.9540
10224TIP3    H252164   0.784   1.044  16.091 -1.7676 -3.2545  0.3210
10225TIP3   OH252165   4.983   2.082   3.338  0.4729  0.8647  0.3338
10225TIP3    H152166   4.914   2.019   3.317  1.1900  0.6050 -1.3180
10225TIP3    H252167   4.983   2.142   3.263  1.6770  1.1777  0.5875
10226TIP3   OH252168   0.594   6.275   6.143  0.3853  0.4203  0.2205
10226TIP3    H152169   0.678   6.314   6.167  0.8532  0.2719 -1.1398
10226TIP3    H252170   0.589   6.285   6.048 -0.0814 -1.6103 -0.0031
10227TIP3   OH252171   6.416   2.376  10.935 -0.7722  0.4177 -0.1071
10227TIP3    H152172   6.400   2.290  10.896 -1.9772  0.5476  0.0993
10227TIP3    H252173   6.497   2.365  10.985 -0.1299 -0.2083 -1.2520
10228TIP3   OH252174   6.474   6.247   0.240  0.5542  0.9960 -0.6160
10228TIP3    H152175   6.425   6.230   0.320 -0.4765 -0.7753 -1.5843
10228TIP3    H252176   6.533   6.319   0.262 -0.8799  1.6245  1.2327
10229TIP3   OH252177   4.447   2.658   0.156  0.9528 -0.4973  0.9319
10229TIP3    H152178   4.452   2.713   0.078  1.0038 -1.4603  0.2494
10229TIP3    H252179   4.530   2.609   0.156  1.2827  0.0555  2.0051
10230TIP3   OH252180   4.640   6.068   0.804  0.5599  0.1664  0.0166
10230TIP3    H152181   4.656   6.015   0.881 -0.1398  0.0181  0.0555
10230TIP3    H252182   4.570   6.128   0.829 -0.3409 -0.5201 -0.7951
10231TIP3   OH252183   0.697   6.630  15.519  0.5285 -0.2786  0.4026
10231TIP3    H152184   0.673   6.721  15.504 -1.7348 -0.9127 -0.0207
10231TIP3    H252185   0.628   6.595  15.575  0.8126 -1.9992 -0.2637
10232TIP3   OH252186   4.406   6.055   5.749  0.1644 -0.7101 -0.4075
10232TIP3    H152187   4.417   5.987   5.816  0.4614 -0.5465 -0.2887
10232TIP3    H252188   4.342   6.115   5.787  1.8678  0.4813  0.6042
10233TIP3   OH252189   4.326   6.672   0.582  0.0937  0.2863 -0.5500
10233TIP3    H152190   4.263   6.604   0.560  0.7012  0.0189 -1.5238
10233TIP3    H252191   4.327   6.729   0.506  2.8397 -1.1016 -1.6489
10234TIP3   OH252192   6.125   5.689  13.034  0.7465  0.2685 -0.4595
10234TIP3    H152193   6.064   5.681  12.960  1.8649 -0.0691 -1.3594
10234TIP3    H252194   6.154   5.780  13.032  1.4142  0.0440 -0.9431
10235TIP3   OH252195   1.320   5.287   3.658 -0.2311  0.1453  0.2720
10235TIP3    H152196   1.311   5.375   3.621  0.5218  0.3682  0.6031
10235TIP3    H252197   1.262   5.288   3.734 -0.6441  0.1747 -0.0416
10236TIP3   OH252198   5.085   2.309  11.819 -0.5524  0.1501 -0.1968
10236TIP3    H152199   5.174   2.343  11.816 -1.2618  2.1203  0.2537
10236TIP3    H252200   5.065   2.301  11.913 -0.8794 -0.1529 -0.2917
10237TIP3   OH252201   6.206   6.761  13.283  0.3213  0.3494 -0.1055
10237TIP3    H152202   6.149   6.823  13.328  2.2473  0.8600  1.6820
10237TIP3    H252203   6.279   6.813  13.251  0.2229 -0.4408 -1.7021
10238TIP3   OH252204   1.123   3.967   1.992  0.3471  0.4509  0.0460
10238TIP3    H152205   1.144   4.040   2.050 -1.2105  0.1106  1.0772
10238TIP3    H252206   1.206   3.944   1.950  1.1046  1.9489  0.6982
10239TIP3   OH252207   3.341   3.529  15.442 -0.7681  0.5663 -0.5628
10239TIP3    H152208   3.345   3.558  15.351 -1.7893  2.3691 -0.0354
10239TIP3    H252209   3.430   3.542  15.475 -1.0003  2.3504 -0.5807
10240TIP3   OH252210   6.211   1.656  12.949  0.6224  0.6427  0.2820
10240TIP3    H152211   6.174   1.744  12.949  0.0495  0.4555 -1.9753
10240TIP3    H252212   6.261   1.651  12.867 -0.7849 -1.6667 -0.5129
10241TIP3   OH252213   4.553   0.080  12.592 -0.4359  0.0282 -0.1876
10241TIP3    H152214   4.644   0.055  12.609 -0.5645 -0.0783  0.3373
10241TIP3    H252215   4.535   0.150  12.656 -0.3947  0.7730 -0.9787
10242TIP3   OH252216   4.307   1.883   4.097 -0.1846 -0.6826  0.3480
10242TIP3    H152217   4.337   1.832   4.173 -2.2451 -1.0381  0.9570
10242TIP3    H252218   4.361   1.851   4.025  1.7955 -0.3631  1.6341
10243TIP3   OH252219   0.718   2.349  15.513  0.2126 -0.4276  0.2002
10243TIP3    H152220   0.687   2.324  15.426  0.3785 -0.0424  0.0281
10243TIP3    H252221   0.788   2.287  15.532  1.0705  0.3020 -0.5055
10244TIP3   OH252222   0.792   3.916  12.121  0.1884  0.3497  0.0309
10244TIP3    H152223   0.699   3.938  12.120  0.0518 -0.2195  0.1319
10244TIP3    H252224   0.822   3.931  12.031 -0.4514 -1.3924 -0.4818
10245TIP3   OH252225   3.949   6.250   1.359  0.1914 -0.0036  0.0273
10245TIP3    H152226   3.983   6.258   1.448 -0.1528 -0.5206  0.2080
10245TIP3    H252227   3.860   6.285   1.365 -0.4350 -1.5892  0.2695
10246TIP3   OH252228   3.149   6.417  13.161 -0.0013  0.2960  0.8884
10246TIP3    H152229   3.165   6.357  13.089 -0.3920 -0.8062  1.7135
10246TIP3    H252230   3.078   6.377  13.211  0.7580  0.6717  2.3008
10247TIP3   OH252231   6.554   4.156  16.119  0.1345  0.1427  0.0653
10247TIP3    H152232   6.547   4.070  16.077  2.6206 -0.1531  0.1736
10247TIP3    H252233   6.578   4.136  16.210 -1.8544  0.8980  0.7873
10248TIP3   OH252234   1.922   4.826   3.980  0.3526  0.4099 -0.1035
10248TIP3    H152235   2.017   4.827   3.969  0.5066  2.2626  1.3530
10248TIP3    H252236   1.888   4.820   3.890  1.8218 -2.4039 -0.5428
10249TIP3   OH252237   3.040   5.834  13.489 -0.1357 -0.0741 -0.0752
10249TIP3    H152238   3.093   5.900  13.443 -0.2063  0.1618  0.1773
10249TIP3    H252239   2.966   5.818  13.431  1.0753 -1.6580 -1.2163
10250TIP3   OH252240   2.984   2.494  15.562  0.2103  0.1071  0.6587
10250TIP3    H152241   2.992   2.418  15.619  0.0346 -0.6317 -0.2782
10250TIP3    H252242   3.067   2.498  15.514 -0.5219 -0.6848 -0.7185
10251TIP3   OH252243   4.476   2.954   0.243 -0.4114  0.2107 -0.7509
10251TIP3    H152244   4.511   3.043   0.240 -0.0677  0.2491  2.3895
10251TIP3    H252245   4.496   2.917   0.157  1.1074  2.5514 -1.4483
10252TIP3   OH252246   1.423   6.794   4.134 -0.1347 -0.4083 -0.1217
10252TIP3    H152247   1.375   6.773   4.054  0.6085  2.2152 -1.3207
10252TIP3    H252248   1.357   6.828   4.194 -0.1649  1.0019 -0.9360
10253TIP3   OH252249   5.159   3.031   2.334  0.4259 -0.6533 -0.7725
10253TIP3    H152250   5.076   2.982   2.336 -0.3551  0.6725  1.0714
10253TIP3    H252251   5.182   3.035   2.242 -2.8132  0.9761 -1.5701
10254TIP3   OH252252   3.571   0.293  14.249  0.1709  0.5077 -0.3832
10254TIP3    H152253   3.505   0.346  14.293  0.9999 -0.1169  1.6558
10254TIP3    H252254   3.633   0.357  14.213  1.0420  0.9680  1.8592
10255TIP3   OH252255   2.205   2.141  13.742 -0.1103  0.8969 -0.2733
10255TIP3    H152256   2.289   2.169  13.779 -0.5336  1.4662  0.2730
10255TIP3    H252257   2.162   2.223  13.716 -0.0507  0.5329 -1.5243
10256TIP3   OH252258   5.969   5.089  15.873 -0.6423  0.1826 -0.4077
10256TIP3    H152259   5.881   5.109  15.905 -0.0643  2.1120  0.0424
10256TIP3    H252260   5.955   5.029  15.799 -2.2711 -0.1372  0.1424
10257TIP3   OH252261   6.324   3.768  15.617 -0.2143  0.7852  0.2555
10257TIP3    H152262   6.407   3.725  15.638  0.6645  3.1364  1.8157
10257TIP3    H252263   6.334   3.797  15.526  0.2353  0.0707  0.0766
10258TIP3   OH252264   3.038   6.788   4.678 -0.5502 -0.1517 -0.0993
10258TIP3    H152265   3.026   6.724   4.748 -0.9532 -1.4658 -1.3640
10258TIP3    H252266   3.062   6.736   4.601 -0.7231  1.2218 -1.0979
10259TIP3   OH252267   3.208   2.288  11.899  0.0615  0.1811  0.3267
10259TIP3    H152268   3.160   2.369  11.915  1.0497  0.9313 -0.4047
10259TIP3    H252269   3.236   2.259  11.985 -0.9264  0.2210  0.6649
10260TIP3   OH252270   6.010   4.855  11.738  0.8632 -0.3932 -0.5843
10260TIP3    H152271   5.998   4.950  11.734  1.6844 -0.2827 -0.4396
10260TIP3    H252272   5.939   4.820  11.685  0.6128  0.3098 -0.7170
10261TIP3   OH252273   4.766   6.296   1.278 -0.1909 -0.7809  0.0662
10261TIP3    H152274   4.722   6.273   1.196  1.1421  1.4088 -1.3238
10261TIP3    H252275   4.695   6.317   1.338 -1.1866 -2.2608 -0.5521
10262TIP3   OH252276   0.396   6.304   3.142 -0.2781 -0.2283  0.0771
10262TIP3    H152277   0.422   6.226   3.093  1.1277 -0.2426  0.8166
10262TIP3    H252278   0.340   6.272   3.212  0.5889 -0.6392  0.5962
10263TIP3   OH252279   2.357   5.236  16.658  0.3303  0.3467  0.1966
10263TIP3    H152280   2.308   5.217  16.738  0.4664 -1.0881 -0.0416
10263TIP3    H252281   2.304   5.301  16.612 -2.2815 -2.3897 -0.8685
10264TIP3   OH252282   5.715   0.186   3.504 -0.1839 -0.2986 -0.0982
10264TIP3    H152283   5.725   0.132   3.583  0.8730  1.2505  0.8516
10264TIP3    H252284   5.696   0.273   3.537  0.7190  0.4651 -1.5539
10265TIP3   OH252285   2.897   6.004  11.845 -0.6152  0.1529  0.0063
10265TIP3    H152286   2.814   5.968  11.875 -1.1242  0.6566 -0.7514
10265TIP3    H252287   2.959   5.987  11.916 -1.2292 -0.7492  0.3264
10266TIP3   OH252288   2.139   3.085  12.918  0.3587 -0.1945 -0.1104
10266TIP3    H152289   2.115   3.095  13.010  0.9876  0.2196  0.0124
10266TIP3    H252290   2.159   2.992  12.909  4.3402  0.4213  1.1893
10267TIP3   OH252291   3.248   4.484  14.001  0.2987 -0.4145 -0.2471
10267TIP3    H152292   3.300   4.501  13.922  0.8534  0.5679  0.3203
10267TIP3    H252293   3.167   4.445  13.968 -0.3515  1.8758 -1.5201
10268TIP3   OH252294   2.572   5.563  15.562 -0.5453 -0.1393  0.4322
10268TIP3    H152295   2.650   5.607  15.528 -1.1714  0.9311  0.3645
10268TIP3    H252296   2.551   5.610  15.642 -0.2860 -1.3539  1.2313
10269TIP3   OH252297   0.527   3.863  13.377  0.5587  0.4204  0.0936
10269TIP3    H152298   0.531   3.926  13.305 -1.7483 -0.4491 -0.8808
10269TIP3    H252299   0.501   3.781  13.335 -0.2185 -0.2523  1.8252
10270TIP3   OH252300   1.272   0.368   3.988  0.1784  0.5434 -0.2760
10270TIP3    H152301   1.326   0.446   4.005  0.7946  0.7357 -2.9234
10270TIP3    H252302   1.267   0.363   3.893 -1.3066 -1.6920 -0.1052
10271TIP3   OH252303   5.593   4.130   3.132  0.0351  0.4955 -0.5775
10271TIP3    H152304   5.614   4.212   3.087  0.4617  0.5507 -0.2742
10271TIP3    H252305   5.641   4.063   3.084  1.0578  0.6448  0.2228
10272TIP3   OH252306   4.468   3.182   2.700 -0.5298  0.1996 -0.2003
10272TIP3    H152307   4.529   3.182   2.627  1.4359  0.7557  1.4173
10272TIP3    H252308   4.478   3.096   2.740 -0.2604  0.5585  0.5109
10273TIP3   OH252309   5.673   1.156  13.652 -0.2905 -0.6446  0.5073
10273TIP3    H152310   5.687   1.062  13.650 -1.3487 -0.7991  0.0313
10273TIP3    H252311   5.759   1.194  13.631  0.4871 -1.4576  2.1384
10274TIP3   OH252312   5.806   0.383   0.044 -0.0487  0.2383  0.8629
10274TIP3    H152313   5.793   0.469   0.003  1.0984 -0.7282 -1.6067
10274TIP3    H252314   5.736   0.329   0.009  1.5983 -0.9028 -0.7585
10275TIP3   OH252315   5.358   3.071  14.160  0.1068  0.3056 -0.6049
10275TIP3    H152316   5.321   2.983  14.158 -1.8633  1.0929 -0.0015
10275TIP3    H252317   5.282   3.129  14.163  1.3792  2.0234 -0.7520
10276TIP3   OH252318   4.540   0.247   1.503  0.3139 -0.6436 -0.0957
10276TIP3    H152319   4.631   0.234   1.529  0.0726 -1.5827  0.3101
10276TIP3    H252320   4.491   0.243   1.585  0.0130  0.9516 -0.1860
10277TIP3   OH252321   5.518   4.230  14.949  0.3169 -0.3089 -0.0748
10277TIP3    H152322   5.466   4.151  14.931 -1.0008  0.5704 -0.2151
10277TIP3    H252323   5.609   4.201  14.940 -0.1479 -1.7676 -0.3100
10278TIP3   OH252324   1.600   1.095   2.837 -0.2212  0.6321  0.2118
10278TIP3    H152325   1.674   1.038   2.816  0.6656  1.3290  1.4047
10278TIP3    H252326   1.577   1.072   2.927 -0.9341  0.9908  0.1203
10279TIP3   OH252327   2.003   5.325  15.112 -0.5212  0.3563 -0.1589
10279TIP3    H152328   2.016   5.239  15.072 -0.0725  0.7687 -0.8971
10279TIP3    H252329   1.935   5.310  15.178  0.8820 -0.9693  1.0292
10280TIP3   OH252330   4.473   5.909  17.161 -0.4757  0.3061 -0.2695
10280TIP3    H152331   4.559   5.952  17.156 -0.2808  0.6078  3.7423
10280TIP3    H252332   4.493   5.816  17.155  0.1394  0.3859  0.3995
10281TIP3   OH252333   5.504   2.474   5.018 -0.3165  0.0097  0.4828
10281TIP3    H152334   5.449   2.437   5.087  0.0439 -0.5717  0.4542
10281TIP3    H252335   5.483   2.422   4.941  1.2531 -1.0645  0.7795
10282TIP3   OH252336   4.475   3.364  16.087  0.2125 -0.1989 -0.0349
10282TIP3    H152337   4.381   3.377  16.097  0.1929 -1.1639  1.2019
10282TIP3    H252338   4.482   3.280  16.041  0.4492  0.8204 -1.9174
10283TIP3   OH252339   3.909   4.497  16.813  0.1213 -0.5889 -0.4220
10283TIP3    H152340   4.002   4.507  16.794 -0.4187  3.6763 -1.4499
10283TIP3    H252341   3.880   4.425  16.757  2.5810 -1.2677 -0.8600
10284TIP3   OH252342   4.915   4.134  11.369 -0.3572 -0.2156  0.5461
10284TIP3    H152343   4.849   4.163  11.306 -0.2843 -0.2331  0.4617
10284TIP3    H252344   4.996   4.128  11.318 -0.5492 -1.3843  0.3777
10285TIP3   OH252345   2.458   5.591   5.986  0.3885  0.0580 -0.1171
10285TIP3    H152346   2.408   5.613   6.065  0.7948  0.9211 -0.0943
10285TIP3    H252347   2.415   5.514   5.951 -0.5798  0.4230  0.2549
10286TIP3   OH252348   0.979   5.179  12.666  0.5518 -0.3844  0.2077
10286TIP3    H152349   1.066   5.139  12.658  2.2209  2.8238  1.3496
10286TIP3    H252350   0.972   5.204  12.759 -0.6195  1.4118 -0.3283
10287TIP3   OH252351   0.324   5.995  15.490 -0.1223  0.6191  0.2846
10287TIP3    H152352   0.306   6.085  15.461  0.7593  0.9822  0.8437
10287TIP3    H252353   0.410   5.976  15.454 -0.3853 -0.0649  0.0264
10288TIP3   OH252354   1.648   5.636  15.310  0.6939  0.2791 -0.1226
10288TIP3    H152355   1.555   5.642  15.287  0.5993  0.4481  0.3149
10288TIP3    H252356   1.692   5.623  15.226  0.2286 -0.3025 -0.2804
10289TIP3   OH252357   5.492   5.387   5.287  0.4906  0.0614 -0.2498
10289TIP3    H152358   5.455   5.300   5.271  1.0284 -0.3851  0.9148
10289TIP3    H252359   5.578   5.370   5.325  0.1627  1.0972  0.9853
10290TIP3   OH252360   4.974   3.140  12.906 -0.3672 -0.4842  0.0793
10290TIP3    H152361   4.962   3.227  12.946 -0.4680  0.1055 -1.2085
10290TIP3    H252362   5.050   3.150  12.849 -0.7543 -1.0754 -0.5496
10291TIP3   OH252363   1.944   6.819  17.052 -0.5142 -0.0871 -0.4891
10291TIP3    H152364   1.955   6.806  17.146 -0.1768 -0.1497 -0.5367
10291TIP3    H252365   1.861   6.775  17.032 -1.2247  0.9991 -0.0039
10292TIP3   OH252366   5.633   1.181   3.895 -0.0376 -0.0474  0.2569
10292TIP3    H152367   5.576   1.250   3.930  0.3177  0.9278 -1.0676
10292TIP3    H252368   5.573   1.119   3.854 -0.4097 -0.8739  1.9918
10293TIP3   OH252369   1.254   3.415  12.553  0.2515  0.6005  0.1098
10293TIP3    H152370   1.166   3.423  12.518  0.4367 -1.0376 -0.8008
10293TIP3    H252371   1.250   3.460  12.638 -1.4320  0.6146  0.0443
10294TIP3   OH252372   6.058   4.589  10.756  0.2263 -0.5440  0.4349
10294TIP3    H152373   6.089   4.530  10.688 -0.2862 -0.6416  0.2844
10294TIP3    H252374   6.113   4.667  10.748  1.7520 -1.4923  1.4554
10295TIP3   OH252375   0.369   4.300  15.570  0.0126 -0.0480  0.0382
10295TIP3    H152376   0.437   4.353  15.528 -0.0992  0.2132  0.1940
10295TIP3    H252377   0.382   4.313  15.664 -0.7341  0.5981  0.0541
10296TIP3   OH252378   6.470   5.557  12.129  0.5479 -0.6384  0.5625
10296TIP3    H152379   6.558   5.591  12.107 -0.3402  1.3790 -0.0239
10296TIP3    H252380   6.464   5.566  12.224 -0.0170  1.8171  0.3270
10297TIP3   OH252381   2.288   2.098   2.730 -0.2879  0.0998 -0.2109
10297TIP3    H152382   2.353   2.027   2.739 -0.9591 -0.4069  0.7165
10297TIP3    H252383   2.314   2.143   2.650  1.3046 -0.0100  0.2100
10298TIP3   OH252384   4.644   1.682   6.047 -0.6645  0.1100 -0.0685
10298TIP3    H152385   4.684   1.765   6.024  0.3987  0.0568  1.5039
10298TIP3    H252386   4.642   1.632   5.966 -0.5145  1.3381 -0.8313
10299TIP3   OH252387   2.866   5.464   3.498  0.3319 -0.0104 -0.4526
10299TIP3    H152388   2.921   5.530   3.455 -0.4354  1.6938  1.1028
10299TIP3    H252389   2.798   5.515   3.542 -1.2635 -1.9631 -0.5755
10300TIP3   OH252390   6.234   2.983   5.941 -0.0678  0.5102  0.0173
10300TIP3    H152391   6.232   2.932   5.860 -3.3616 -1.8833  1.5244
10300TIP3    H252392   6.299   2.939   5.996 -0.0020  0.3765 -0.1676
10301TIP3   OH252393   2.112   2.192  14.869  0.1006 -0.3226  0.0765
10301TIP3    H152394   2.144   2.229  14.787  0.8901  2.0745  1.4197
10301TIP3    H252395   2.024   2.229  14.879 -0.7176 -2.0368 -0.5487
10302TIP3   OH252396   0.572   1.940  10.817 -0.1645 -0.4856 -0.4924
10302TIP3    H152397   0.509   1.929  10.745 -0.3773  1.0962 -0.5667
10302TIP3    H252398   0.517   1.956  10.894  0.1178  0.1578 -0.4226
10303TIP3   OH252399   1.706   5.656   3.150  0.3922  0.1617 -0.1544
10303TIP3    H152400   1.668   5.729   3.200 -1.2955 -2.0039  1.8356
10303TIP3    H252401   1.757   5.608   3.215 -0.7487 -1.9469 -0.7918
10304TIP3   OH252402   1.832   2.756  16.363  0.3043  0.2837 -0.7030
10304TIP3    H152403   1.797   2.768  16.452  1.4308  1.8293 -0.4415
10304TIP3    H252404   1.765   2.795  16.306  0.0017  0.1210 -0.4617
10305TIP3   OH252405   6.174   0.612  13.381  0.3339  0.1987  0.2982
10305TIP3    H152406   6.134   0.562  13.452  0.9312 -0.0340  0.4769
10305TIP3    H252407   6.112   0.683  13.364 -1.5349 -1.7496 -1.3337
10306TIP3   OH252408   4.757   0.580   5.588  0.4607 -0.3643  0.1490
10306TIP3    H152409   4.738   0.620   5.503 -1.4010 -0.5733  0.4439
10306TIP3    H252410   4.672   0.553   5.621  1.4378 -2.4058  1.0491
10307TIP3   OH252411   0.199   4.023   2.768 -0.2074 -0.5028 -0.5105
10307TIP3    H152412   0.113   3.999   2.799 -0.4207 -0.6765 -1.2176
10307TIP3    H252413   0.196   4.008   2.673 -0.3686  2.3095 -1.0036
10308TIP3   OH252414   6.677   1.866   5.087  0.5627  0.1615 -0.1049
10308TIP3    H152415   6.729   1.945   5.069 -0.4252  1.1027  1.0541
10308TIP3    H252416   6.592   1.884   5.047 -0.0757  0.2393  1.2585
10309TIP3   OH252417   6.267   1.002  15.704  0.2222 -0.6266 -0.1924
10309TIP3    H152418   6.349   1.028  15.745  0.6299 -2.2817  0.0649
10309TIP3    H252419   6.217   1.084  15.696 -0.4190 -0.4235  4.7066
10310TIP3   OH252420   1.970   1.501   4.182  0.2433  0.0044  0.4634
10310TIP3    H152421   2.012   1.587   4.193 -0.6147  0.4915 -0.0381
10310TIP3    H252422   1.926   1.485   4.266  1.9375 -0.7956  1.2201
10311TIP3   OH252423   2.035   0.798   1.417 -0.1954 -0.0058 -0.6357
10311TIP3    H152424   1.968   0.734   1.390 -0.0798 -0.6801  0.6642
10311TIP3    H252425   1.996   0.845   1.490  1.3874 -1.5574  1.2337
10312TIP3   OH252426   6.667   1.112  14.087 -0.2882 -0.1051  0.4544
10312TIP3    H152427   6.728   1.061  14.035  0.4071  2.3025 -1.1533
10312TIP3    H252428   6.712   1.125  14.171  0.5890  0.0222 -0.0340
10313TIP3   OH252429   1.011   2.069   1.257  0.0886  0.0073  0.2159
10313TIP3    H152430   1.049   1.988   1.291 -0.0175 -1.1822 -2.4378
10313TIP3    H252431   0.990   2.120   1.336  1.2030 -2.0380  1.8840
10314TIP3   OH252432   1.695   5.583   6.531 -0.3798  0.2962 -0.4315
10314TIP3    H152433   1.698   5.494   6.566 -0.6619  0.0126 -1.1208
10314TIP3    H252434   1.683   5.639   6.608  1.8855 -0.0927  0.2512
10315TIP3   OH252435   2.990   3.652   3.374  0.5692  0.0838 -0.1444
10315TIP3    H152436   2.976   3.713   3.301  0.5524  0.5406  0.2327
10315TIP3    H252437   3.042   3.703   3.437  0.1583 -0.1405  0.3743
10316TIP3   OH252438   1.759   3.065   4.396  0.4151  0.0236  0.4370
10316TIP3    H152439   1.803   2.991   4.439  0.3614 -0.6306 -0.6273
10316TIP3    H252440   1.675   3.072   4.441  1.6192  1.3380  2.5558
10317TIP3   OH252441   6.283   0.958  17.052  0.3948  0.2709 -0.2850
10317TIP3    H152442   6.255   0.872  17.022 -0.5305 -0.1880  1.8204
10317TIP3    H252443   6.367   0.943  17.095  1.7694  0.9444 -2.6477
10318TIP3   OH252444   5.508   3.068  15.523 -0.1856  0.1176 -0.0878
10318TIP3    H152445   5.476   3.130  15.588 -1.1520 -0.8984  0.4269
10318TIP3    H252446   5.528   3.121  15.446  1.9619  1.4933  1.3564
10319TIP3   OH252447   3.050   4.546  11.285 -0.0632  0.4471  0.7515
10319TIP3    H152448   2.996   4.563  11.208  0.1656  0.1411  0.5243
10319TIP3    H252449   3.089   4.631  11.306 -2.6086  1.2822  2.4503
10320TIP3   OH252450   0.846   1.093   2.951  0.5017  0.2022 -0.3957
10320TIP3    H152451   0.834   1.005   2.984 -1.2093 -1.1244 -4.2174
10320TIP3    H252452   0.786   1.147   3.002  2.0363 -0.6594  2.4058
10321TIP3   OH252453   4.366   5.944   2.645 -0.1569 -0.7004  0.1905
10321TIP3    H152454   4.275   5.921   2.627 -0.4049 -0.0492  0.6166
10321TIP3    H252455   4.414   5.914   2.568 -0.8457 -0.2882 -0.3950
10322TIP3   OH252456   3.940   4.354  12.109 -0.6444 -0.5886  0.3270
10322TIP3    H152457   3.882   4.422  12.143  0.4404  0.1302  0.7858
10322TIP3    H252458   4.001   4.402  12.052  2.1160 -0.6336  3.1051
10323TIP3   OH252459   4.041   0.903  15.018 -0.0852  0.0506 -0.0087
10323TIP3    H152460   4.112   0.934  14.961  1.2331 -2.7283  0.0419
10323TIP3    H252461   3.961   0.937  14.978  1.0993  1.2609 -1.3929
10324TIP3   OH252462   4.143   2.171  11.960  0.1234  0.5355  0.3022
10324TIP3    H152463   4.208   2.183  12.030  0.1512  2.1744 -0.0046
10324TIP3    H252464   4.195   2.160  11.881  0.0592 -0.2892  0.3607
10325TIP3   OH252465   0.878   5.940  15.867 -0.4748 -0.3615 -0.4608
10325TIP3    H152466   0.790   5.906  15.881  0.0142 -1.1918  0.6470
10325TIP3    H252467   0.928   5.912  15.944  0.9129 -0.4230 -1.3584
10326TIP3   OH252468   3.872   5.832   5.493 -0.1537 -0.2438 -0.1402
10326TIP3    H152469   3.858   5.797   5.581 -2.5901  1.0393  0.0405
10326TIP3    H252470   3.956   5.877   5.498  0.0490 -0.7495  1.3456
10327TIP3   OH252471   4.354   2.986  14.605 -0.5300  0.2062 -0.1235
10327TIP3    H152472   4.441   2.955  14.583 -0.0259  1.5269 -0.0510
10327TIP3    H252473   4.366   3.036  14.687 -1.5208 -0.4636  0.4458
10328TIP3   OH252474   3.041   5.638   5.887 -0.3630 -0.9463  0.3016
10328TIP3    H152475   3.075   5.550   5.872  1.7652  0.3045 -2.6631
10328TIP3    H252476   3.115   5.687   5.923 -0.9499  0.1335  0.0558
10329TIP3   OH252477   0.058   0.768  17.184  0.0418 -0.0393  0.1140
10329TIP3    H152478   0.015   0.847  17.153  0.4129  0.6397  1.2899
10329TIP3    H252479   0.024   0.698  17.129 -0.9702  0.8088 -0.3390
10330TIP3   OH252480   4.535   2.474   2.020 -0.2347 -0.8278  0.5435
10330TIP3    H152481   4.575   2.558   1.997  0.3829 -0.3613  3.1118
10330TIP3    H252482   4.593   2.408   1.981  0.0823 -0.0744 -0.2613
10331TIP3   OH252483   5.413   1.274   1.248  0.4838  0.1159  0.2436
10331TIP3    H152484   5.419   1.240   1.159  0.4421  0.7640 -0.0062
10331TIP3    H252485   5.319   1.275   1.267  0.4327  0.8363 -0.0378
10332TIP3   OH252486   2.907   4.764  13.870  0.2999  0.0733  0.3572
10332TIP3    H152487   2.831   4.822  13.869  0.4452  0.2476 -0.5824
10332TIP3    H252488   2.871   4.678  13.895 -0.6213 -0.3945 -2.4069
10333TIP3   OH252489   4.418   0.164  16.005 -0.2879  0.3293 -0.0451
10333TIP3    H152490   4.423   0.092  16.068 -0.7259  0.0826 -0.2916
10333TIP3    H252491   4.335   0.206  16.024 -1.0247 -0.5281 -1.3002
10334TIP3   OH252492   2.813   2.779   5.008 -0.5187 -0.1701  0.3611
10334TIP3    H152493   2.804   2.838   4.933 -1.4144 -1.0201 -0.2166
10334TIP3    H252494   2.760   2.819   5.077 -0.8442 -0.1178  0.0824
10335TIP3   OH252495   1.311   2.322  12.931  0.1482 -0.3629  0.4707
10335TIP3    H152496   1.290   2.316  12.838  0.9218 -0.8022  0.3162
10335TIP3    H252497   1.255   2.393  12.964  1.2347  1.0923 -0.7430
10336TIP3   OH252498   0.632   5.164  12.352 -0.7059  0.3521  0.5471
10336TIP3    H152499   0.683   5.159  12.271 -0.4350  1.4660  0.6457
10336TIP3    H252500   0.689   5.125  12.418 -0.5587  0.2978  0.3897
10337TIP3   OH252501   2.121   3.143   1.251 -0.3129  0.0349 -0.0293
10337TIP3    H152502   2.093   3.204   1.182  1.1912 -0.1060 -0.7902
10337TIP3    H252503   2.208   3.113   1.222 -1.6832 -3.7284 -0.4995
10338TIP3   OH252504   2.827   6.677   6.380  0.0723  0.0095  0.6010
10338TIP3    H152505   2.823   6.607   6.314  0.2992  0.2696  0.3094
10338TIP3    H252506   2.749   6.663   6.433  0.7705 -1.2227  1.3212
10339TIP3   OH252507   4.535   4.207   1.790 -0.6773  0.4217  0.2937
10339TIP3    H152508   4.531   4.125   1.740  0.1660  0.3898  0.2677
10339TIP3    H252509   4.567   4.272   1.727  2.0595  0.0169  1.2010
10340TIP3   OH252510   0.881   1.553   1.650 -0.3282 -0.3925  0.2757
10340TIP3    H152511   0.941   1.611   1.696 -1.8095  0.7065  0.8436
10340TIP3    H252512   0.871   1.477   1.708 -0.9422  0.2702  1.0457
10341TIP3   OH252513   0.206   2.177  16.111  0.2994  0.1938  0.1536
10341TIP3    H152514   0.291   2.200  16.073  0.1388  0.8305  0.1595
10341TIP3    H252515   0.144   2.188  16.039  0.3684 -1.3300 -0.1373
10342TIP3   OH252516   2.843   4.212  15.541  0.5551 -0.2225  0.3658
10342TIP3    H152517   2.747   4.211  15.535  0.4756 -0.4890  1.4692
10342TIP3    H252518   2.863   4.151  15.612  1.7289 -2.3602 -1.7680
10343TIP3   OH252519   1.161   4.788   4.372 -0.6970 -0.0972 -0.5750
10343TIP3    H152520   1.202   4.720   4.426 -1.4740 -1.4241 -1.6358
10343TIP3    H252521   1.231   4.852   4.357  0.6640 -1.7127 -1.3206
10344TIP3   OH252522   4.596   1.424  14.245  0.2213  0.2466  0.1609
10344TIP3    H152523   4.631   1.463  14.326 -0.8906 -0.2360  0.8919
10344TIP3    H252524   4.543   1.493  14.206  1.7555  0.8991 -0.8235
10345TIP3   OH252525   1.139   5.617  16.628  0.0501 -0.2097 -0.0803
10345TIP3    H152526   1.048   5.645  16.635  0.3905  1.5996 -2.2980
10345TIP3    H252527   1.134   5.522  16.617 -1.3673 -0.5720  3.1930
10346TIP3   OH252528   1.981   3.206  15.808  0.1664 -0.6245  0.0790
10346TIP3    H152529   1.984   3.215  15.713 -0.8018  0.8646  0.1587
10346TIP3    H252530   2.000   3.114  15.825  2.9426 -0.3592 -1.4012
10347TIP3   OH252531   0.630   2.531   0.344  0.7436 -0.0272  0.4744
10347TIP3    H152532   0.594   2.616   0.318  0.6994 -0.1808  0.0357
10347TIP3    H252533   0.602   2.520   0.435  0.8247  0.4693  0.5632
10348TIP3   OH252534   4.677   5.126  11.875  0.6016 -0.0111  0.4664
10348TIP3    H152535   4.724   5.049  11.907  0.0631 -1.0556 -1.2417
10348TIP3    H252536   4.736   5.166  11.811  0.2269  0.1263  0.2057
10349TIP3   OH252537   0.293   6.652  14.810  0.0870  0.2740  0.0446
10349TIP3    H152538   0.206   6.689  14.793 -0.1161 -0.4181 -0.4792
10349TIP3    H252539   0.285   6.608  14.894 -0.4779 -0.9924 -0.6575
10350TIP3   OH252540   1.395   0.937   2.633  0.3723  0.1773 -0.7212
10350TIP3    H152541   1.417   1.014   2.581 -0.9359  1.4180  0.4997
10350TIP3    H252542   1.460   0.936   2.704 -0.3250  0.8581 -0.0621
10351TIP3   OH252543   2.526   3.022   6.677 -0.3503 -0.1349  0.5844
10351TIP3    H152544   2.532   3.094   6.740  2.2656 -0.3226  0.6095
10351TIP3    H252545   2.533   3.066   6.592 -0.1480 -0.2298  0.5525
10352TIP3   OH252546   1.428   4.022   3.957  0.0198  0.7440 -0.5234
10352TIP3    H152547   1.517   3.993   3.933 -0.2681  1.3699 -2.4448
10352TIP3    H252548   1.402   4.080   3.885 -2.4709 -0.4899 -0.6514
10353TIP3   OH252549   5.225   1.915  16.547 -0.0212  0.2890 -0.1449
10353TIP3    H152550   5.271   1.916  16.631 -0.3606 -1.0590  0.0807
10353TIP3    H252551   5.272   1.850  16.495 -0.5244  0.2683 -0.5790
10354TIP3   OH252552   0.477   4.184   6.464 -0.2823  0.2601  0.6034
10354TIP3    H152553   0.412   4.251   6.442 -0.0943  0.3742  0.3949
10354TIP3    H252554   0.425   4.108   6.490 -0.5812 -0.7829 -2.8020
10355TIP3   OH252555   3.950   3.313   4.976 -0.3211 -0.4595 -0.3297
10355TIP3    H152556   3.874   3.265   5.007 -0.1140 -0.2235  0.5402
10355TIP3    H252557   3.931   3.405   4.996 -0.4458 -0.2310 -1.4282
10356TIP3   OH252558   4.424   1.511  13.799  0.1845 -0.2037 -0.1349
10356TIP3    H152559   4.343   1.478  13.837  0.2882 -0.8795 -0.5062
10356TIP3    H252560   4.398   1.547  13.715  0.0171  0.9699  0.4082
10357TIP3   OH252561   1.602   2.967  17.238  0.0036  0.1596  0.1128
10357TIP3    H152562   1.648   2.899  17.288  1.5879  0.5928 -0.7429
10357TIP3    H252563   1.652   2.976  17.157  0.2126  2.8381  0.4945
10358TIP3   OH252564   3.554   2.175  10.916 -0.0973 -0.3055 -0.0791
10358TIP3    H152565   3.516   2.088  10.911  1.2475 -0.9177  0.1949
10358TIP3    H252566   3.528   2.217  10.834 -1.1898 -0.7720  0.0205
10359TIP3   OH252567   3.614   3.002   1.106 -0.3652 -0.2594  0.0642
10359TIP3    H152568   3.703   3.024   1.081 -0.4051  1.1492  1.1196
10359TIP3    H252569   3.592   2.925   1.053  0.4883  1.0342 -2.2125
10360TIP3   OH252570   3.539   6.620   1.931 -0.2306 -0.6064  0.2514
10360TIP3    H152571   3.522   6.545   1.988  2.0794 -0.6255  0.9871
10360TIP3    H252572   3.473   6.685   1.956 -0.0678 -1.1000  2.0562
10361TIP3   OH252573   3.756   2.182   4.334 -0.5703 -0.0916  0.1252
10361TIP3    H152574   3.851   2.190   4.320 -0.2953 -1.9680  0.7675
10361TIP3    H252575   3.741   2.220   4.420 -0.0399 -1.7988  0.9973
10362TIP3   OH252576   5.377   0.269   2.473 -0.9414  0.1102  0.3156
10362TIP3    H152577   5.463   0.242   2.505 -1.2258  0.0266  1.0244
10362TIP3    H252578   5.335   0.310   2.549 -1.3746  0.5094 -0.1345
10363TIP3   OH252579   5.215   4.268   5.468 -0.5920  0.2020 -0.2064
10363TIP3    H152580   5.213   4.328   5.393  3.9644  1.5649  0.6522
10363TIP3    H252581   5.171   4.316   5.538 -0.0252  1.1399 -0.4845
10364TIP3   OH252582   0.481   3.595   3.125  0.2515 -0.2926  0.9112
10364TIP3    H152583   0.478   3.539   3.047  0.2646  0.2601  0.5180
10364TIP3    H252584   0.573   3.620   3.133  0.2774 -0.4685  1.1926
10365TIP3   OH252585   3.855   4.189  14.458  0.6292  0.1578 -0.0125
10365TIP3    H152586   3.820   4.273  14.429  0.2793  0.6538  1.7919
10365TIP3    H252587   3.931   4.211  14.511  1.6330 -0.7670 -1.0289
10366TIP3   OH252588   3.346   1.342   4.825  0.0273 -0.2223  0.1266
10366TIP3    H152589   3.326   1.276   4.759 -0.1097  0.2282 -0.2947
10366TIP3    H252590   3.303   1.422   4.792  0.3103  0.1069  0.5472
10367TIP3   OH252591   2.479   4.498   3.536  0.0403 -0.4988 -0.3408
10367TIP3    H152592   2.542   4.428   3.519  1.3731  0.3004  1.1032
10367TIP3    H252593   2.415   4.459   3.596 -0.1809 -0.9660 -0.8774
10368TIP3   OH252594   5.058   5.991  12.522 -0.6648  0.1247 -0.4855
10368TIP3    H152595   5.005   6.038  12.586 -0.4210  0.2531 -0.3782
10368TIP3    H252596   5.054   6.045  12.443  0.2383  0.7297 -0.1347
10369TIP3   OH252597   6.168   1.522  17.245 -0.1954  0.3295  0.2845
10369TIP3    H152598   6.223   1.543  17.169  0.5770  0.4024  0.8642
10369TIP3    H252599   6.079   1.514  17.208  0.2355 -0.0467 -0.6964
10370TIP3   OH252600   2.666   1.250   1.654 -0.6570  0.2175  0.2548
10370TIP3    H152601   2.656   1.164   1.613 -1.0260  0.2629  0.2462
10370TIP3    H252602   2.622   1.311   1.594  0.6324  0.5814 -0.3351
10371TIP3   OH252603   0.308   6.370   6.596  0.0710  0.2138 -0.0612
10371TIP3    H152604   0.226   6.365   6.645 -0.0092  0.0349 -0.2142
10371TIP3    H252605   0.281   6.366   6.504  0.1695  1.1410 -0.1393
10372TIP3   OH252606   4.907   4.212  15.102 -0.8417  0.1616 -0.5397
10372TIP3    H152607   4.873   4.249  15.021  0.6714 -0.5945 -1.5470
10372TIP3    H252608   4.974   4.149  15.074 -0.5718 -0.4040  1.2742
10373TIP3   OH252609   0.113   4.746  17.135  0.0637  0.3151  0.6946
10373TIP3    H152610   0.054   4.687  17.184  0.4616 -1.7153 -1.1791
10373TIP3    H252611   0.200   4.707  17.147  0.1126 -0.4392 -1.9090
10374TIP3   OH252612   1.782   3.827   1.872  0.3314  0.3957 -0.2535
10374TIP3    H152613   1.717   3.897   1.871 -0.0239  0.1050  1.3174
10374TIP3    H252614   1.747   3.761   1.813 -1.8990 -0.6910  2.1786
10375TIP3   OH252615   1.025   1.973   6.738  0.3888  0.0773 -0.2532
10375TIP3    H152616   1.046   1.990   6.830  1.4045  0.7121 -0.5983
10375TIP3    H252617   0.956   2.037   6.717 -0.0701 -0.2785  0.1419
10376TIP3   OH252618   2.932   0.241   2.801  0.1408 -0.0549 -0.3460
10376TIP3    H152619   2.846   0.262   2.836  0.5736  1.6379 -0.2928
10376TIP3    H252620   2.915   0.175   2.733 -1.2677  0.8685 -0.8988
10377TIP3   OH252621   2.925   4.227   4.264 -0.3777  0.0242 -0.5502
10377TIP3    H152622   3.007   4.199   4.305 -0.6739 -0.2479 -0.1370
10377TIP3    H252623   2.946   4.235   4.171  0.5095  1.4344 -0.2326
10378TIP3   OH252624   2.144   2.620  13.063  0.0239  0.0779  0.4183
10378TIP3    H152625   2.129   2.557  13.134 -3.1930 -0.6046 -0.7749
10378TIP3    H252626   2.096   2.584  12.989 -0.7852  3.2791 -0.6798
10379TIP3   OH252627   5.330   6.549   2.961 -0.3441 -0.3403  0.3019
10379TIP3    H152628   5.289   6.570   3.045 -0.5198  0.6289 -0.0186
10379TIP3    H252629   5.267   6.578   2.895  0.4831  0.4067 -0.1812
10380TIP3   OH252630   0.655   5.291  13.358  0.0571 -0.1307 -0.0446
10380TIP3    H152631   0.670   5.383  13.382 -2.8260  0.2082  0.6154
10380TIP3    H252632   0.685   5.242  13.434  0.8070  0.3210 -0.0469
10381TIP3   OH252633   6.756   6.045  13.409 -0.0743 -0.1170  0.2277
10381TIP3    H152634   6.757   5.950  13.418  0.0967 -0.1118  0.2608
10381TIP3    H252635   6.670   6.071  13.441 -0.7593 -0.4084 -1.3510
10382TIP3   OH252636   6.750   3.115  12.572  0.3389  0.1312 -0.3424
10382TIP3    H152637   6.679   3.104  12.508  2.0417  1.6725 -2.5457
10382TIP3    H252638   6.772   3.208  12.569  2.2930 -0.2702  0.4970
10383TIP3   OH252639   3.285   0.524   1.432  0.2880  0.5353 -0.0339
10383TIP3    H152640   3.312   0.611   1.401  1.2410  0.4290  0.4667
10383TIP3    H252641   3.327   0.463   1.373 -0.6170  0.4179 -0.5595
10384TIP3   OH252642   2.633   1.563   6.149 -0.6437 -0.0409  0.1014
10384TIP3    H152643   2.717   1.533   6.183  0.0404  1.0530 -0.5599
10384TIP3    H252644   2.623   1.652   6.185 -0.9385  0.2907 -0.7741
10385TIP3   OH252645   1.866   4.719  15.122 -0.5502 -0.0508  0.3406
10385TIP3    H152646   1.821   4.639  15.147  0.9350 -0.9587  0.1643
10385TIP3    H252647   1.929   4.734  15.193 -1.5963  1.6002  0.9501
10386TIP3   OH252648   3.741   2.663   5.178 -0.1152  0.4641  0.4037
10386TIP3    H152649   3.726   2.757   5.192  0.1626  0.6301 -0.3972
10386TIP3    H252650   3.686   2.621   5.244 -1.9082  1.1395 -0.6053
10387TIP3   OH252651   2.590   0.813  13.948 -0.2986  0.2579 -0.2801
10387TIP3    H152652   2.579   0.721  13.926 -3.6881  0.1317  1.5566
10387TIP3    H252653   2.590   0.859  13.864  2.6370 -1.4504 -1.2846
10388TIP3   OH252654   3.535   0.611   1.923 -0.7123 -0.5184 -0.4242
10388TIP3    H152655   3.477   0.687   1.913  2.4306  2.2524  1.2457
10388TIP3    H252656   3.500   0.564   1.999 -0.5361  1.3583  0.8474
10389TIP3   OH252657   2.677   1.552   4.021  0.2155 -0.0368 -0.0344
10389TIP3    H152658   2.593   1.574   3.981  0.9256  2.8561 -0.0282
10389TIP3    H252659   2.731   1.521   3.947 -0.9174 -2.2821  0.0273
10390TIP3   OH252660   3.927   1.284   3.993 -0.0715  0.1018  0.0632
10390TIP3    H152661   3.974   1.302   4.074  0.7226  1.4708 -0.6783
10390TIP3    H252662   3.903   1.192   3.998  1.9076 -0.3792  0.8556
10391TIP3   OH252663   5.458   2.032  12.571 -0.5116 -0.0917  0.0579
10391TIP3    H152664   5.492   2.003  12.655  0.6606  1.5302  0.1738
10391TIP3    H252665   5.423   2.120  12.588 -0.5201  0.1360 -1.0668
10392TIP3   OH252666   2.141   0.855  16.553 -0.0021 -0.0397  0.1430
10392TIP3    H152667   2.057   0.858  16.599  0.7402 -3.7983  2.0081
10392TIP3    H252668   2.190   0.929  16.587 -1.8410  1.0824  0.4476
10393TIP3   OH252669   0.329   1.997   2.608  0.1055  0.3972 -0.0694
10393TIP3    H152670   0.242   2.014   2.573 -1.0101 -1.9900  1.4838
10393TIP3    H252671   0.356   2.080   2.648 -1.8700  0.8702  0.3023
10394TIP3   OH252672   0.726   2.618  11.744 -0.3124  0.5006 -0.0194
10394TIP3    H152673   0.757   2.553  11.680  0.3007 -0.6766  1.4436
10394TIP3    H252674   0.805   2.644  11.791 -1.0222  0.0026  1.4764
10395TIP3   OH252675   3.871   2.550   3.113 -0.3765  0.3226  0.5878
10395TIP3    H152676   3.887   2.462   3.080 -0.5732  0.3432  0.4362
10395TIP3    H252677   3.850   2.601   3.034 -3.4105 -0.1796  1.0151
10396TIP3   OH252678   1.115   2.070   6.115  0.6182 -0.0566  0.4282
10396TIP3    H152679   1.112   2.078   6.210 -0.4122  2.0011  0.2664
10396TIP3    H252680   1.206   2.049   6.095  0.3301 -3.1405  2.0003
10397TIP3   OH252681   0.807   3.971  16.722  0.2617  0.3876 -0.3191
10397TIP3    H152682   0.714   3.985  16.740  0.9368  2.5267  1.7833
10397TIP3    H252683   0.830   4.040  16.660  0.5641  0.1612 -0.4594
10398TIP3   OH252684   5.527   0.625  16.279 -0.2762 -0.5194 -0.3531
10398TIP3    H152685   5.585   0.689  16.321 -1.7645  1.0303 -0.5870
10398TIP3    H252686   5.546   0.633  16.186  0.1851 -1.0826 -0.3076
10399TIP3   OH252687   6.059   0.776   4.820  0.4146 -0.5045 -0.0527
10399TIP3    H152688   6.045   0.704   4.758 -0.9667 -1.5573  1.4267
10399TIP3    H252689   6.140   0.817   4.791  0.0212 -1.2271 -2.2984
10400TIP3   OH252690   1.761   3.765  11.471  0.0272 -0.7142 -0.1162
10400TIP3    H152691   1.804   3.816  11.540  0.4154  0.5433 -1.2525
10400TIP3    H252692   1.820   3.691  11.455 -0.4959 -1.4870  1.4862
10401TIP3   OH252693   4.646   3.003   2.222  0.2773  0.3410  0.1622
10401TIP3    H152694   4.650   2.910   2.246 -0.4160  0.0025 -1.0250
10401TIP3    H252695   4.563   3.033   2.257  0.3724  0.4517  0.2944
10402TIP3   OH252696   3.397   2.693  12.005 -0.0560  0.6807 -0.4253
10402TIP3    H152697   3.455   2.639  12.058 -0.5703 -0.1289 -0.6711
10402TIP3    H252698   3.453   2.733  11.939  0.2923  0.2475 -0.3891
10403TIP3   OH252699   3.276   3.953   0.431  0.3536  0.1536  0.1215
10403TIP3    H152700   3.360   3.941   0.386 -1.1253 -2.5651 -2.0790
10403TIP3    H252701   3.227   4.012   0.374  0.1711  0.4260  0.5623
10404TIP3   OH252702   6.488   5.364  14.420  0.2147  0.3169  0.3041
10404TIP3    H152703   6.500   5.432  14.485 -0.5009 -0.2409  1.0292
10404TIP3    H252704   6.562   5.305  14.432  0.4212  0.5535  0.1896
10405TIP3   OH252705   3.184   5.511  13.869 -0.4898  0.6097  0.1957
10405TIP3    H152706   3.124   5.562  13.814 -1.8715 -0.9519  0.2282
10405TIP3    H252707   3.200   5.431  13.818 -1.0690 -0.4541  1.6543
10406TIP3   OH252708   4.861   4.069   5.737 -0.6492 -0.6791  0.0483
10406TIP3    H152709   4.777   4.067   5.692 -0.0432  0.6296 -1.2108
10406TIP3    H252710   4.849   4.132   5.808 -0.6061 -0.1431 -0.4167
10407TIP3   OH252711   4.568   5.579   5.604  0.4167 -0.1231  0.6409
10407TIP3    H152712   4.636   5.645   5.592  1.3298 -1.3035 -0.7351
10407TIP3    H252713   4.523   5.605   5.685  1.6972  1.3492  0.8874
10408TIP3   OH252714   1.396   6.064  14.895 -0.0015 -0.1253 -0.0461
10408TIP3    H152715   1.450   6.087  14.819  0.5071  0.7309  0.5643
10408TIP3    H252716   1.437   5.985  14.930  1.2378  0.8578  0.7653
10409TIP3   OH252717   4.420   6.190  13.931  0.3757  0.8199 -0.3454
10409TIP3    H152718   4.415   6.163  13.839 -0.1699  0.9926 -0.3634
10409TIP3    H252719   4.513   6.181  13.953  0.9991  3.3805 -1.7148
10410TIP3   OH252720   4.250   2.954  14.214  0.1470 -0.0086 -0.5028
10410TIP3    H152721   4.336   2.914  14.203  0.0974 -0.4643  0.6578
10410TIP3    H252722   4.206   2.939  14.130  0.4513 -1.6243 -0.3932
10411TIP3   OH252723   1.066   5.203   1.649 -0.3362 -0.0201 -0.4383
10411TIP3    H152724   1.049   5.297   1.644 -1.3787 -0.1544  0.4246
10411TIP3    H252725   0.981   5.162   1.636 -0.1504 -0.8016  0.7789
10412TIP3   OH252726   0.879   5.028   3.715 -0.3404 -0.2063 -0.0175
10412TIP3    H152727   0.912   4.995   3.798  1.2837 -1.5730 -1.1611
10412TIP3    H252728   0.794   4.985   3.704 -0.2890 -0.4832  0.6734
10413TIP3   OH252729   0.808   0.056   6.222  0.0359 -0.2300 -0.2352
10413TIP3    H152730   0.738   0.089   6.279 -0.7568 -1.1695 -0.6609
10413TIP3    H252731   0.783   0.083   6.134 -0.1513 -1.1635 -0.4747
10414TIP3   OH252732   0.979   4.823   2.316 -0.7874  0.2000  0.5529
10414TIP3    H152733   0.957   4.740   2.358 -1.0802  0.0488  0.1028
10414TIP3    H252734   0.935   4.889   2.370 -1.6201 -0.0334  0.1651
10415TIP3   OH252735   2.015   4.521   1.121  0.1123  1.3030  0.6714
10415TIP3    H152736   1.930   4.549   1.157 -0.2617 -0.8003  1.5281
10415TIP3    H252737   1.992   4.450   1.061  1.4216 -0.9663  2.7623
10416TIP3   OH252738   5.897   6.352  11.743 -0.0827 -0.4361 -0.6789
10416TIP3    H152739   5.943   6.271  11.762  0.6042  0.3871  1.3493
10416TIP3    H252740   5.940   6.387  11.665  1.8602 -0.3583  0.3938
10417TIP3   OH252741   0.656   3.212   0.754 -0.5480 -0.2161  0.0049
10417TIP3    H152742   0.652   3.292   0.805  2.6824 -1.2944  2.1065
10417TIP3    H252743   0.719   3.231   0.684 -0.4962 -0.6217 -0.0624
10418TIP3   OH252744   3.414   1.011  14.207  0.0202  0.4052 -0.5481
10418TIP3    H152745   3.378   1.049  14.287  0.9667 -0.2148  0.1919
10418TIP3    H252746   3.508   1.029  14.212  0.5202 -2.0287 -0.1435
10419TIP3   OH252747   1.118   1.541  11.871  0.2543 -0.0626 -0.1054
10419TIP3    H152748   1.058   1.551  11.798 -1.8488 -0.8557  1.4427
10419TIP3    H252749   1.182   1.611  11.861 -0.8629  0.7104 -1.8652
10420TIP3   OH252750   2.354   1.323   0.187  0.2936  0.2712  0.6410
10420TIP3    H152751   2.425   1.325   0.252 -0.2170 -1.6264  1.2809
10420TIP3    H252752   2.330   1.231   0.181 -1.5004  0.7898 -0.2593
10421TIP3   OH252753   3.541   4.988   6.655  0.0441  0.0692 -0.1536
10421TIP3    H152754   3.588   5.071   6.662 -0.1460  0.0489  1.5798
10421TIP3    H252755   3.587   4.940   6.585 -1.1207  2.4316 -2.6147
10422TIP3   OH252756   2.651   4.916   2.422  0.1143  0.1431  0.0677
10422TIP3    H152757   2.576   4.974   2.411  0.1822  0.1900 -0.1526
10422TIP3    H252758   2.712   4.966   2.476  1.0306  1.0772 -1.7979
10423TIP3   OH252759   1.201   5.910  11.654  0.4621 -0.2845  0.4630
10423TIP3    H152760   1.124   5.861  11.625  0.1623  0.0569  0.6868
10423TIP3    H252761   1.274   5.869  11.608  0.1596 -0.6828  0.3411
10424TIP3   OH252762   3.999   3.380   4.637  0.3003  0.4772 -0.0345
10424TIP3    H152763   3.948   3.426   4.703  0.6843 -1.0595  1.3620
10424TIP3    H252764   4.079   3.353   4.681  0.8196 -0.0921 -1.2784
10425TIP3   OH252765   2.554   3.203   3.064  0.1965 -0.2013 -0.0228
10425TIP3    H152766   2.606   3.125   3.085 -2.8277 -2.3730 -0.3358
10425TIP3    H252767   2.533   3.242   3.149 -0.4386 -1.1733  0.2673
10426TIP3   OH252768   1.921   3.389  12.429 -0.5629  0.3392  0.2535
10426TIP3    H152769   1.848   3.434  12.472 -2.0126 -1.1659 -0.6120
10426TIP3    H252770   1.935   3.310  12.481 -1.3636 -0.7600 -1.1864
10427TIP3   OH252771   2.189   4.532   5.477  0.0885  0.0934 -1.1592
10427TIP3    H152772   2.192   4.443   5.441 -0.4511  0.5509 -2.3691
10427TIP3    H252773   2.117   4.530   5.540  2.7634 -1.4571  2.0245
10428TIP3   OH252774   2.127   6.757  16.402  0.2004 -0.6552  0.6252
10428TIP3    H152775   2.188   6.812  16.353 -3.8864  2.4436 -1.3280
10428TIP3    H252776   2.120   6.799  16.487  0.7290 -0.9585  0.8169
10429TIP3   OH252777   2.619   6.473   0.814 -0.7999 -0.3708 -0.6174
10429TIP3    H152778   2.595   6.563   0.838 -1.1368 -0.8134  0.7880
10429TIP3    H252779   2.706   6.481   0.775  0.6443  0.2140  2.5380
10430TIP3   OH252780   0.878   5.212  13.186 -0.2539  0.1218  0.2997
10430TIP3    H152781   0.805   5.269  13.209  0.5528  1.1245  0.4406
10430TIP3    H252782   0.927   5.202  13.268 -0.4847 -0.9291  0.3166
10431TIP3   OH252783   5.371   4.382  12.506  0.0133  0.0962  0.3472
10431TIP3    H152784   5.348   4.444  12.576  0.0097 -0.4903  0.8639
10431TIP3    H252785   5.290   4.371  12.456  0.4835  1.9728 -0.9028
10432TIP3   OH252786   6.006   3.717  10.741  0.0241  0.0680 -0.2189
10432TIP3    H152787   6.039   3.688  10.825 -0.3456 -1.3541 -0.5483
10432TIP3    H252788   5.962   3.800  10.759 -0.3421 -0.3990  1.0314
10433TIP3   OH252789   0.975   6.132   5.507  0.2628  0.4416  0.1170
10433TIP3    H152790   1.022   6.065   5.458 -0.7031  1.4836 -2.2799
10433TIP3    H252791   0.893   6.089   5.532  1.4482 -0.6280  2.3282
10434TIP3   OH252792   6.652   0.479   1.904 -0.0232 -0.3728 -0.2990
10434TIP3    H152793   6.666   0.452   1.995 -0.8716  0.4681  0.0909
10434TIP3    H252794   6.624   0.570   1.910 -0.0197 -0.2878 -1.4110
10435TIP3   OH252795   3.365   4.123   4.953 -0.0640  0.0775  0.0501
10435TIP3    H152796   3.376   4.047   4.895  3.3016  0.7055 -0.2683
10435TIP3    H252797   3.332   4.192   4.897 -1.8230 -0.7320  0.0455
10436TIP3   OH252798   4.605   6.027   1.275  0.0483  0.7094 -0.3000
10436TIP3    H152799   4.575   5.963   1.341 -1.0822  0.0496 -1.4403
10436TIP3    H252800   4.665   6.083   1.323  0.3291 -0.6296  0.9744
10437TIP3   OH252801   2.086   2.316   3.139  1.3399  0.3607 -0.9415
10437TIP3    H152802   2.012   2.259   3.116  0.1802  1.3580  0.2482
10437TIP3    H252803   2.133   2.268   3.206 -0.8056  1.6275  1.5608
10438TIP3   OH252804   1.754   0.215  11.302 -0.0333  0.0629 -0.2785
10438TIP3    H152805   1.753   0.140  11.242  0.5034 -1.4336  1.5355
10438TIP3    H252806   1.684   0.271  11.270 -0.4424 -1.1972 -1.6904
10439TIP3   OH252807   4.864   0.196  16.198 -0.5919 -0.0956  0.2566
10439TIP3    H152808   4.791   0.207  16.137  0.3475 -1.6479 -1.1862
10439TIP3    H252809   4.824   0.162  16.278 -1.9954  3.0446  0.9622
10440TIP3   OH252810   5.888   6.116  16.582  0.4076 -0.0267 -0.1746
10440TIP3    H152811   5.823   6.062  16.628  0.5061 -0.1288 -0.1581
10440TIP3    H252812   5.867   6.106  16.489 -0.0974  0.5638 -0.1325
10441TIP3   OH252813   2.615   3.908   0.367 -0.8895  0.1512 -0.0399
10441TIP3    H152814   2.673   3.924   0.293 -0.7520 -1.8469 -0.3899
10441TIP3    H252815   2.674   3.905   0.443 -0.6914 -0.4074 -0.2080
10442TIP3   OH252816   5.542   4.244   1.047 -0.4584  0.1479 -0.2271
10442TIP3    H152817   5.591   4.216   0.969 -0.1519  0.4714 -0.1543
10442TIP3    H252818   5.462   4.192   1.045 -0.5225  0.2664 -0.8501
10443TIP3   OH252819   4.255   4.246  11.556 -0.3581  0.3296  0.5658
10443TIP3    H152820   4.284   4.182  11.621  2.1839  1.0604  0.2077
10443TIP3    H252821   4.190   4.299  11.602  1.1849  0.6583  2.4790
10444TIP3   OH252822   4.709   0.764  12.042 -0.0078 -0.8751 -0.5225
10444TIP3    H152823   4.747   0.848  12.016 -2.1988  0.3756  0.2430
10444TIP3    H252824   4.615   0.780  12.047 -0.6548 -3.8013 -1.9764
10445TIP3   OH252825   0.958   2.482  12.373 -0.5999  0.1485 -0.8308
10445TIP3    H152826   0.864   2.490  12.386 -0.5082  1.9946 -1.0784
10445TIP3    H252827   0.974   2.518  12.286  0.2545 -0.7144 -1.0384
10446TIP3   OH252828   0.786   1.787  10.895  0.1245 -0.2028 -0.3938
10446TIP3    H152829   0.861   1.843  10.874  0.8537 -1.4858 -1.2741
10446TIP3    H252830   0.710   1.837  10.866  0.7056  0.6849 -0.3989
10447TIP3   OH252831   3.483   3.956   4.123  0.0907 -0.5702  0.2369
10447TIP3    H152832   3.549   3.903   4.167  2.4910  2.3005  0.2324
10447TIP3    H252833   3.420   3.977   4.192  0.7835 -0.8119  0.9533
10448TIP3   OH252834   6.683   5.011   2.476 -0.2494  0.3189  0.2115
10448TIP3    H152835   6.715   4.989   2.563  0.3758  0.6750  0.0759
10448TIP3    H252836   6.592   5.037   2.489 -1.4557 -3.6503  0.2009
10449TIP3   OH252837   3.349   5.470  17.238 -0.0874 -0.4625 -0.3418
10449TIP3    H152838   3.361   5.549  17.184 -0.6107 -0.4050 -0.3730
10449TIP3    H252839   3.433   5.459  17.282 -0.3600  0.7417  0.5043
10450TIP3   OH252840   4.315   4.816   5.483 -0.9415  0.3690 -0.4128
10450TIP3    H152841   4.248   4.866   5.530 -2.5252 -0.3904 -1.8279
10450TIP3    H252842   4.394   4.871   5.488 -1.4606  0.9600  1.8616
10451TIP3   OH252843   0.064   3.243   4.190 -0.0135 -0.5583  0.4617
10451TIP3    H152844   0.002   3.220   4.121 -0.3295 -0.3654  0.6837
10451TIP3    H252845   0.132   3.176   4.183 -1.6443 -2.4473  2.0312
10452TIP3   OH252846   6.265   1.397   1.640 -0.0045  0.4318  0.5027
10452TIP3    H152847   6.272   1.383   1.545  1.6792  1.1982  0.4883
10452TIP3    H252848   6.201   1.333   1.669  0.1493 -0.4463 -1.0255
10453TIP3   OH252849   6.232   4.507  12.456 -0.2506 -0.1333  0.1253
10453TIP3    H152850   6.204   4.553  12.376  1.2086  0.1546 -0.2338
10453TIP3    H252851   6.248   4.577  12.519 -0.2239 -0.2932  0.2969
10454TIP3   OH252852   1.662   0.667  13.012 -0.4499 -0.0396  0.4547
10454TIP3    H152853   1.661   0.620  13.095  1.4437 -1.1042 -0.1120
10454TIP3    H252854   1.570   0.674  12.987 -0.9351 -0.8649  1.9797
10455TIP3   OH252855   0.942   1.582   3.705 -0.1349 -0.9904 -0.3235
10455TIP3    H152856   0.903   1.647   3.764  0.0355 -0.3764 -0.8766
10455TIP3    H252857   0.878   1.574   3.634  1.3197  1.0020 -1.9153
10456TIP3   OH252858   2.174   1.689   4.265 -0.0009 -0.3634  0.2179
10456TIP3    H152859   2.245   1.671   4.204 -0.1774 -0.8938  0.1625
10456TIP3    H252860   2.172   1.784   4.274  2.3456 -0.4395  2.1354
10457TIP3   OH252861   2.888   1.266  13.767 -0.3654 -0.3751 -0.0349
10457TIP3    H152862   2.883   1.335  13.701 -0.6410  0.2141  0.6034
10457TIP3    H252863   2.862   1.308  13.848 -0.4963 -1.2213  0.3679
10458TIP3   OH252864   5.095   1.363  14.098 -0.2116 -0.1828  0.1136
10458TIP3    H152865   5.068   1.280  14.060 -0.5401 -0.1975  0.3786
10458TIP3    H252866   5.046   1.369  14.180 -2.7418  1.8173 -1.4544
10459TIP3   OH252867   5.536   0.769  14.704  0.2450  0.0371 -0.0183
10459TIP3    H152868   5.552   0.855  14.667  1.7623  0.1520  0.8636
10459TIP3    H252869   5.528   0.711  14.628 -1.5391  1.0556 -0.6331
10460TIP3   OH252870   0.779   3.080  14.524 -0.0446 -0.3856  0.3031
10460TIP3    H152871   0.788   2.986  14.508  0.4660  0.2464 -3.7014
10460TIP3    H252872   0.757   3.117  14.438 -1.7107  2.9911  2.0805
10461TIP3   OH252873   3.555   0.643  16.682  0.1053 -0.6379 -0.8713
10461TIP3    H152874   3.483   0.683  16.730 -0.2306 -1.8088 -0.3627
10461TIP3    H252875   3.517   0.563  16.645  1.4352 -1.9162  0.4464
10462TIP3   OH252876   5.383   6.063   4.779 -0.6285  0.1008  0.1791
10462TIP3    H152877   5.367   5.979   4.822  0.6064  0.2726  1.0069
10462TIP3    H252878   5.396   6.040   4.687 -0.9633 -0.5335  0.2837
10463TIP3   OH252879   3.109   5.347  15.303 -0.1396 -0.2293 -0.4439
10463TIP3    H152880   3.125   5.299  15.384  2.1721  0.4037 -0.4597
10463TIP3    H252881   3.019   5.379  15.310 -0.2280 -0.8617  1.5025
10464TIP3   OH252882   5.562   2.722  12.964 -0.3296 -0.5321 -0.2417
10464TIP3    H152883   5.656   2.738  12.977 -0.4072 -1.3648  1.5269
10464TIP3    H252884   5.559   2.657  12.894  0.3938 -0.0821 -0.7011
10465TIP3   OH252885   5.455   2.965  12.394  0.1095 -0.0841 -0.4222
10465TIP3    H152886   5.409   2.889  12.429  1.4338 -1.5838 -1.8117
10465TIP3    H252887   5.471   2.943  12.302  2.0100  1.1442 -0.4279
10466TIP3   OH252888   3.330   1.656   5.091  0.1942  0.5087  0.0540
10466TIP3    H152889   3.369   1.664   5.004 -0.6102 -0.9575 -0.4561
10466TIP3    H252890   3.383   1.713   5.147  2.6790 -0.9551 -0.7469
10467TIP3   OH252891   6.060   1.996   1.427 -0.3827 -0.7606  0.4933
10467TIP3    H152892   5.992   2.037   1.374  0.2359  0.7199  0.8336
10467TIP3    H252893   6.021   1.914   1.457 -1.6269 -0.4245 -0.1799
10468TIP3   OH252894   6.236   3.576   2.273  0.2547 -0.1780  0.2268
10468TIP3    H152895   6.301   3.516   2.237  1.6438  2.0613 -1.0713
10468TIP3    H252896   6.152   3.536   2.251  1.1459 -1.5647 -0.7582
10469TIP3   OH252897   1.902   2.778   1.072 -0.4632  0.0624  0.2128
10469TIP3    H152898   1.848   2.775   1.152 -3.0150  1.1820 -1.3822
10469TIP3    H252899   1.861   2.846   1.019  0.7688 -1.1255 -2.3423
10470TIP3   OH252900   4.431   4.610  17.212  0.2555 -0.3021  0.0587
10470TIP3    H152901   4.506   4.551  17.216  1.0114  0.7284  1.7901
10470TIP3    H252902   4.393   4.595  17.126  1.9763 -1.4045 -0.5323
10471TIP3   OH252903   3.157   2.813   5.704  0.4318 -0.0362 -0.4373
10471TIP3    H152904   3.119   2.731   5.737  0.9595 -0.3816 -0.6805
10471TIP3    H252905   3.139   2.877   5.773  0.8877 -0.5887  0.2054
10472TIP3   OH252906   0.983   5.389  14.186 -0.4185  0.2848 -0.0089
10472TIP3    H152907   1.058   5.331  14.173  0.4792  1.7327 -1.4182
10472TIP3    H252908   0.907   5.331  14.183  0.4846 -0.8791 -0.9048
10473TIP3   OH252909   6.086   5.161  13.061 -0.4732 -0.4403 -0.2143
10473TIP3    H152910   6.151   5.137  13.127  0.1481  1.8105  0.0006
10473TIP3    H252911   6.097   5.095  12.992 -0.2337 -2.0332  1.2921
10474TIP3   OH252912   3.550   1.402   3.465  0.0055 -0.3711  0.1776
10474TIP3    H152913   3.576   1.312   3.487 -3.9525 -1.3997  0.9728
10474TIP3    H252914   3.562   1.451   3.546 -2.3639 -1.3246  1.1708
10475TIP3   OH252915   6.557   1.081  16.906 -0.3154  0.2184  0.2135
10475TIP3    H152916   6.492   1.111  16.843 -0.1205 -3.2351 -1.7852
10475TIP3    H252917   6.507   1.030  16.970  0.0189  0.3050  0.5510
10476TIP3   OH252918   2.096   4.922  12.030 -0.7153  0.0209 -0.0873
10476TIP3    H152919   2.139   4.945  12.113 -2.3011  0.2231  0.7015
10476TIP3    H252920   2.145   4.970  11.963 -0.6345  1.4154  0.9561
10477TIP3   OH252921   3.795   5.675   2.898 -0.0878  0.0364  0.2730
10477TIP3    H152922   3.833   5.671   2.986  0.1671 -1.1488  0.1162
10477TIP3    H252923   3.846   5.743   2.854 -1.2431  1.7506  1.5046
10478TIP3   OH252924   3.290   0.413  11.646  0.1480 -0.2712 -0.4127
10478TIP3    H152925   3.313   0.416  11.553 -0.3833  0.1704 -0.5268
10478TIP3    H252926   3.276   0.320  11.664  2.2397 -0.5880 -0.2879
10479TIP3   OH252927   3.187   0.696  14.543 -0.7949 -0.1380  0.4450
10479TIP3    H152928   3.149   0.642  14.613 -1.5961  0.4226  0.4581
10479TIP3    H252929   3.223   0.772  14.589  0.0015 -0.4851  0.3911
10480TIP3   OH252930   1.164   5.428  13.853  0.0515 -0.1245  0.7533
10480TIP3    H152931   1.156   5.340  13.817 -1.1923  0.0709  0.5417
10480TIP3    H252932   1.188   5.415  13.945  0.9399 -0.6594  0.4482
10481TIP3   OH252933   5.465   1.724  16.044 -0.7146 -1.2864  0.6032
10481TIP3    H152934   5.509   1.798  16.003 -0.1593 -0.4187  2.6681
10481TIP3    H252935   5.492   1.648  15.993  1.1721 -0.4359  0.2807
10482TIP3   OH252936   6.388   0.533   4.265 -0.2533 -0.4257  0.2149
10482TIP3    H152937   6.314   0.498   4.315  0.2272  0.8745  1.8685
10482TIP3    H252938   6.452   0.462   4.264 -1.2469 -1.3297 -0.6646
10483TIP3   OH252939   6.784   2.454   2.346  0.1452 -0.1543  0.3804
10483TIP3    H152940   6.798   2.426   2.256  0.1964  1.0356  0.0109
10483TIP3    H252941   6.841   2.530   2.357  1.0592 -1.0319  1.8057
10484TIP3   OH252942   6.060   1.951  14.402  0.3229 -0.0348 -0.1491
10484TIP3    H152943   6.125   1.895  14.443  0.1114  0.8389  1.4347
10484TIP3    H252944   6.027   1.901  14.328  3.2418 -0.2389 -1.3470
10485TIP3   OH252945   3.249   6.322  11.543 -0.4488  0.1821 -0.0937
10485TIP3    H152946   3.307   6.259  11.586  1.3558  1.0077 -1.2919
10485TIP3    H252947   3.162   6.299  11.576  0.3609 -1.9379  0.6974
10486TIP3   OH252948   0.676   6.462   0.534 -0.1110  0.1355 -0.0871
10486TIP3    H152949   0.633   6.399   0.476  0.0729  0.0839 -0.1665
10486TIP3    H252950   0.764   6.427   0.547 -0.2125  0.0521  0.3674
10487TIP3   OH252951   3.401   5.496   2.773  0.2231 -0.2561  0.0794
10487TIP3    H152952   3.335   5.537   2.829  0.3764  0.1928 -0.0612
10487TIP3    H252953   3.452   5.570   2.738  1.1118 -0.6190  0.5711
10488TIP3   OH252954   4.101   3.091   5.109  0.2448  0.3658  0.5098
10488TIP3    H152955   4.042   3.123   5.040  0.6017 -1.5398 -0.7228
10488TIP3    H252956   4.045   3.042   5.168  0.4824 -0.8947 -0.3052
10489TIP3   OH252957   5.851   6.680  14.443 -0.0595 -0.6371 -0.1464
10489TIP3    H152958   5.935   6.722  14.460 -0.1915 -0.0556 -0.9317
10489TIP3    H252959   5.831   6.634  14.525  0.2202  0.5855  0.6217
10490TIP3   OH252960   0.033   1.482  15.822  0.2013  0.0181 -0.6620
10490TIP3    H152961  -0.020   1.559  15.801 -2.1234 -0.9117  1.6156
10490TIP3    H252962   0.090   1.512  15.893  0.5667  0.1218 -0.9945
10491TIP3   OH252963   4.649   6.199   5.824  0.1403 -0.3809  0.4466
10491TIP3    H152964   4.681   6.172   5.737  2.1304  2.1796  0.3155
10491TIP3    H252965   4.580   6.136   5.845 -1.7272  0.0277 -3.8372
10492TIP3   OH252966   0.882   0.044   2.705  0.3491  0.3885  0.2575
10492TIP3    H152967   0.915   0.056   2.616 -0.3642  2.4409  0.2555
10492TIP3    H252968   0.944   0.091   2.760 -0.1503  0.5702  0.6658
10493TIP3   OH252969   4.015   2.348   1.472  0.1412 -0.4938 -0.2730
10493TIP3    H152970   4.040   2.423   1.417 -1.6125 -0.4199 -1.0260
10493TIP3    H252971   3.952   2.384   1.534 -0.0090 -1.1632 -0.0359
10494TIP3   OH252972   4.700   4.121   0.633  0.2504 -0.0767  0.1259
10494TIP3    H152973   4.733   4.074   0.556 -0.7644  0.1211 -0.4385
10494TIP3    H252974   4.616   4.157   0.604 -0.4983 -0.6516  1.5668
10495TIP3   OH252975   0.484   6.628  13.776 -0.4330  0.2311  0.5678
10495TIP3    H152976   0.429   6.707  13.768 -0.0571  0.5264  0.9030
10495TIP3    H252977   0.548   6.637  13.706  0.9175  1.2707  1.9080
10496TIP3   OH252978   6.064   1.670  11.077  0.4903  0.3563  0.0804
10496TIP3    H152979   6.054   1.764  11.086  1.2579  0.3186  1.4882
10496TIP3    H252980   6.157   1.654  11.092  0.5004 -0.5487 -0.8712
10497TIP3   OH252981   0.840   4.076   3.254 -0.3573  0.2864 -0.7204
10497TIP3    H152982   0.788   4.019   3.197  3.0091 -2.5259 -1.1237
10497TIP3    H252983   0.856   4.154   3.201 -0.6263 -0.5997 -2.1468
10498TIP3   OH252984   5.747   6.120  11.008  0.0717 -0.0367  0.1078
10498TIP3    H152985   5.690   6.137  11.083  1.0996 -0.6693  1.0391
10498TIP3    H252986   5.733   6.195  10.950 -1.3893  0.0253  0.5140
10499TIP3   OH252987   3.450   6.570   6.406 -0.2093 -0.2097 -0.3886
10499TIP3    H152988   3.469   6.525   6.488 -0.4590 -0.3013 -0.3816
10499TIP3    H252989   3.536   6.586   6.366 -0.1911 -1.9358 -1.0663
10500TIP3   OH252990   4.350   3.075  16.863 -0.0030 -0.1700  0.2030
10500TIP3    H152991   4.357   3.157  16.911  0.2097  0.6390 -1.1769
10500TIP3    H252992   4.259   3.048  16.874 -0.6174  1.3296 -1.0286
10501TIP3   OH252993   3.196   2.377  12.998 -0.3175  0.3741 -0.3491
10501TIP3    H152994   3.119   2.423  13.030  0.0303  0.6853  0.0413
10501TIP3    H252995   3.232   2.333  13.075  0.5780  1.2040 -0.2801
10502TIP3   OH252996   1.157   0.670   5.610  0.2307  0.2337 -0.0143
10502TIP3    H152997   1.191   0.759   5.604  0.7901  0.0404  0.2451
10502TIP3    H252998   1.169   0.634   5.523 -0.7389  0.6752 -0.3352
10503TIP3   OH252999   5.004   6.458   0.617  0.9914 -0.3973  0.4337
10503TIP3    H153000   4.950   6.378   0.621 -0.7660  0.7891  0.9119
10503TIP3    H253001   5.011   6.486   0.709 -1.6820  2.1260 -0.0597
10504TIP3   OH253002   2.108   0.573  14.365  0.6377 -0.6407  0.3802
10504TIP3    H153003   2.162   0.533  14.297 -0.2659  0.9228 -1.2891
10504TIP3    H253004   2.063   0.645  14.321 -0.2993  0.1322  2.5336
10505TIP3   OH253005   2.346   5.090  11.900  0.7180  0.2439  0.4553
10505TIP3    H153006   2.388   5.054  11.823  1.3210 -0.2779  1.0269
10505TIP3    H253007   2.373   5.182  11.901 -1.4983  0.9556 -1.4652
10506TIP3   OH253008   0.860   2.743  11.062  0.1156  0.6064  0.3933
10506TIP3    H153009   0.788   2.679  11.064 -0.1707  0.9105 -0.1695
10506TIP3    H253010   0.818   2.827  11.077  0.1839  0.9304 -1.1646
10507TIP3   OH253011   0.251   2.421  12.723 -0.3856 -0.2159  0.4196
10507TIP3    H153012   0.333   2.374  12.708 -0.5601 -0.5579  0.5351
10507TIP3    H253013   0.273   2.513  12.708  0.8712  0.1051  3.7123
10508TIP3   OH253014   2.129   0.493  16.109  0.2058 -0.3914  0.7240
10508TIP3    H153015   2.080   0.411  16.109 -0.0618 -0.2431  1.4187
10508TIP3    H253016   2.132   0.518  16.201 -0.8280  1.0204  0.3976
10509TIP3   OH253017   5.040   3.432  12.545  0.1286 -0.0302 -0.0602
10509TIP3    H153018   4.974   3.391  12.488  2.2135 -3.0610 -0.4137
10509TIP3    H253019   5.094   3.484  12.485 -1.3377  1.7115  0.0959
10510TIP3   OH253020   6.226   2.241   1.983  0.5180 -0.0842  0.3850
10510TIP3    H153021   6.272   2.170   1.937 -0.3893 -0.5513  0.1775
10510TIP3    H253022   6.140   2.204   2.003  0.4021  0.6164  1.1952
10511TIP3   OH253023   1.739   2.164   0.900  0.4695  0.0034  0.4698
10511TIP3    H153024   1.754   2.214   0.820 -0.7006  0.8989  0.7958
10511TIP3    H253025   1.772   2.220   0.970  1.3391 -0.7050  0.6323
10512TIP3   OH253026   2.140   1.009  14.673 -0.0635 -0.1422 -0.3511
10512TIP3    H153027   2.093   0.927  14.655 -0.2694  0.2227 -1.5460
10512TIP3    H253028   2.085   1.054  14.738 -0.6075 -0.3854 -0.6385
10513TIP3   OH253029   5.342   6.074  15.889 -0.1186 -0.2743  0.4615
10513TIP3    H153030   5.265   6.125  15.913  0.3668  0.9397 -0.4599
10513TIP3    H253031   5.320   5.984  15.911 -1.9410  0.0046 -0.1311
10514TIP3   OH253032   1.309   5.193   0.426 -0.4034 -0.0141 -0.1485
10514TIP3    H153033   1.231   5.137   0.423 -2.1095  2.2950 -0.4577
10514TIP3    H253034   1.322   5.220   0.335  0.8165 -0.4497 -0.1027
10515TIP3   OH253035   1.922   6.370  13.391 -0.1641  1.0261 -0.3890
10515TIP3    H153036   1.902   6.331  13.306 -0.6169  0.4468 -0.0227
10515TIP3    H253037   1.842   6.355  13.442  1.4400 -2.0309  1.3701
10516TIP3   OH253038   0.545   2.957   2.407 -0.3293  0.2702  0.2097
10516TIP3    H153039   0.496   3.024   2.455 -0.6920  0.7085 -0.7570
10516TIP3    H253040   0.488   2.933   2.334  0.8983  0.8178 -0.9638
10517TIP3   OH253041   5.788   2.085  12.501  0.4332  0.2042  0.6101
10517TIP3    H153042   5.772   2.049  12.588  1.5064  0.7245  1.0402
10517TIP3    H253043   5.840   2.018  12.457  0.9067  0.4475  0.7915
10518TIP3   OH253044   4.658   6.783  14.213 -0.1186 -0.5023  0.1076
10518TIP3    H153045   4.724   6.738  14.160 -0.3966 -0.0683 -0.6235
10518TIP3    H253046   4.647   6.728  14.291  2.5860  0.4427  1.2170
10519TIP3   OH253047   0.450   2.394   1.567 -0.0080 -0.4360  0.1139
10519TIP3    H153048   0.408   2.360   1.488 -0.0055  0.1348 -0.1341
10519TIP3    H253049   0.379   2.437   1.615 -0.1035 -1.1736  0.6468
10520TIP3   OH253050   3.395   4.854  15.565 -0.6485  0.1317  0.1640
10520TIP3    H153051   3.456   4.879  15.635 -2.1158  3.8616  0.2516
10520TIP3    H253052   3.360   4.938  15.534 -1.1670 -1.5383 -4.0355
10521TIP3   OH253053   1.004   3.213  10.952  0.1999 -0.0027  0.0117
10521TIP3    H153054   0.936   3.152  10.924  0.3884 -0.4700  0.5657
10521TIP3    H253055   1.083   3.160  10.961  0.2546  0.2141  0.9571
10522TIP3   OH253056   4.868   1.807   3.963  0.0335  0.1836  0.0995
10522TIP3    H153057   4.860   1.898   3.936  0.8674  0.5597  1.1126
10522TIP3    H253058   4.865   1.809   4.058  1.0751 -0.7320  0.1698
10523TIP3   OH253059   2.613   1.315  13.602 -0.1749  1.0839  0.3781
10523TIP3    H153060   2.541   1.311  13.539  1.4951  1.1408 -1.5948
10523TIP3    H253061   2.572   1.298  13.687 -2.6167  1.8448 -0.6023
10524TIP3   OH253062   2.017   2.701   4.737 -0.0334  0.3280  0.0444
10524TIP3    H153063   2.112   2.711   4.748 -0.1345  0.0026  1.3335
10524TIP3    H253064   1.989   2.656   4.817 -1.1080 -0.5916 -0.8417
10525TIP3   OH253065   3.304   6.452   4.478  0.1986  0.4205  0.5635
10525TIP3    H153066   3.330   6.498   4.558 -0.5613  0.5917  0.7166
10525TIP3    H253067   3.384   6.446   4.427  0.1214  2.8164  0.0854
10526TIP3   OH253068   3.358   0.430   6.390  0.3327  0.5842  0.2864
10526TIP3    H153069   3.373   0.518   6.425 -1.4587  0.6354  0.9597
10526TIP3    H253070   3.397   0.372   6.455  1.2540  0.8531 -0.0129
10527TIP3   OH253071   5.773   1.732   2.138 -0.1787  0.1933  0.1210
10527TIP3    H153072   5.777   1.802   2.074 -0.6500  0.6193  0.5577
10527TIP3    H253073   5.766   1.776   2.222 -2.7089 -0.3911  0.2426
10528TIP3   OH253074   5.961   0.018  16.621  0.1962 -0.0442 -0.4097
10528TIP3    H153075   5.894   0.008  16.553  1.9121 -3.4927 -1.7190
10528TIP3    H253076   5.930  -0.038  16.693  0.0714  0.9318  0.3014
10529TIP3   OH253077   2.247   4.385   1.915 -0.3942  0.1517 -0.6408
10529TIP3    H153078   2.266   4.404   1.823 -1.1108 -1.8986 -1.2382
10529TIP3    H253079   2.185   4.312   1.912 -1.2113  0.7406  1.4587
10530TIP3   OH253080   2.026   2.110   2.761 -0.2139 -0.0163 -0.6166
10530TIP3    H153081   2.120   2.128   2.763 -0.7165  2.9654 -0.6030
10530TIP3    H253082   2.010   2.071   2.675  1.0836 -0.8757 -0.4727
10531TIP3   OH253083   1.383   6.137  10.963 -0.0062  0.2172 -0.1150
10531TIP3    H153084   1.411   6.098  11.045  0.1738  0.9173  0.1643
10531TIP3    H253085   1.390   6.067  10.899  1.4427  0.1125  0.1450
10532TIP3   OH253086   3.689   6.755   3.031 -0.2970  0.1683  0.2263
10532TIP3    H153087   3.759   6.700   3.066  0.6622 -0.2646 -2.2360
10532TIP3    H253088   3.634   6.775   3.106  0.0050 -3.1812  1.4206
10533TIP3   OH253089   0.544   0.331   3.178  0.2490 -0.5357  0.3733
10533TIP3    H153090   0.547   0.394   3.250  0.9928  1.5135 -1.3973
10533TIP3    H253091   0.634   0.303   3.166  0.0662 -1.1944  0.4938
10534TIP3   OH253092   6.724   4.663  13.153 -0.7798  0.2545  0.2440
10534TIP3    H153093   6.731   4.595  13.085  2.4936 -0.8386  1.5621
10534TIP3    H253094   6.741   4.745  13.107  1.1023 -0.4431 -0.3432
10535TIP3   OH253095   1.720   5.307  16.515 -0.3498  0.1170  0.4471
10535TIP3    H153096   1.726   5.213  16.499 -3.5180 -0.1748  0.5615
10535TIP3    H253097   1.772   5.347  16.446 -1.0435 -1.6707 -1.1547
10536TIP3   OH253098   3.131   3.187  11.268 -0.3751  0.3576 -0.1657
10536TIP3    H153099   3.134   3.093  11.282 -1.5731  0.3171 -0.1045
10536TIP3    H253100   3.150   3.198  11.175  2.2232  0.2487  0.3079
10537TIP3   OH253101   0.111   3.543   4.000 -0.7702 -0.2365 -0.1153
10537TIP3    H153102   0.149   3.469   3.954 -1.7963 -1.4899  1.0340
10537TIP3    H253103   0.017   3.532   3.991 -0.9512  0.3839  0.9229
10538TIP3   OH253104   5.559   6.818  16.299 -0.1888 -0.5069 -0.1281
10538TIP3    H153105   5.632   6.826  16.237  0.3418  1.7001  0.7486
10538TIP3    H253106   5.483   6.850  16.250 -0.2003 -0.9135 -0.3781
10539TIP3   OH253107   1.214   0.582   2.227  1.0008 -0.0207  0.1245
10539TIP3    H153108   1.175   0.560   2.312 -0.0701 -0.1464 -0.3847
10539TIP3    H253109   1.288   0.638   2.248  0.9481 -0.3327  1.1637
10540TIP3   OH253110   1.135   4.148   2.388  0.1404 -0.0247 -0.6785
10540TIP3    H153111   1.177   4.165   2.304  1.2258 -0.9371 -0.3261
10540TIP3    H253112   1.157   4.224   2.442  1.2339 -0.4528 -0.5285
10541TIP3   OH253113   6.323   3.776  16.677  0.1769 -0.2524 -0.2074
10541TIP3    H153114   6.252   3.737  16.627 -0.3871 -0.4642  0.7342
10541TIP3    H253115   6.374   3.701  16.709 -0.7154 -0.2258  1.3248
10542TIP3   OH253116   4.936   1.137   2.226  0.0466 -0.8421  0.6591
10542TIP3    H153117   4.956   1.085   2.148 -2.6953 -1.8966  0.6368
10542TIP3    H253118   4.902   1.220   2.191 -0.4727 -1.0251  0.7334
10543TIP3   OH253119   3.838   2.822  12.712  0.0177  0.2919 -0.3990
10543TIP3    H153120   3.888   2.777  12.780  2.5619  1.3898 -1.4577
10543TIP3    H253121   3.799   2.752  12.659 -0.9591 -0.5696  1.4324
10544TIP3   OH253122   0.582   5.223   4.968 -0.3725 -0.1603 -0.4268
10544TIP3    H153123   0.550   5.206   4.879 -1.7485 -1.7370  0.3301
10544TIP3    H253124   0.652   5.158   4.980  1.2329  1.4015 -1.0545
10545TIP3   OH253125   4.634   5.486   3.994 -0.3285 -0.1950 -0.2820
10545TIP3    H153126   4.620   5.455   3.905  2.5561 -0.4676 -0.7001
10545TIP3    H253127   4.693   5.561   3.984 -1.5185  0.9692  1.2645
10546TIP3   OH253128   2.514   6.673   1.033 -0.5565  0.1266  0.5493
10546TIP3    H153129   2.511   6.657   1.128  0.5945  1.0843  0.7615
10546TIP3    H253130   2.490   6.765   1.024  1.4830  0.6351  0.1035
10547TIP3   OH253131   0.326   0.008   1.438 -0.8006  0.9197 -0.1874
10547TIP3    H153132   0.307   0.017   1.344  0.3812  1.8716 -0.3439
10547TIP3    H253133   0.248   0.044   1.481 -1.4831  0.1944 -0.8012
10548TIP3   OH253134   4.335   5.066  14.868 -0.1618 -0.3766  0.7208
10548TIP3    H153135   4.295   5.101  14.947  1.6730  0.4308  1.3292
10548TIP3    H253136   4.269   5.077  14.800 -0.8401  1.2095  1.6212
10549TIP3   OH253137   6.291   4.279  15.979 -0.2708 -0.3008  0.5412
10549TIP3    H153138   6.335   4.194  15.979 -0.2275 -0.2779  0.1971
10549TIP3    H253139   6.198   4.257  15.972 -0.2661 -0.3235  0.5441
10550TIP3   OH253140   4.249   1.642   6.080 -0.3331 -0.0439 -0.2584
10550TIP3    H153141   4.305   1.688   6.142 -0.7464  0.1985 -0.0595
10550TIP3    H253142   4.161   1.651   6.116 -0.6462  0.5267 -1.1303
10551TIP3   OH253143   0.560   2.275   3.236 -0.1283  0.4798 -0.1356
10551TIP3    H153144   0.478   2.226   3.223  0.0295  0.3267 -0.5519
10551TIP3    H253145   0.583   2.306   3.148 -1.6353  3.5466  0.4834
10552TIP3   OH253146   3.966   4.741   1.095 -0.2758 -0.3013 -0.7280
10552TIP3    H153147   3.876   4.743   1.063 -0.3401 -3.3763 -0.9436
10552TIP3    H253148   3.968   4.667   1.156  1.6961  0.7747  0.5826
10553TIP3   OH253149   0.443   3.451   0.774  0.0109  0.2546 -0.5503
10553TIP3    H153150   0.364   3.417   0.732 -0.6366  0.7095  0.2672
10553TIP3    H253151   0.458   3.536   0.732  0.5405 -0.1832 -1.2681
10554TIP3   OH253152   2.380   3.070   5.116 -0.8880  0.0220 -0.7483
10554TIP3    H153153   2.464   3.048   5.075 -0.2494  1.4846 -0.2521
10554TIP3    H253154   2.355   3.154   5.076 -0.7650  0.9457  1.0636
10555TIP3   OH253155   6.090   5.359  14.496  0.5178 -0.2289 -0.2351
10555TIP3    H153156   6.035   5.371  14.419  1.3609  0.1129 -0.7973
10555TIP3    H253157   6.128   5.272  14.485  1.5045  0.2610 -0.7771
10556TIP3   OH253158   6.067   0.150   1.100 -0.2554 -0.5566  0.3698
10556TIP3    H153159   5.995   0.202   1.134  0.0523  0.1850 -0.0906
10556TIP3    H253160   6.127   0.140   1.174 -0.9446 -1.3836  0.8174
10557TIP3   OH253161   6.532   1.838   5.771 -0.6134 -0.1240  0.1998
10557TIP3    H153162   6.538   1.846   5.867 -0.2368 -0.9269  0.2482
10557TIP3    H253163   6.459   1.778   5.757 -1.8656  1.4154 -0.0875
10558TIP3   OH253164   1.159   2.694  13.434 -0.0610  0.4068 -0.2335
10558TIP3    H153165   1.207   2.694  13.517  0.9427  0.5657 -0.8099
10558TIP3    H253166   1.067   2.701  13.460  0.1217 -1.2326  0.9399
10559TIP3   OH253167   4.627   5.882  12.658 -0.0262 -0.1649  0.2823
10559TIP3    H153168   4.532   5.888  12.648 -0.1410 -2.1704  0.0484
10559TIP3    H253169   4.640   5.864  12.751  0.3010  3.1901  0.9323
10560TIP3   OH253170   3.580   5.964  13.786 -0.4108 -0.1679 -0.4604
10560TIP3    H153171   3.674   5.977  13.796 -0.6885  0.5298  1.4206
10560TIP3    H253172   3.571   5.878  13.746  0.9408 -1.2516  1.5531
10561TIP3   OH253173   5.493   5.355  16.697 -0.4328  0.3199  0.2695
10561TIP3    H153174   5.507   5.260  16.694 -0.8262  0.3053 -1.4611
10561TIP3    H253175   5.561   5.387  16.756  0.0955 -0.9641  0.3873
10562TIP3   OH253176   0.588   6.007  17.090 -0.4784 -0.4868  0.3508
10562TIP3    H153177   0.599   5.913  17.074  0.0550 -0.8116  2.5435
10562TIP3    H253178   0.525   6.011  17.162  1.2874  0.7634  1.8481
10563TIP3   OH253179   2.767   3.288  12.944 -0.1535 -0.1454  0.0396
10563TIP3    H153180   2.804   3.248  12.865 -1.7824  0.4241 -1.0268
10563TIP3    H253181   2.673   3.289  12.929 -0.2740  2.7413  0.6628
10564TIP3   OH253182   0.644   3.597   2.459 -0.2401  0.2479 -0.1005
10564TIP3    H153183   0.694   3.662   2.508  1.2836 -1.2157  0.3495
10564TIP3    H253184   0.617   3.642   2.380 -0.5787  1.8967  0.9432
10565TIP3   OH253185   5.652   0.393   3.253  0.4020  0.3061  0.4839
10565TIP3    H153186   5.557   0.401   3.262  0.4609  1.4063  0.2292
10565TIP3    H253187   5.666   0.373   3.160  0.4942  1.7616  0.1660
10566TIP3   OH253188   1.253   1.532   2.046  0.1603  0.1678 -0.1800
10566TIP3    H153189   1.332   1.523   2.100  0.8116 -1.0469 -1.3114
10566TIP3    H253190   1.183   1.494   2.098  0.6191 -0.2087  0.1597
10567TIP3   OH253191   4.452   0.058  17.274  0.5429  0.1731  0.0642
10567TIP3    H153192   4.510  -0.013  17.300 -0.7985 -0.6856  0.7560
10567TIP3    H253193   4.502   0.137  17.290  1.7922 -0.5857 -0.0581
10568TIP3   OH253194   2.645   0.346  15.382  0.2451  0.3330  0.0566
10568TIP3    H153195   2.727   0.396  15.390 -0.5297  1.5223  0.7172
10568TIP3    H253196   2.583   0.393  15.437 -1.3619  0.4313 -1.7675
10569TIP3   OH253197   1.931   4.594  14.890  0.3744 -0.2530  0.1524
10569TIP3    H153198   1.841   4.594  14.857  0.8594  3.4421 -1.4890
10569TIP3    H253199   1.927   4.650  14.968  0.7462 -2.4529  1.7838
10570TIP3   OH253200   5.755   0.707   1.657  0.5687  0.6234 -0.2667
10570TIP3    H153201   5.829   0.669   1.703  0.7009  2.3889  1.0490
10570TIP3    H253202   5.788   0.725   1.569  1.3787  0.3812 -0.0125
10571TIP3   OH253203   4.856   6.577   2.210 -0.2788  0.1355 -0.0464
10571TIP3    H153204   4.893   6.651   2.161  3.2839 -1.4706  0.1019
10571TIP3    H253205   4.847   6.508   2.145 -1.4784 -0.0274  0.2866
10572TIP3   OH253206   4.096   2.820  16.814 -0.1683 -0.1678 -0.2772
10572TIP3    H153207   4.131   2.870  16.741  0.5400 -0.0542  0.1337
10572TIP3    H253208   4.062   2.740  16.775  1.9312 -0.9835 -0.5213
10573TIP3   OH253209   4.390   5.469  11.200 -0.1406  0.3008  0.9712
10573TIP3    H153210   4.319   5.406  11.205  0.3034 -0.5505 -1.9709
10573TIP3    H253211   4.470   5.416  11.202  0.3311  1.0410  1.8676
10574TIP3   OH253212   1.542   4.527   6.399 -0.3273  0.2627 -0.1230
10574TIP3    H153213   1.600   4.480   6.339  0.6622  1.3857 -0.0588
10574TIP3    H253214   1.581   4.512   6.486 -0.3782  0.6674 -0.0315
10575TIP3   OH253215   1.894   5.496  12.552 -0.6085 -0.3889  0.3544
10575TIP3    H153216   1.844   5.536  12.623  0.3146 -0.8942  1.3039
10575TIP3    H253217   1.953   5.434  12.596 -0.1572 -0.8405 -0.8648
10576TIP3   OH253218   1.421   3.006   1.664 -0.3614 -0.2288 -0.2280
10576TIP3    H153219   1.436   3.038   1.753 -0.1180 -1.2241  0.0894
10576TIP3    H253220   1.327   3.014   1.652 -0.1484  2.0204 -0.6976
10577TIP3   OH253221   0.893   1.844   2.831  1.0261  0.5068  0.3541
10577TIP3    H153222   0.974   1.847   2.881  0.1721  2.0046  1.6894
10577TIP3    H253223   0.829   1.891   2.885 -0.6038 -0.1986 -0.9060
10578TIP3   OH253224   6.455   3.585  16.416 -0.1561  0.1609  0.7334
10578TIP3    H153225   6.434   3.641  16.341 -0.6514 -0.6079  0.2877
10578TIP3    H253226   6.394   3.512  16.409  0.7646 -0.6521  1.0594
10579TIP3   OH253227   5.375   1.340   5.328  0.1357 -0.3245  0.3239
10579TIP3    H153228   5.324   1.324   5.248  0.3169  1.4009 -0.1591
10579TIP3    H253229   5.401   1.432   5.322  1.1650 -0.4972  1.8018
10580TIP3   OH253230   2.553   3.897  12.577 -0.5843 -0.0586 -0.2989
10580TIP3    H153231   2.478   3.937  12.621 -0.2444  0.7709 -0.4690
10580TIP3    H253232   2.566   3.950  12.498  0.5396  0.1492  0.0220
10581TIP3   OH253233   5.021   4.635  17.199 -0.3935  0.1684  0.1990
10581TIP3    H153234   4.942   4.635  17.144 -0.3366  1.7479  0.0853
10581TIP3    H253235   5.091   4.661  17.139  0.0897 -0.4925  0.4718
10582TIP3   OH253236   4.071   4.744   2.323  0.2784  0.3709 -0.1054
10582TIP3    H153237   4.161   4.752   2.293 -0.0216 -2.0365 -1.7837
10582TIP3    H253238   4.078   4.717   2.414  1.2340  1.2699  0.0938
10583TIP3   OH253239   3.861   5.462  10.774 -0.2141 -0.3576 -0.2966
10583TIP3    H153240   3.849   5.557  10.777 -0.4631 -0.3926 -0.1349
10583TIP3    H253241   3.837   5.438  10.685 -1.2182 -0.4060 -0.0151
10584TIP3   OH253242   0.113   3.345  13.170  0.8384 -0.5027  0.0212
10584TIP3    H153243   0.116   3.300  13.085  0.4290  0.2211 -0.3772
10584TIP3    H253244   0.200   3.330  13.207  0.4171 -2.4111  0.3102
10585TIP3   OH253245   3.499   2.547   1.228 -0.0499  0.2213  0.0697
10585TIP3    H153246   3.445   2.579   1.156  1.2573  0.0329 -1.0180
10585TIP3    H253247   3.540   2.468   1.194  3.1158  1.8851 -0.1564
10586TIP3   OH253248   2.267   6.365  15.793  0.3592  0.0278 -0.1696
10586TIP3    H153249   2.314   6.375  15.876  1.0917  0.2276 -0.6018
10586TIP3    H253250   2.257   6.454  15.760  0.3446 -0.0695 -0.4350
10587TIP3   OH253251   1.424   4.434  11.570  0.1112 -0.0336 -0.0222
10587TIP3    H153252   1.371   4.405  11.495  1.2708 -0.7166 -0.5980
10587TIP3    H253253   1.399   4.526  11.583 -0.7455 -0.1645 -0.6860
10588TIP3   OH253254   2.344   4.442  13.766 -0.5983  0.0622 -0.1324
10588TIP3    H153255   2.333   4.488  13.849 -1.7143  1.3902 -0.9859
10588TIP3    H253256   2.262   4.393  13.755 -0.3617 -0.2877 -0.3390
10589TIP3   OH253257   5.815   3.481  11.834  0.1305  0.4360  0.3851
10589TIP3    H153258   5.896   3.531  11.831 -0.3284  1.4157  3.2397
10589TIP3    H253259   5.762   3.517  11.762  1.2515  1.4955  0.0768
10590TIP3   OH253260   5.270   0.487  17.130 -0.1609 -0.4264  0.1799
10590TIP3    H153261   5.277   0.579  17.156 -2.4574 -0.2775  0.3678
10590TIP3    H253262   5.225   0.445  17.204 -1.2683 -1.2279 -0.9425
10591TIP3   OH253263   2.913   0.413   0.321 -0.6047  0.5619 -0.7015
10591TIP3    H153264   2.952   0.479   0.263 -0.2642  1.9614  1.0861
10591TIP3    H253265   2.983   0.348   0.333 -0.3652  0.7394 -1.1189
10592TIP3   OH253266   4.251   6.591  12.997  0.4862  0.1502  0.3043
10592TIP3    H153267   4.227   6.609  12.906  1.8128 -0.3457 -0.1512
10592TIP3    H253268   4.339   6.554  12.992  1.3949  1.9822  1.9420
10593TIP3   OH253269   4.693   3.132   2.530 -0.2089 -0.5457 -0.6537
10593TIP3    H153270   4.783   3.153   2.554 -0.5777 -0.6303  0.8421
10593TIP3    H253271   4.684   3.164   2.440  1.8462 -2.1153 -1.4696
10594TIP3   OH253272   3.365   5.001   3.356  0.4592  0.0378  0.8771
10594TIP3    H153273   3.345   5.042   3.272  1.4309  1.1031  1.1595
10594TIP3    H253274   3.291   4.942   3.372  0.3658 -0.3230 -0.8146
10595TIP3   OH253275   1.916   0.901   1.660  0.1492 -0.0698 -0.0484
10595TIP3    H153276   1.837   0.847   1.661 -0.2072  0.4076  2.5845
10595TIP3    H253277   1.887   0.985   1.696  2.0901 -0.2853  2.0944
10596TIP3   OH253278   4.394   5.886   4.990 -0.3908  0.3658  0.3538
10596TIP3    H153279   4.403   5.802   5.034 -1.8682 -0.3570 -0.6690
10596TIP3    H253280   4.481   5.904   4.955  0.6474  0.6632  2.9934
10597TIP3   OH253281   3.318   3.002  15.520 -0.4196  0.0152 -0.2187
10597TIP3    H153282   3.308   3.076  15.460 -1.7934 -0.2144 -0.2918
10597TIP3    H253283   3.401   3.018  15.564  0.0664  0.7709 -1.3773
10598TIP3   OH253284   2.051   1.724   2.074  0.0682 -0.1447 -0.0465
10598TIP3    H153285   1.967   1.724   2.119  0.3071  0.1717  0.4054
10598TIP3    H253286   2.082   1.814   2.082 -0.1664  0.0539 -1.3660
10599TIP3   OH253287   2.911   0.364   3.618 -0.2464 -0.0615 -0.2899
10599TIP3    H153288   2.816   0.370   3.611 -0.2967  0.4324  0.7357
10599TIP3    H253289   2.941   0.350   3.528 -1.1972  0.9349 -0.7647
10600TIP3   OH253290   6.073   1.109  12.298 -0.2231  0.1316  0.3183
10600TIP3    H153291   6.035   1.189  12.261  0.4699  0.0828 -0.5067
10600TIP3    H253292   6.014   1.039  12.270  0.0513  0.1531 -0.3194
10601TIP3   OH253293   1.865   3.785  14.817  0.1717  0.0657  0.7697
10601TIP3    H153294   1.915   3.808  14.738 -0.6449 -1.3791 -0.1911
10601TIP3    H253295   1.778   3.820  14.801 -0.4321 -1.6020  0.3223
10602TIP3   OH253296   3.211   3.779   2.133  0.6650 -0.0834  0.9398
10602TIP3    H153297   3.185   3.693   2.099  0.7722 -0.2277  1.2231
10602TIP3    H253298   3.282   3.807   2.076 -0.4122  0.5233 -0.1340
10603TIP3   OH253299   4.042   3.931   0.204  0.5195 -0.2500 -0.7179
10603TIP3    H153300   4.055   3.842   0.173 -0.2061  0.0080 -1.7913
10603TIP3    H253301   3.956   3.956   0.172  0.0580  0.2962  0.9035
10604TIP3   OH253302   0.694   1.666   5.979 -0.1837 -0.2499 -0.1264
10604TIP3    H153303   0.619   1.723   5.965  1.6927  2.1351 -0.7197
10604TIP3    H253304   0.734   1.658   5.892  0.3342 -1.4283  0.2056
10605TIP3   OH253305   2.681   6.514   3.060  0.4521 -0.6825  0.3190
10605TIP3    H153306   2.695   6.607   3.045 -1.1515 -0.4856 -0.0760
10605TIP3    H253307   2.756   6.472   3.018  0.4576  0.3596 -0.7437
10606TIP3   OH253308   2.079   0.755  13.199 -0.0775  0.4395  0.3123
10606TIP3    H153309   2.126   0.694  13.257  0.0702 -0.2611 -0.5433
10606TIP3    H253310   2.042   0.820  13.259  0.4892 -0.0017  1.1573
10607TIP3   OH253311   1.671   2.563  15.075 -0.3398 -0.4032 -0.1135
10607TIP3    H153312   1.765   2.549  15.079 -0.2688 -0.5056 -1.9790
10607TIP3    H253313   1.661   2.657  15.057 -0.6353 -0.1046  1.5053
10608TIP3   OH253314   4.231   0.848  11.984  0.2474 -0.5110  0.0322
10608TIP3    H153315   4.161   0.805  12.033  0.7518  0.5215  1.7214
10608TIP3    H253316   4.263   0.782  11.922 -1.0577 -1.5290  0.4444
10609TIP3   OH253317   5.216   4.552  14.750  0.1109  0.1145 -0.4030
10609TIP3    H153318   5.211   4.497  14.672  2.3055  0.0972 -0.5551
10609TIP3    H253319   5.262   4.498  14.815  0.4543  1.0067  0.1137
10610TIP3   OH253320   3.965   6.355   3.027  0.1932  0.5013 -0.4092
10610TIP3    H153321   3.948   6.334   2.935  0.3782 -2.4244  0.1880
10610TIP3    H253322   3.978   6.271   3.069 -0.0667  1.7939  2.3731
10611TIP3   OH253323   4.367   3.728   4.876  0.3661  0.4570  0.0304
10611TIP3    H153324   4.404   3.656   4.927 -0.6248  0.2736  0.4969
10611TIP3    H253325   4.314   3.777   4.939  1.2830  1.7858 -0.2078
10612TIP3   OH253326   0.821   6.529   3.146 -0.1619  0.1928 -0.1263
10612TIP3    H153327   0.890   6.463   3.139  0.6659  0.7220  2.5128
10612TIP3    H253328   0.868   6.611   3.158 -1.2253  0.9574 -1.1456
10613TIP3   OH253329   3.282   5.122   0.832  0.5693 -0.8844 -0.2246
10613TIP3    H153330   3.290   5.138   0.738  1.8984  1.5219  0.2628
10613TIP3    H253331   3.370   5.098   0.861 -0.0162 -2.4756  0.2615
10614TIP3   OH253332   6.812   0.214   2.363  0.0329  0.3521  0.2573
10614TIP3    H153333   6.801   0.307   2.385 -0.0535  0.4625 -0.2457
10614TIP3    H253334   6.904   0.206   2.341  0.1630  0.1992  0.8477
10615TIP3   OH253335   2.821   4.279   0.362  0.7312  0.5537  0.1017
10615TIP3    H153336   2.728   4.298   0.351  0.6596  0.3352  0.3324
10615TIP3    H253337   2.856   4.277   0.273  0.6738  1.4453  0.0577
10616TIP3   OH253338   2.032   3.416   1.380 -1.1310  0.0325 -0.4353
10616TIP3    H153339   2.097   3.368   1.430 -0.2681  2.2266  0.6005
10616TIP3    H253340   2.057   3.402   1.289  1.1531  1.2929 -0.0386
10617TIP3   OH253341   0.214   2.736   4.348 -0.4337 -0.2594  0.8708
10617TIP3    H153342   0.237   2.647   4.321 -3.3635 -0.8592  0.1317
10617TIP3    H253343   0.174   2.775   4.270  0.0579  1.4263  1.4338
10618TIP3   OH253344   0.877   0.824  16.828 -0.3885  0.1036  0.2423
10618TIP3    H153345   0.956   0.829  16.774 -0.4004 -1.1333  0.0942
10618TIP3    H253346   0.867   0.912  16.863  1.1714  0.2212  0.4379
10619TIP3   OH253347   2.293   6.316  17.168 -0.4432  0.0369  0.4157
10619TIP3    H153348   2.204   6.349  17.182 -0.0596  1.6646 -0.7761
10619TIP3    H253349   2.317   6.277  17.252 -2.7347 -1.5759  0.3561
10620TIP3   OH253350   5.536   4.012  12.056  0.0278  0.1937 -0.0273
10620TIP3    H153351   5.483   4.048  12.128  1.3613  0.0127  1.0623
10620TIP3    H253352   5.485   3.937  12.025  0.0235 -0.5059  1.5894
10621TIP3   OH253353   2.284   0.512   4.180  0.1344  0.1487 -0.6122
10621TIP3    H153354   2.368   0.558   4.191 -0.2949  0.6252  0.7698
10621TIP3    H253355   2.308   0.420   4.170  0.7440 -0.0057  1.8958
10622TIP3   OH253356   3.712   5.751   2.424 -0.1644  0.7888  0.4219
10622TIP3    H153357   3.649   5.751   2.351 -1.9401 -0.9721  1.9076
10622TIP3    H253358   3.779   5.689   2.397 -1.8508 -1.3893  1.1060
10623TIP3   OH253359   0.226   3.105  12.450  0.4754 -0.0198  0.1098
10623TIP3    H153360   0.193   3.122  12.362  0.3594  0.2560  0.2080
10623TIP3    H253361   0.224   3.009  12.458  1.2003 -0.0842 -0.4600
10624TIP3   OH253362   1.239   0.062  14.286 -0.1963  0.3867 -0.4736
10624TIP3    H153363   1.252   0.095  14.375  0.1967 -0.0293 -0.3788
10624TIP3    H253364   1.327   0.049  14.252 -0.3363  1.0792 -1.1261
10625TIP3   OH253365   4.428   3.652  16.239  0.5882 -0.3219  0.4648
10625TIP3    H153366   4.424   3.638  16.144 -0.3985  0.5083  0.3675
10625TIP3    H253367   4.502   3.712  16.251  1.3203 -1.1813  0.3295
10626TIP3   OH253368   6.404   2.128  16.567 -0.2129 -0.4369  0.4879
10626TIP3    H153369   6.316   2.097  16.545 -0.9670  3.0782 -1.8667
10626TIP3    H253370   6.391   2.186  16.642 -0.0625  0.8020 -0.4291
10627TIP3   OH253371   3.734   2.791  15.363 -0.0588 -0.0510  0.2925
10627TIP3    H153372   3.762   2.702  15.387 -1.5617 -0.1655  1.7739
10627TIP3    H253373   3.650   2.778  15.318  1.1224  0.4288 -2.1332
10628TIP3   OH253374   6.526   4.721   4.989 -0.1163 -0.2393  0.0800
10628TIP3    H153375   6.607   4.769   4.976  0.2498 -0.9852 -0.4494
10628TIP3    H253376   6.525   4.656   4.919 -0.2642 -1.4388  1.1650
10629TIP3   OH253377   1.393   6.360  11.247  0.2509 -0.1302  0.0350
10629TIP3    H153378   1.396   6.417  11.170  0.8884 -0.8393 -0.4809
10629TIP3    H253379   1.457   6.291  11.228 -0.8726 -1.3013  0.4069
10630TIP3   OH253380   2.791   6.655   1.795 -0.1341  0.3637  0.0927
10630TIP3    H153381   2.792   6.743   1.833 -0.2909  0.6000 -0.4318
10630TIP3    H253382   2.737   6.603   1.854 -1.3638  1.0224 -0.4401
10631TIP3   OH253383   1.631   6.536  17.187 -0.1117  0.0229 -0.1699
10631TIP3    H153384   1.560   6.586  17.226  1.1733  1.5005  0.3401
10631TIP3    H253385   1.661   6.477  17.256 -0.3070 -0.0181 -0.1208
10632TIP3   OH253386   3.571   2.804  11.788 -0.1800 -0.0156  0.0219
10632TIP3    H153387   3.662   2.776  11.792 -0.2544 -0.1227  1.1940
10632TIP3    H253388   3.576   2.899  11.777  0.1448  0.6223  4.6997
10633TIP3   OH253389   0.652   6.674  13.985  0.2829  0.1152  0.3338
10633TIP3    H153390   0.594   6.684  14.060 -0.3982  1.0236 -0.3040
10633TIP3    H253391   0.595   6.639  13.916  0.7624 -0.0970  0.0458
10634TIP3   OH253392   3.962   1.806   3.548 -0.2503  0.1422 -0.4704
10634TIP3    H153393   3.892   1.794   3.483  0.5630 -2.3363 -0.9418
10634TIP3    H253394   4.038   1.833   3.496 -0.1237  0.0891 -0.3116
10635TIP3   OH253395   0.910   3.863  15.602 -0.1812  0.2557 -0.2591
10635TIP3    H153396   0.989   3.811  15.614 -0.3586 -0.3919 -1.7670
10635TIP3    H253397   0.881   3.885  15.691  0.2332 -1.6843  0.3692
10636TIP3   OH253398   4.379   3.225   5.028 -0.0669  0.6836 -0.4362
10636TIP3    H153399   4.311   3.244   5.093 -1.7275 -0.1396 -1.9038
10636TIP3    H253400   4.420   3.145   5.061 -1.2866 -0.0573 -0.6653
10637TIP3   OH253401   5.217   5.263   0.867  0.2348 -0.0587 -0.5006
10637TIP3    H153402   5.129   5.271   0.831 -0.1164 -0.0084  0.3524
10637TIP3    H253403   5.203   5.240   0.959  1.1142 -0.3906 -0.4427
10638TIP3   OH253404   2.648   1.045   2.758  0.0042 -0.0371  0.2159
10638TIP3    H153405   2.647   1.065   2.664  2.2669 -0.6579  0.0232
10638TIP3    H253406   2.671   0.952   2.762 -0.0511 -0.0029  1.3810
10639TIP3   OH253407   3.957   5.276  14.829 -0.5552  0.2714 -0.1089
10639TIP3    H153408   3.945   5.213  14.901  0.7149 -0.6144 -0.6410
10639TIP3    H253409   4.046   5.259  14.798 -1.3460  0.1532 -2.3603
10640TIP3   OH253410   6.745   3.201   2.743  0.3772 -0.2080  0.2828
10640TIP3    H153411   6.770   3.284   2.704 -1.6502  0.4015  0.2423
10640TIP3    H253412   6.818   3.142   2.723  0.0644  0.4913 -3.0869
10641TIP3   OH253413   1.579   6.642   3.609  0.4556  0.3833 -0.3072
10641TIP3    H153414   1.673   6.662   3.618  0.4229  0.1887  0.5413
10641TIP3    H253415   1.536   6.704   3.669  0.1280 -0.2059  0.0708
10642TIP3   OH253416   5.447   2.230   3.124  0.5674  0.0409  0.6219
10642TIP3    H153417   5.468   2.143   3.089  0.4867 -0.0009  0.6764
10642TIP3    H253418   5.395   2.212   3.203 -2.7955  0.1749 -1.4812
10643TIP3   OH253419   6.238   1.798  14.553  0.2804  0.8356  0.1609
10643TIP3    H153420   6.309   1.862  14.543  1.1876 -0.1801 -0.0440
10643TIP3    H253421   6.273   1.717  14.514 -1.0674  0.3741 -0.1331
10644TIP3   OH253422   6.066   3.302   1.762 -0.7051  0.2088  0.1897
10644TIP3    H153423   6.035   3.377   1.812 -1.8080  0.1220 -0.3409
10644TIP3    H253424   5.986   3.262   1.726  0.0392  0.2317 -1.5731
10645TIP3   OH253425   2.822   2.608  14.397 -0.2942  0.3029 -0.6397
10645TIP3    H153426   2.778   2.525  14.416 -0.5003  0.6754  0.6172
10645TIP3    H253427   2.754   2.674  14.410 -0.1239  0.6672 -1.6033
10646TIP3   OH253428   5.219   1.349  16.954 -0.1031 -0.4986 -0.4079
10646TIP3    H153429   5.307   1.313  16.959 -0.4796 -1.4091 -0.2981
10646TIP3    H253430   5.214   1.411  17.028  0.3311 -0.6840 -0.2250
10647TIP3   OH253431   2.373   1.426   1.146  0.2501  0.3927  0.4316
10647TIP3    H153432   2.315   1.352   1.163 -2.1878  1.2631 -3.3656
10647TIP3    H253433   2.344   1.493   1.208 -0.2855 -0.4651  1.1235
10648TIP3   OH253434   1.548   2.490   0.680  0.3388  0.1550  0.2167
10648TIP3    H153435   1.573   2.503   0.589 -0.8789  0.6492 -0.0459
10648TIP3    H253436   1.599   2.413   0.707  1.0842  0.3054 -0.7200
10649TIP3   OH253437   4.669   1.662  14.934 -0.6501  0.0434 -0.1471
10649TIP3    H153438   4.756   1.661  14.895 -0.8540 -0.5223 -0.5961
10649TIP3    H253439   4.685   1.669  15.028 -0.1071 -0.5901 -0.1911
10650TIP3   OH253440   0.972   0.916  15.077  0.4594 -0.4898  0.1158
10650TIP3    H153441   0.885   0.919  15.037  1.0884 -0.6722 -1.3085
10650TIP3    H253442   0.980   0.827  15.110  0.4170 -0.7262 -0.4969
10651TIP3   OH253443   6.339   4.632  16.908 -0.2671  0.1596  0.7128
10651TIP3    H153444   6.248   4.662  16.899 -0.1177  0.5381  0.4502
10651TIP3    H253445   6.367   4.669  16.992 -0.6489 -0.7320  1.2331
10652TIP3   OH253446   3.811   5.915  13.640 -0.0714 -0.0260 -0.4207
10652TIP3    H153447   3.787   5.967  13.563 -1.6434  0.8879  0.6583
10652TIP3    H253448   3.904   5.936  13.654 -0.4993  2.0084 -0.3996
10653TIP3   OH253449   3.004   4.703   0.302 -0.3363  0.6242  0.2163
10653TIP3    H153450   3.052   4.631   0.344 -0.8814  0.6069  0.8195
10653TIP3    H253451   2.911   4.682   0.318 -0.5990  0.0865 -1.8642
10654TIP3   OH253452   3.176   5.233  17.205 -0.1613  0.3422 -0.2877
10654TIP3    H153453   3.108   5.288  17.167 -0.5735  1.4813  1.9879
10654TIP3    H253454   3.252   5.291  17.216 -0.6985  0.6081  2.4175
10655TIP3   OH253455   4.814   3.890   2.985 -0.7737 -0.6736 -0.7011
10655TIP3    H153456   4.805   3.803   2.946 -1.4139 -1.0510  0.2545
10655TIP3    H253457   4.751   3.889   3.058  0.0690  0.1663  0.0379
10656TIP3   OH253458   3.319   1.483   5.808  0.1156  0.1399 -0.0019
10656TIP3    H153459   3.302   1.409   5.749 -2.8750  0.1232  0.8212
10656TIP3    H253460   3.278   1.458   5.890  0.2847  2.1408  0.7199
10657TIP3   OH253461   6.757   2.732  12.329 -0.0570 -0.1490 -0.5665
10657TIP3    H153462   6.769   2.649  12.375 -0.5375 -0.0368 -0.2390
10657TIP3    H253463   6.813   2.794  12.375  0.5787 -0.3685 -1.0295
10658TIP3   OH253464   3.094   5.369   5.900  0.1134 -0.8212  0.2390
10658TIP3    H153465   3.019   5.315   5.875  0.6530 -1.6960  0.4807
10658TIP3    H253466   3.102   5.357   5.994 -0.3106  0.3999  0.4405
10659TIP3   OH253467   3.481   0.272   2.448  0.1084  0.2870 -0.8742
10659TIP3    H153468   3.437   0.329   2.385  0.6236  1.1149 -0.4930
10659TIP3    H253469   3.481   0.185   2.407  0.3165  0.7952 -1.9472
10660TIP3   OH253470   3.426   2.790   5.632  0.3658  0.5417  0.6836
10660TIP3    H153471   3.331   2.798   5.645  0.2861 -0.2788  0.6122
10660TIP3    H253472   3.442   2.696   5.625  1.1967  0.6731  0.7429
10661TIP3   OH253473   5.715   3.217  16.373 -0.4180 -0.2553  0.1107
10661TIP3    H153474   5.771   3.173  16.437  0.0564  1.1290  0.6870
10661TIP3    H253475   5.776   3.250  16.307 -0.8221 -0.9528 -0.6070
10662TIP3   OH253476   5.884   4.520  11.111  0.8229  0.2805  0.2447
10662TIP3    H153477   5.912   4.470  11.034 -0.3103  0.7020 -0.4551
10662TIP3    H253478   5.965   4.548  11.152  1.4611  1.9767 -2.0692
10663TIP3   OH253479   5.301   3.358   2.572 -0.2219 -0.7775 -0.2452
10663TIP3    H153480   5.378   3.322   2.528 -0.1921 -1.6046  0.4678
10663TIP3    H253481   5.264   3.419   2.509 -0.8553 -2.7904 -1.9000
10664TIP3   OH253482   6.007   1.340   0.947 -0.4715  0.0929  0.7599
10664TIP3    H153483   6.008   1.298   0.861 -0.7396  3.1831 -0.8245
10664TIP3    H253484   5.923   1.314   0.985 -1.2523  0.2607 -0.7775
10665TIP3   OH253485   5.495   5.256  15.704 -0.7506  0.1633  0.1880
10665TIP3    H153486   5.588   5.237  15.718 -0.6165  0.9184  0.3324
10665TIP3    H253487   5.458   5.172  15.677  0.6498  0.5487 -3.2819
10666TIP3   OH253488   2.554   5.687   0.276 -0.0932  0.0782  0.3798
10666TIP3    H153489   2.645   5.713   0.263 -0.1789  0.1497 -0.0677
10666TIP3    H253490   2.560   5.607   0.328  0.1875  0.6716  1.2809
10667TIP3   OH253491   4.173   2.463   2.353 -0.6187  0.1708 -0.3721
10667TIP3    H153492   4.243   2.417   2.308 -0.1509  0.9863 -0.4850
10667TIP3    H253493   4.118   2.393   2.390 -1.7086 -0.5371 -3.2104
10668TIP3   OH253494   6.230   3.792   1.244  0.0399 -0.2193 -0.7467
10668TIP3    H153495   6.235   3.867   1.303  0.6327  1.0467 -2.3406
10668TIP3    H253496   6.249   3.829   1.157  0.3274 -2.2135 -1.5680
10669TIP3   OH253497   4.349   3.315   1.703  0.1380 -0.1398 -0.4909
10669TIP3    H153498   4.307   3.272   1.778  1.5158  0.5381  0.6933
10669TIP3    H253499   4.300   3.398   1.695 -0.3780 -0.4616 -0.6983
10670TIP3   OH253500   5.390   0.283   6.319 -0.6290 -0.5931  0.4382
10670TIP3    H153501   5.334   0.312   6.391  1.1500  0.3078  1.5087
10670TIP3    H253502   5.473   0.328   6.334  0.4306 -1.9931 -1.0257
10671TIP3   OH253503   1.917   0.579   1.621 -0.1045 -0.0142 -0.0540
10671TIP3    H153504   1.893   0.598   1.530 -0.5003  1.8288  0.4227
10671TIP3    H253505   1.864   0.503   1.644  0.3363 -0.7898 -1.4971
10672TIP3   OH253506   3.866   5.165   1.892 -0.2518  0.0842  0.0497
10672TIP3    H153507   3.866   5.260   1.886  0.3437  0.0687 -0.2436
10672TIP3    H253508   3.934   5.137   1.831 -0.6853 -0.5509 -0.1455
10673TIP3   OH253509   1.235   5.837   3.025  0.2646 -0.6620 -0.2220
10673TIP3    H153510   1.325   5.867   3.041 -0.3358 -0.5307  3.3890
10673TIP3    H253511   1.239   5.742   3.037 -0.4055 -0.4440  2.0876
10674TIP3   OH253512   6.361   5.713   4.515  0.3411 -0.0977  0.3218
10674TIP3    H153513   6.451   5.695   4.542  0.3497  0.9711  1.0361
10674TIP3    H253514   6.351   5.808   4.526 -0.8560 -0.2029  0.2034
10675TIP3   OH253515   3.137   0.420   1.080  0.2025  0.0214  0.0743
10675TIP3    H153516   3.089   0.440   1.000  0.3477  1.8592  0.4399
10675TIP3    H253517   3.110   0.487   1.143  2.2202  0.2917  0.6867
10676TIP3   OH253518   3.516   3.281  13.735  0.2385 -0.3772 -0.1474
10676TIP3    H153519   3.518   3.294  13.830 -2.0823 -2.4268  0.2392
10676TIP3    H253520   3.456   3.349  13.703 -0.3436 -0.7975  0.0570
10677TIP3   OH253521   6.783   6.244  15.542 -0.0341 -0.2085 -0.1753
10677TIP3    H153522   6.803   6.189  15.467 -2.6275 -1.1603 -0.2505
10677TIP3    H253523   6.867   6.262  15.583  1.1014 -2.1542 -1.6037
10678TIP3   OH253524   5.973   5.143  11.659 -0.2818  0.2945  0.6987
10678TIP3    H153525   5.929   5.212  11.609  0.9822  0.4023 -0.3112
10678TIP3    H253526   6.066   5.164  11.651  0.1357 -1.7378  0.0530
10679TIP3   OH253527   4.104   4.471   1.559 -0.1325  0.5938 -0.3481
10679TIP3    H153528   4.179   4.417   1.532 -0.2049  0.2887  0.0535
10679TIP3    H253529   4.079   4.436   1.645 -1.1905  0.2220 -0.7942
10680TIP3   OH253530   4.632   3.271   1.737 -0.3679  0.4282  0.0719
10680TIP3    H153531   4.553   3.320   1.717  0.3933  1.4935 -0.3799
10680TIP3    H253532   4.701   3.315   1.687  0.4581 -0.6541  0.2342
10681TIP3   OH253533   5.428   0.422  13.251  0.1751  0.2832 -0.6775
10681TIP3    H153534   5.379   0.481  13.309  1.6860  1.6755 -0.7802
10681TIP3    H253535   5.491   0.379  13.309  1.5777  1.5559 -1.2195
10682TIP3   OH253536   5.589   5.148   1.126 -0.0803  0.9369  0.1963
10682TIP3    H153537   5.571   5.088   1.053  0.0578  2.0772 -0.7875
10682TIP3    H253538   5.505   5.158   1.170 -0.2697  0.5995 -0.0820
10683TIP3   OH253539   0.112   0.910   0.378  0.1070  0.2629 -0.0749
10683TIP3    H153540   0.153   0.832   0.340  0.2368 -0.0277  0.6509
10683TIP3    H253541   0.167   0.932   0.453 -0.0026  0.9819 -0.2003
10684TIP3   OH253542   1.292   5.599   4.955 -0.1517 -0.1114 -0.9332
10684TIP3    H153543   1.333   5.603   4.869 -0.0990  1.1506 -0.8565
10684TIP3    H253544   1.205   5.562   4.938 -0.2880  0.5002 -1.5874
10685TIP3   OH253545   3.722   5.158  12.128 -0.5079 -0.7676 -0.1728
10685TIP3    H153546   3.772   5.142  12.208 -1.1916  0.7215  0.5796
10685TIP3    H253547   3.658   5.087  12.124 -0.6571 -0.6971  0.7736
10686TIP3   OH253548   2.323   3.082  13.621 -0.3089 -0.0415  0.0774
10686TIP3    H153549   2.390   3.138  13.661  2.6877  0.9951 -5.7250
10686TIP3    H253550   2.246   3.138  13.613  0.2941  0.9117  0.8489
10687TIP3   OH253551   1.859   2.219  16.040 -0.3506 -0.0251  0.0526
10687TIP3    H153552   1.869   2.275  16.117 -0.0719  0.6233 -0.4502
10687TIP3    H253553   1.834   2.133  16.075 -2.5760  0.8666  0.7412
10688TIP3   OH253554   3.103   5.230   4.491  0.1789  0.0031  0.0220
10688TIP3    H153555   3.145   5.207   4.574  0.0119 -1.0282 -0.1637
10688TIP3    H253556   3.167   5.284   4.445  1.7317 -2.3184 -0.6529
10689TIP3   OH253557   1.132   2.658   1.212  0.5336  0.0154 -0.0292
10689TIP3    H153558   1.086   2.735   1.178 -0.8013 -0.2486  1.1431
10689TIP3    H253559   1.067   2.587   1.208  1.6322 -0.9682 -0.7436
10690TIP3   OH253560   4.219   2.129   0.072 -0.1196 -0.1908 -0.0767
10690TIP3    H153561   4.144   2.164   0.121 -1.9525 -1.4862 -1.9119
10690TIP3    H253562   4.215   2.035   0.086  1.8680 -0.1809  0.7315
10691TIP3   OH253563   1.229   1.633   0.025  0.5319  0.0695 -0.5568
10691TIP3    H153564   1.200   1.555   0.073  0.7687  1.0671  1.2617
10691TIP3    H253565   1.300   1.602  -0.031  2.7029 -0.5117  2.3545
10692TIP3   OH253566   0.817   6.165  14.273  0.0159 -0.6701  0.0262
10692TIP3    H153567   0.831   6.228  14.202  0.0065 -0.2887  0.3579
10692TIP3    H253568   0.733   6.190  14.311  0.8675  0.2791  1.3321
10693TIP3   OH253569   1.499   3.552  16.057  0.3113  0.4574 -0.3030
10693TIP3    H153570   1.573   3.587  16.006  1.4479 -1.4206  0.0126
10693TIP3    H253571   1.540   3.516  16.136 -0.9458 -0.6234 -0.1315
10694TIP3   OH253572   2.189   0.076   0.730  0.0992  0.0212  0.2462
10694TIP3    H153573   2.131   0.014   0.774 -0.3824 -0.6172 -1.2584
10694TIP3    H253574   2.257   0.020   0.691 -0.9256  0.3189 -2.0291
10695TIP3   OH253575   2.395   1.460  16.971 -0.2469  0.4471 -0.6702
10695TIP3    H153576   2.351   1.540  16.941  0.0143  0.9544  0.2869
10695TIP3    H253577   2.436   1.484  17.054  0.2074 -0.5649 -0.5878
10696TIP3   OH253578   2.815   0.021   6.106  0.0657  0.4756 -0.1940
10696TIP3    H153579   2.771   0.097   6.144 -0.2771  0.2388 -0.1192
10696TIP3    H253580   2.831  -0.038   6.179 -1.0558 -0.2078 -0.4895
10697TIP3   OH253581   6.130   0.584   1.261  0.1644  0.1277  0.3882
10697TIP3    H153582   6.198   0.520   1.282  0.3976  0.2169 -0.0926
10697TIP3    H253583   6.172   0.669   1.276 -0.2767  0.1742  1.4506
10698TIP3   OH253584   6.381   1.047  14.025 -0.5776  0.3536  0.1813
10698TIP3    H153585   6.388   0.977  13.961  1.2251  0.9664 -0.3149
10698TIP3    H253586   6.470   1.061  14.056 -1.3003  0.5851  2.2799
10699TIP3   OH253587   4.149   0.922  15.467  0.5388 -0.5901 -0.5356
10699TIP3    H153588   4.229   0.870  15.477  0.5487 -0.5154 -0.2125
10699TIP3    H253589   4.081   0.868  15.506  1.2904  1.5616  4.1021
10700TIP3   OH253590   1.703   0.011  12.347  0.0806 -0.0324 -0.3555
10700TIP3    H153591   1.663  -0.070  12.378  1.4970 -0.7042 -0.2553
10700TIP3    H253592   1.705   0.068  12.424  0.3529 -0.4050 -0.0853
10701TIP3   OH253593   4.182   5.779  15.384 -0.7142 -0.0253 -0.6184
10701TIP3    H153594   4.165   5.870  15.407 -0.0444 -1.0137  4.5305
10701TIP3    H253595   4.130   5.729  15.447 -1.3661 -3.2475 -3.5824
10702TIP3   OH253596   6.557   6.227  15.676 -0.2355 -0.1272  0.3085
10702TIP3    H153597   6.649   6.239  15.656 -0.1405  0.6934  1.1721
10702TIP3    H253598   6.527   6.159  15.616  1.1884 -1.1558  0.7595
10703TIP3   OH253599   6.368   5.759   2.624 -0.3612  0.1310 -0.0021
10703TIP3    H153600   6.308   5.825   2.660 -1.9044 -0.0554 -2.1527
10703TIP3    H253601   6.362   5.685   2.684 -0.0012  1.2540  1.4355
10704TIP3   OH253602   6.765   0.354   3.529  0.0516 -0.4960  0.2712
10704TIP3    H153603   6.797   0.283   3.584 -1.9825 -1.6684 -0.0076
10704TIP3    H253604   6.819   0.350   3.450  0.6420 -1.0477  0.7018
10705TIP3   OH253605   4.204   2.640   2.668  0.1248  0.2328 -0.1588
10705TIP3    H153606   4.154   2.717   2.640 -0.1938  0.8171  1.9261
10705TIP3    H253607   4.289   2.650   2.625 -0.7626  0.3952 -1.9459
10706TIP3   OH253608   6.474   0.787   2.100 -0.4598  0.3802  0.5223
10706TIP3    H153609   6.476   0.860   2.037  0.9991 -0.4064 -0.3727
10706TIP3    H253610   6.397   0.737   2.075 -0.4077  0.5813 -0.0678
10707TIP3   OH253611   1.689   6.436  12.858 -0.1487  0.6963 -0.6320
10707TIP3    H153612   1.760   6.441  12.922 -0.8421 -2.2178  0.4520
10707TIP3    H253613   1.728   6.395  12.782 -0.6181 -0.8064 -0.0758
10708TIP3   OH253614   0.195   6.716  14.353  0.3746  0.3156  0.7622
10708TIP3    H153615   0.261   6.648  14.367  0.8362  0.7168  0.5510
10708TIP3    H253616   0.112   6.669  14.354  0.7806 -0.4743 -0.8747
10709TIP3   OH253617   0.515   5.423   3.000 -0.2653  0.3943 -0.1519
10709TIP3    H153618   0.438   5.386   2.957  0.1616  0.4296 -0.9621
10709TIP3    H253619   0.518   5.514   2.969  0.1899  0.3468 -0.2470
10710TIP3   OH253620   6.553   1.780  10.930 -0.8493 -0.2151 -0.3679
10710TIP3    H153621   6.606   1.766  10.851  0.6359  0.7293  0.4326
10710TIP3    H253622   6.471   1.816  10.897 -0.0127  0.7522 -1.4491
10711TIP3   OH253623   4.492   4.700   1.045  0.4110 -0.0322  0.6642
10711TIP3    H153624   4.546   4.765   1.000  0.5748 -0.0753  0.7967
10711TIP3    H253625   4.416   4.749   1.076  1.1234  0.3546  1.8325
10712TIP3   OH253626   4.416   3.641   3.552  0.1625  0.0065  0.2649
10712TIP3    H153627   4.422   3.707   3.621  2.6398 -0.7056  0.7902
10712TIP3    H253628   4.351   3.579   3.584 -1.4428  1.6135  0.2288
10713TIP3   OH253629   0.676   1.229   3.984  0.0081  0.2078  0.2140
10713TIP3    H153630   0.665   1.157   4.046 -0.3063  0.9341  1.0077
10713TIP3    H253631   0.647   1.193   3.900 -0.2480 -0.5497  0.6235
10714TIP3   OH253632   1.307   1.368   5.653  0.9101 -0.0057  0.5425
10714TIP3    H153633   1.267   1.306   5.714 -0.3165 -0.8027 -1.0352
10714TIP3    H253634   1.391   1.328   5.630 -0.1367 -1.4527 -0.9415
10715TIP3   OH253635   4.615   6.327   4.610  0.4022  0.1396 -0.2066
10715TIP3    H153636   4.634   6.411   4.567  0.1782 -0.2565 -1.0897
10715TIP3    H253637   4.674   6.265   4.569  1.4643  0.0873  1.3375
10716TIP3   OH253638   5.786   3.760  16.053 -0.2973  0.8454 -0.0189
10716TIP3    H153639   5.827   3.753  16.139  1.3610  0.8332 -0.7893
10716TIP3    H253640   5.784   3.853  16.035 -1.5829  0.9298  0.4426
10717TIP3   OH253641   2.745   5.951   4.939 -0.2207  0.0989 -0.0913
10717TIP3    H153642   2.689   5.878   4.966  0.6677 -0.4172  0.3907
10717TIP3    H253643   2.816   5.910   4.890 -0.1921  0.7318 -0.5811
10718TIP3   OH253644   2.001   0.630   4.777  0.3439  0.1861 -0.2041
10718TIP3    H153645   2.016   0.680   4.697  0.7146  1.6191  0.7293
10718TIP3    H253646   2.010   0.538   4.751  2.3802  0.7049 -1.4175
10719TIP3   OH253647   6.444   6.545   0.204 -0.7294  0.6379 -0.2050
10719TIP3    H153648   6.471   6.515   0.117 -0.2378 -0.2040  0.2330
10719TIP3    H253649   6.450   6.640   0.199 -1.2108  0.6235 -1.2577
10720TIP3   OH253650   6.255   0.971   0.477  0.1291 -0.4660 -0.2543
10720TIP3    H153651   6.317   0.919   0.527 -0.0301  1.6511  2.2382
10720TIP3    H253652   6.171   0.925   0.488  0.2017 -0.3263  0.9842
10721TIP3   OH253653   4.626   4.954   2.578  0.8137 -0.0773 -0.0318
10721TIP3    H153654   4.719   4.973   2.577  0.6172  0.9326 -1.5192
10721TIP3    H253655   4.600   4.957   2.486 -0.5011 -1.3061  0.2698
10722TIP3   OH253656   4.762   4.582   2.437 -0.0341 -0.2501 -0.3338
10722TIP3    H153657   4.818   4.593   2.360  2.1522  0.4454  1.2807
10722TIP3    H253658   4.733   4.491   2.433 -0.6576  0.0031 -2.3979
10723TIP3   OH253659   4.890   3.856  14.558  0.2239  0.2966  0.0857
10723TIP3    H153660   4.911   3.789  14.494  0.7689  0.1492  0.4168
10723TIP3    H253661   4.974   3.900  14.576 -0.0052  0.6274  0.3645
10724TIP3   OH253662   4.212   0.482   5.256  0.4082  0.1718  0.1935
10724TIP3    H153663   4.228   0.388   5.260 -1.2175 -0.1444 -0.1966
10724TIP3    H253664   4.195   0.507   5.347 -0.5367 -0.1814  0.1186
10725TIP3   OH253665   2.475   6.184   5.522  0.2715  0.1782  0.2659
10725TIP3    H153666   2.467   6.100   5.478  0.1556 -0.1823  0.9580
10725TIP3    H253667   2.393   6.230   5.502  0.5036  0.2865 -0.4366
10726TIP3   OH253668   4.623   0.335   5.405  0.4989  0.1767  0.0420
10726TIP3    H153669   4.654   0.368   5.489 -1.2491 -0.1020  0.8216
10726TIP3    H253670   4.558   0.268   5.427 -0.1715  0.2783 -1.5211
10727TIP3   OH253671   0.882   6.076   2.196 -0.2597 -0.1457  0.6754
10727TIP3    H153672   0.974   6.052   2.185  0.3122  1.2840  2.2662
10727TIP3    H253673   0.840   5.994   2.223  0.8838 -0.3712  1.8173
10728TIP3   OH253674   3.682   3.038  11.286  0.1418 -0.6523 -0.5011
10728TIP3    H153675   3.712   2.981  11.215  1.0268 -0.0149 -0.6429
10728TIP3    H253676   3.728   3.120  11.272 -0.2664 -0.2692  0.3755
10729TIP3   OH253677   5.890   2.474  11.217 -0.5334  0.5664  0.4746
10729TIP3    H153678   5.852   2.413  11.154  1.5061 -1.5064  1.1805
10729TIP3    H253679   5.867   2.437  11.303 -0.7587  1.7425  0.9344
10730TIP3   OH253680   6.744   5.316   4.788  0.3197  0.0631 -0.0620
10730TIP3    H153681   6.655   5.299   4.821 -0.7374  1.0412 -2.3063
10730TIP3    H253682   6.764   5.239   4.734  0.1126  0.6248 -0.9582
10731TIP3   OH253683   4.526   4.375   4.519  0.0723  0.1881  0.1203
10731TIP3    H153684   4.567   4.375   4.606 -1.0788  0.4917  0.6717
10731TIP3    H253685   4.525   4.283   4.494  0.2401  0.0782  0.5032
10732TIP3   OH253686   1.237   6.328   0.892  0.3194  0.2273 -0.7683
10732TIP3    H153687   1.238   6.337   0.797 -0.6771  0.9822 -0.7067
10732TIP3    H253688   1.163   6.270   0.910  0.3858  0.2472 -0.4338
10733TIP3   OH253689   0.510   1.925   6.412 -0.2833  0.1672  0.1854
10733TIP3    H153690   0.488   2.018   6.399  0.4534  0.4175  0.7191
10733TIP3    H253691   0.425   1.881   6.413 -0.6243  0.7997 -0.3659
10734TIP3   OH253692   5.989   0.461  12.354 -1.1966  0.3214  0.2575
10734TIP3    H153693   5.896   0.483  12.348 -1.1203  0.1437 -1.8689
10734TIP3    H253694   6.011   0.425  12.268  0.6454 -0.4034  1.0102
10735TIP3   OH253695   2.330   4.893  15.649 -0.5665 -0.0666 -0.1579
10735TIP3    H153696   2.283   4.914  15.569  0.7553 -0.9459 -1.1891
10735TIP3    H253697   2.305   4.803  15.669  0.2082 -0.3406 -0.3938
10736TIP3   OH253698   0.346   3.121   5.382  0.0420 -0.7183 -0.4604
10736TIP3    H153699   0.400   3.063   5.327 -1.7227 -2.0423 -0.8408
10736TIP3    H253700   0.339   3.075   5.465  0.2035 -0.1491 -0.1362
10737TIP3   OH253701   1.152   5.722   1.294 -0.2696 -0.7143  0.2437
10737TIP3    H153702   1.224   5.783   1.276 -0.9516 -0.2686 -0.9935
10737TIP3    H253703   1.143   5.671   1.213 -0.7594 -1.3745  0.7115
10738TIP3   OH253704   5.534   6.731   3.110  0.3227 -0.5860 -0.1159
10738TIP3    H153705   5.616   6.747   3.063  0.3617 -1.5299 -0.3827
10738TIP3    H253706   5.469   6.720   3.041  0.0813 -0.3996  0.0830
10739TIP3   OH253707   5.444   3.785   4.301  0.2175  0.3421  0.3076
10739TIP3    H153708   5.372   3.752   4.247  0.2091 -0.4908  0.8083
10739TIP3    H253709   5.438   3.880   4.296  0.0574  0.2680 -0.9399
10740TIP3   OH253710   1.165   5.942   6.314  0.1827  0.2082  0.3032
10740TIP3    H153711   1.184   5.879   6.383  0.2927  0.9879  0.9944
10740TIP3    H253712   1.070   5.942   6.306  0.3102 -1.7311 -1.2959
10741TIP3   OH253713   6.199   3.529   1.287  0.2882 -0.0705 -0.1014
10741TIP3    H153714   6.212   3.624   1.282  0.1264 -0.0023  0.7149
10741TIP3    H253715   6.251   3.494   1.214 -0.0080  0.6747 -0.6728
10742TIP3   OH253716   4.255   0.335   2.169 -0.2118 -0.2499 -0.3003
10742TIP3    H153717   4.242   0.429   2.181 -2.7751 -0.5325 -0.5333
10742TIP3    H253718   4.222   0.296   2.250 -1.6836 -1.0846 -1.2786
10743TIP3   OH253719   3.268   0.488  15.363 -0.2274 -0.8945 -0.4421
10743TIP3    H153720   3.270   0.395  15.384 -0.7930 -0.5436  1.3002
10743TIP3    H253721   3.353   0.521  15.392 -0.9245 -0.4482  1.1519
10744TIP3   OH253722   0.801   2.029  11.901 -0.4557 -0.4327  0.0093
10744TIP3    H153723   0.827   2.066  11.817 -0.8687  1.3869  0.6585
10744TIP3    H253724   0.706   2.039  11.904 -0.1839  2.1678  1.8697
10745TIP3   OH253725   6.616   2.218   3.865  0.2449  0.2866  0.2454
10745TIP3    H153726   6.620   2.309   3.835 -0.7168 -0.0082 -0.8155
10745TIP3    H253727   6.706   2.187   3.858  0.6224  1.2096  0.8186
10746TIP3   OH253728   2.303   2.902   3.072  0.0847  0.0173  0.4546
10746TIP3    H153729   2.278   2.993   3.059 -0.7095 -0.1035  1.0593
10746TIP3    H253730   2.220   2.854   3.074  0.5391 -0.8318 -0.6918
10747TIP3   OH253731   0.026   1.375   4.516  0.6686 -0.6582 -0.1759
10747TIP3    H153732   0.004   1.468   4.520  1.5811 -0.4901  1.2922
10747TIP3    H253733  -0.057   1.331   4.497  0.0985  0.3966 -0.1477
10748TIP3   OH253734   2.214   0.435  12.558  0.1066  0.2588 -0.2406
10748TIP3    H153735   2.141   0.453  12.500 -0.6909 -2.9212 -0.3353
10748TIP3    H253736   2.257   0.359  12.520  2.5714  1.1412  0.6479
10749TIP3   OH253737   4.126   2.332  11.075 -0.4898  0.1069  0.5904
10749TIP3    H153738   4.214   2.369  11.079 -0.9431  1.1059  1.7222
10749TIP3    H253739   4.140   2.238  11.080  0.5348  0.2330  0.3434
10750TIP3   OH253740   6.580   4.730  12.479  0.5356 -1.2029 -0.5616
10750TIP3    H153741   6.511   4.726  12.545  0.2583  2.0510 -0.5967
10750TIP3    H253742   6.536   4.761  12.400  2.6020  4.7849  0.4290
10751TIP3   OH253743   5.052   6.433  14.163  0.0934  0.0983 -0.2210
10751TIP3    H153744   5.000   6.393  14.093 -0.5542  0.8402 -0.1691
10751TIP3    H253745   4.997   6.504  14.196  1.0222  0.7031  0.0350
10752TIP3   OH253746   6.087   6.456   2.176  0.0312 -0.6375  0.5219
10752TIP3    H153747   6.054   6.367   2.190 -0.8739 -0.2153  1.1338
10752TIP3    H253748   6.023   6.497   2.117 -0.8722  0.3711  2.1764
10753TIP3   OH253749   0.022   3.412   2.574 -0.1724 -0.0973  0.3707
10753TIP3    H153750   0.111   3.443   2.557 -0.8064  0.9953 -1.0188
10753TIP3    H253751  -0.029   3.492   2.590 -1.4297 -0.5135 -1.4091
10754TIP3   OH253752   3.779   2.909   0.218  0.4929 -0.0171  0.1804
10754TIP3    H153753   3.705   2.878   0.167  0.7176  0.8810 -0.7093
10754TIP3    H253754   3.806   2.833   0.269 -1.6534 -0.0810  1.2692
10755TIP3   OH253755   2.066   4.507   2.856 -0.0435 -0.5872  0.2959
10755TIP3    H153756   2.153   4.545   2.867 -0.2104  0.4526 -1.7113
10755TIP3    H253757   2.082   4.420   2.820  0.1524 -0.0154 -1.0285
10756TIP3   OH253758   5.070   2.210  17.020  0.0329  0.0771  0.0824
10756TIP3    H153759   5.022   2.237  16.941 -0.5339  0.1426  0.4497
10756TIP3    H253760   5.070   2.288  17.076  0.3316 -0.0080  0.2026
10757TIP3   OH253761   1.692   0.803  14.043  0.6485 -0.1223 -0.3718
10757TIP3    H153762   1.739   0.885  14.028  0.6178 -0.0416 -0.0445
10757TIP3    H253763   1.601   0.824  14.024  1.1427 -1.1476 -4.2876
10758TIP3   OH253764   0.574   5.071  14.650  0.7204  0.4639  0.0069
10758TIP3    H153765   0.618   5.144  14.693  0.1455  0.3576  0.8031
10758TIP3    H253766   0.586   4.997  14.710  0.7608  0.0628 -0.4924
10759TIP3   OH253767   3.312   4.651  14.987 -0.0316  0.1886  0.4845
10759TIP3    H153768   3.245   4.715  14.962  0.3518  0.7618  0.8904
10759TIP3    H253769   3.280   4.614  15.069 -0.0611  0.1471  0.4539
10760TIP3   OH253770   0.401   5.254  17.156  0.7653  0.2248 -0.0054
10760TIP3    H153771   0.414   5.302  17.238 -0.5431  2.1301 -0.8775
10760TIP3    H253772   0.479   5.275  17.104 -0.7615  3.1395 -1.1855
10761TIP3   OH253773   4.079   0.213   1.920 -0.1566  0.3527 -0.2424
10761TIP3    H153774   4.099   0.291   1.868  0.1211  1.0402  0.9048
10761TIP3    H253775   4.123   0.227   2.003  0.2710 -1.2381 -0.1859
10762TIP3   OH253776   4.864   4.988   4.315 -0.2528 -0.2149 -0.0931
10762TIP3    H153777   4.942   4.982   4.370 -2.7645 -1.7735  3.4467
10762TIP3    H253778   4.868   4.910   4.259 -0.0340 -1.0594  1.0915
10763TIP3   OH253779   0.916   3.364  13.404 -0.0781 -0.2673 -0.8962
10763TIP3    H153780   0.913   3.357  13.309 -1.8641 -2.1337 -0.7293
10763TIP3    H253781   0.953   3.280  13.433 -1.1607 -0.3891  0.1341
10764TIP3   OH253782   0.199   6.706   0.847  0.4636  0.7322 -0.4881
10764TIP3    H153783   0.182   6.788   0.894 -0.7005  0.4415 -0.3879
10764TIP3    H253784   0.125   6.649   0.870  0.8087 -0.0421 -1.2532
10765TIP3   OH253785   5.872   5.716  16.364  0.5060  1.3053  0.4292
10765TIP3    H153786   5.912   5.630  16.379 -1.5548 -0.2696 -2.5999
10765TIP3    H253787   5.947   5.775  16.350  1.9162 -0.2140  1.4052
10766TIP3   OH253788   0.985   4.090  16.534  0.0735  0.1585  0.1237
10766TIP3    H153789   1.013   4.035  16.461 -3.4606 -1.4698 -0.0717
10766TIP3    H253790   0.909   4.137  16.501 -0.7886  0.3746  2.3317
10767TIP3   OH253791   5.356   3.124  12.046 -0.4546 -0.5224  0.3704
10767TIP3    H153792   5.334   3.110  12.138 -0.4716  1.6946  0.7359
10767TIP3    H253793   5.273   3.144  12.004 -0.1012  1.0633  0.4046
10768TIP3   OH253794   1.205   3.667   1.415 -0.2162 -0.2389  0.3737
10768TIP3    H153795   1.174   3.627   1.497 -0.6225 -2.1600 -0.6876
10768TIP3    H253796   1.189   3.600   1.349  2.3156  0.3620 -0.8966
10769TIP3   OH253797   6.744   0.122   0.825  0.5895  0.3045  0.3230
10769TIP3    H153798   6.673   0.158   0.772  0.5941  1.2133  0.9264
10769TIP3    H253799   6.817   0.113   0.765  0.0875 -0.2629 -0.2129
10770TIP3   OH253800   3.649   1.882   0.595  0.7062 -0.1050  0.4031
10770TIP3    H153801   3.694   1.955   0.554 -1.3235  1.2609  0.4937
10770TIP3    H253802   3.636   1.910   0.686  0.1494 -0.6699  0.5070
10771TIP3   OH253803   0.945   3.356   2.849 -0.6935 -0.0086 -0.9154
10771TIP3    H153804   1.003   3.407   2.905  0.7194 -0.0098 -2.3141
10771TIP3    H253805   0.884   3.314   2.909  0.1059  0.8187  0.5162
10772TIP3   OH253806   3.263   0.875  15.097 -0.3570  0.1848 -0.5805
10772TIP3    H153807   3.267   0.962  15.058 -0.5780  0.0332 -0.9404
10772TIP3    H253808   3.186   0.879  15.155 -0.7312  0.0331 -1.0685
10773TIP3   OH253809   5.563   0.323  12.334 -0.0047 -0.6642  0.5764
10773TIP3    H153810   5.640   0.266  12.335 -0.3667 -1.1686  0.0839
10773TIP3    H253811   5.488   0.263  12.331 -0.3953 -0.1613  0.1032
10774TIP3   OH253812   2.885   0.836  16.330 -0.2452 -0.1110  0.7448
10774TIP3    H153813   2.961   0.879  16.369  0.0080 -1.2025  1.4737
10774TIP3    H253814   2.922   0.769  16.273 -0.6650 -0.3374  0.7376
10775TIP3   OH253815   4.156   6.200  16.318 -0.4179 -0.1712 -0.3742
10775TIP3    H153816   4.244   6.238  16.316 -0.3319 -0.3948 -0.8564
10775TIP3    H253817   4.103   6.259  16.264 -0.8719  0.7247  1.0203
10776TIP3   OH253818   3.070   4.920  16.816 -0.2252 -0.1458  0.1586
10776TIP3    H153819   3.101   4.977  16.746 -0.5375  0.9213  0.8787
10776TIP3    H253820   3.137   4.926  16.884 -0.3620 -0.4601  0.3208
10777TIP3   OH253821   5.050   4.893   4.884 -0.7124  0.1965 -0.6341
10777TIP3    H153822   5.136   4.852   4.874 -0.7587 -0.2856  0.8265
10777TIP3    H253823   5.005   4.874   4.802  1.0278  1.5644 -1.9442
10778TIP3   OH253824   5.421   1.139   2.297 -0.7507 -0.8152  0.0064
10778TIP3    H153825   5.487   1.163   2.232  0.9184 -0.4005  1.8096
10778TIP3    H253826   5.377   1.222   2.317  0.8835 -0.3075  1.6995
10779TIP3   OH253827   4.419   1.001  11.561  0.1905  0.2671  0.0282
10779TIP3    H153828   4.419   1.032  11.471 -1.2339 -0.7168 -0.3288
10779TIP3    H253829   4.492   0.939  11.565 -0.2822 -0.3462 -0.6910
10780TIP3   OH253830   2.314   3.979  13.260  0.1938  0.5245  0.0869
10780TIP3    H153831   2.405   4.003  13.282  1.0997 -0.4782 -2.4116
10780TIP3    H253832   2.318   3.885  13.245 -1.1141  0.6262 -0.8845
10781TIP3   OH253833   2.980   3.369   3.513  0.1827 -0.3823 -0.3332
10781TIP3    H153834   3.014   3.443   3.463 -0.6942 -2.2391 -3.8088
10781TIP3    H253835   2.899   3.400   3.552  0.9875  1.1506  0.1487
10782TIP3   OH253836   5.754   3.434   4.231 -0.2941 -0.0783 -0.0539
10782TIP3    H153837   5.732   3.527   4.231 -0.0736 -0.0252  0.4675
10782TIP3    H253838   5.749   3.408   4.138  1.9771  1.0181 -0.5097
10783TIP3   OH253839   1.173   6.006   3.254 -0.7810 -0.1195 -0.0511
10783TIP3    H153840   1.155   5.945   3.325 -1.9866 -0.3840 -0.5693
10783TIP3    H253841   1.199   5.949   3.181 -0.1740  0.1061 -0.0100
10784TIP3   OH253842   6.547   5.534   6.133 -0.4405 -0.0346 -0.7954
10784TIP3    H153843   6.582   5.504   6.049 -0.1518 -0.2739 -0.5906
10784TIP3    H253844   6.540   5.455   6.185  0.2004  0.2310 -0.2965
10785TIP3   OH253845   1.793   5.450  13.565  0.3280  0.1531  0.2910
10785TIP3    H153846   1.855   5.467  13.636 -0.5946 -0.1663  1.1886
10785TIP3    H253847   1.709   5.442  13.609 -0.1807 -0.5202 -0.7993
10786TIP3   OH253848   4.378   3.848   3.356  0.0596  0.1975  0.3237
10786TIP3    H153849   4.364   3.835   3.449 -0.2530 -1.5715  0.0529
10786TIP3    H253850   4.379   3.943   3.344 -0.2390  0.4247  2.0642
10787TIP3   OH253851   1.384   2.369  15.788  0.2370  0.2957 -0.2027
10787TIP3    H153852   1.332   2.421  15.850  3.1422  1.2426  1.5600
10787TIP3    H253853   1.472   2.368  15.826  0.7892 -4.1211 -1.3034
10788TIP3   OH253854   0.588   3.113  15.084 -0.4943  0.0018 -0.0579
10788TIP3    H153855   0.627   3.120  14.996  0.5772 -0.2123  0.3916
10788TIP3    H253856   0.658   3.140  15.143 -1.2946  0.3775  0.7235
10789TIP3   OH253857   5.457   2.700  16.420  0.3914  0.3513 -0.3820
10789TIP3    H153858   5.377   2.650  16.407  0.0844  0.9186 -0.7018
10789TIP3    H253859   5.527   2.635  16.419 -0.2687 -0.4590  2.3577
10790TIP3   OH253860   4.192   5.095  16.045 -0.6441 -0.5607  0.7175
10790TIP3    H153861   4.252   5.039  15.995 -0.9011 -0.8390  0.7224
10790TIP3    H253862   4.110   5.091  15.997 -0.6973 -0.2825  0.7836
10791TIP3   OH253863   4.595   3.782   0.122  0.1380  0.5815  0.0105
10791TIP3    H153864   4.540   3.812   0.194  2.0442  1.5995  1.0930
10791TIP3    H253865   4.684   3.791   0.155  0.9433 -2.0736 -1.2851
10792TIP3   OH253866   0.637   1.556   4.795 -0.6677  0.6996 -0.0185
10792TIP3    H153867   0.659   1.636   4.843 -3.0114  1.3014  0.0706
10792TIP3    H253868   0.579   1.584   4.725  0.3194 -0.6173 -1.4100
10793TIP3   OH253869   5.456   5.919  11.818  0.3893 -0.8206  0.0114
10793TIP3    H153870   5.464   5.844  11.760  1.3227 -0.9157  0.2555
10793TIP3    H253871   5.477   5.885  11.905  0.8333 -0.2718  0.1222
10794TIP3   OH253872   4.227   6.786  16.459  0.5547 -0.2598 -0.8760
10794TIP3    H153873   4.259   6.874  16.478 -0.0342 -0.3089  0.3795
10794TIP3    H253874   4.254   6.733  16.534 -2.8600 -0.2063  0.4890
10795TIP3   OH253875   5.106   5.921   2.113  0.2506 -0.2909  0.3265
10795TIP3    H153876   5.158   6.001   2.120  0.8318 -0.7070  0.8147
10795TIP3    H253877   5.034   5.933   2.175 -1.2299  1.0263 -1.6124
10796TIP3   OH253878   2.592   3.124  12.442 -0.0349 -0.4345 -0.5915
10796TIP3    H153879   2.584   3.042  12.393 -0.1507 -1.6835  1.4435
10796TIP3    H253880   2.512   3.128  12.495  1.5756 -0.8391  1.9685
10797TIP3   OH253881   5.247   6.737  15.686  0.1896 -0.2682  0.2914
10797TIP3    H153882   5.174   6.775  15.735  0.7285  0.6297  0.4080
10797TIP3    H253883   5.206   6.682  15.620 -0.5790 -0.1431  0.6625
10798TIP3   OH253884   6.317   2.577  13.169  0.7028  0.2242  0.2884
10798TIP3    H153885   6.366   2.618  13.240  0.2865  0.3806  0.4865
10798TIP3    H253886   6.353   2.615  13.089 -1.0062  2.4149  0.5353
10799TIP3   OH253887   3.851   4.087   2.850 -0.0244  0.0722  0.0169
10799TIP3    H153888   3.892   4.087   2.764 -2.1878  0.5293 -1.0449
10799TIP3    H253889   3.843   3.995   2.873  0.4922 -0.0527 -0.2953
10800TIP3   OH253890   0.755   6.174   3.994 -0.4249 -0.3086 -0.1007
10800TIP3    H153891   0.835   6.193   4.043 -1.0215 -1.5710  1.4108
10800TIP3    H253892   0.716   6.260   3.978  1.3175  0.3354 -1.0377
10801TIP3   OH253893   3.076   2.699   5.144 -0.0768 -0.1803  0.2034
10801TIP3    H153894   3.148   2.733   5.090 -0.6671 -0.5019 -0.7949
10801TIP3    H253895   2.998   2.742   5.109 -0.4080  0.0007  1.1448
10802TIP3   OH253896   4.846   3.860   1.778  0.2516  0.4123 -0.1743
10802TIP3    H153897   4.911   3.842   1.846  1.4809  1.3638 -1.0509
10802TIP3    H253898   4.821   3.951   1.793 -1.0699 -0.0290  0.3061
10803TIP3   OH253899   2.776   2.654  15.467  0.3854  0.3975 -0.4853
10803TIP3    H153900   2.752   2.628  15.378  2.3244  0.7617 -1.1397
10803TIP3    H253901   2.850   2.597  15.490  0.3213  0.7510  0.6464
10804TIP3   OH253902   4.323   2.815  16.444  0.3308  0.1191 -0.3509
10804TIP3    H153903   4.285   2.740  16.490  1.2437  0.9867  1.8963
10804TIP3    H253904   4.369   2.864  16.512 -0.8610  3.1224 -1.6032
10805TIP3   OH253905   6.269   2.044  12.284  0.6452 -0.2719 -0.6452
10805TIP3    H153906   6.264   1.972  12.347  2.8313  2.0487  2.2906
10805TIP3    H253907   6.356   2.033  12.244 -0.0329 -0.7010 -2.0195
10806TIP3   OH253908   3.866   0.266   3.742 -0.5502  0.3587 -0.2774
10806TIP3    H153909   3.945   0.314   3.764 -0.3478  0.8469 -1.9833
10806TIP3    H253910   3.885   0.226   3.657 -2.4976  1.3356 -1.2080
10807TIP3   OH253911   4.777   3.154   1.378 -0.3421  0.5430  0.4929
10807TIP3    H153912   4.809   3.227   1.430 -0.6139  0.4819  0.7485
10807TIP3    H253913   4.833   3.081   1.402  0.4465  0.8591 -0.3581
10808TIP3   OH253914   4.385   5.096   2.674  0.1485  0.4056 -0.4935
10808TIP3    H153915   4.355   5.064   2.589 -1.8169 -0.6003  0.5288
10808TIP3    H253916   4.479   5.078   2.674  0.0047 -0.5147 -2.0554
10809TIP3   OH253917   0.101   2.386   5.576  0.0943  0.1509  0.2908
10809TIP3    H153918   0.102   2.381   5.672  1.9946 -0.5087  0.2636
10809TIP3    H253919   0.013   2.358   5.552 -0.3386  0.0989  1.8310
10810TIP3   OH253920   3.467   2.536  12.516 -0.1376 -0.2393  0.0356
10810TIP3    H153921   3.481   2.554  12.609  1.8489  2.0817 -0.6531
10810TIP3    H253922   3.381   2.571  12.497  0.0172  0.5234  0.7096
10811TIP3   OH253923   3.395   4.088   0.677  0.2766  0.0357  0.4064
10811TIP3    H153924   3.349   4.122   0.601 -0.9293 -1.7545  0.3052
10811TIP3    H253925   3.477   4.053   0.642  1.2059  2.1396  0.4163
10812TIP3   OH253926   6.544   4.312  15.789  0.7142  0.1920  0.2104
10812TIP3    H153927   6.523   4.219  15.803 -2.1686  0.7909  0.1006
10812TIP3    H253928   6.600   4.312  15.712 -0.7308 -1.3435 -0.8844
10813TIP3   OH253929   3.709   4.750   4.816 -0.2175  0.2406 -0.2057
10813TIP3    H153930   3.768   4.675   4.824 -0.5669 -0.2952 -2.4005
10813TIP3    H253931   3.638   4.731   4.878  0.0491 -0.8989 -0.2317
10814TIP3   OH253932   2.595   2.654   4.166 -0.4635 -0.1410 -0.5768
10814TIP3    H153933   2.675   2.661   4.218 -0.2889 -0.6131 -0.7806
10814TIP3    H253934   2.594   2.735   4.114 -1.0924  0.7468  0.7819
10815TIP3   OH253935   5.950   2.232   3.961  0.5298  0.2437  0.4002
10815TIP3    H153936   6.030   2.212   3.911  1.1092 -0.8731  1.7246
10815TIP3    H253937   5.889   2.266   3.896  1.9691  0.7941 -0.7045
10816TIP3   OH253938   3.690   2.923  12.167 -0.4717 -0.6520  0.1745
10816TIP3    H153939   3.599   2.925  12.197  0.1491 -2.7774  2.3469
10816TIP3    H253940   3.742   2.945  12.244  0.9230 -0.4370 -0.7916
10817TIP3   OH253941   5.460   0.026   1.717 -0.4284  0.1070  0.3156
10817TIP3    H153942   5.461   0.097   1.782 -0.1292  1.9051 -1.5920
10817TIP3    H253943   5.548   0.028   1.678 -1.1746  0.2664 -1.3995
10818TIP3   OH253944   5.479   0.868   5.041  0.4702  0.1279 -0.1173
10818TIP3    H153945   5.435   0.909   4.967  0.1165  0.0286  0.0379
10818TIP3    H253946   5.567   0.906   5.040 -0.5344  2.6189  1.3995
10819TIP3   OH253947   3.290   1.462   2.846  0.1568 -0.0144 -0.0322
10819TIP3    H153948   3.217   1.488   2.902  0.2229  0.5802 -0.2250
10819TIP3    H253949   3.285   1.366   2.844 -0.7717  0.0323 -0.2486
10820TIP3   OH253950   4.253   3.444   3.107 -0.3533  0.3295  0.2510
10820TIP3    H153951   4.242   3.454   3.201 -0.3937  1.1954  0.1587
10820TIP3    H253952   4.348   3.443   3.094 -0.3224  2.3494  0.1015
10821TIP3   OH253953   4.612   1.008  14.820 -0.3500  0.0682  0.1486
10821TIP3    H153954   4.687   0.949  14.816 -0.4915 -0.1071  0.0549
10821TIP3    H253955   4.557   0.973  14.890 -0.2927  0.2592  0.2888
10822TIP3   OH253956   1.634   4.095   1.054 -0.1596  0.0941  0.1014
10822TIP3    H153957   1.684   4.128   1.129 -0.8536 -1.6520  1.3506
10822TIP3    H253958   1.701   4.062   0.994  0.2869 -1.3065  1.3203
10823TIP3   OH253959   3.543   1.295   5.843 -0.0960  0.2108  0.3942
10823TIP3    H153960   3.501   1.369   5.886  1.3214  1.4185 -0.2639
10823TIP3    H253961   3.635   1.320   5.837  0.2911 -1.3539 -0.3670
10824TIP3   OH253962   4.753   4.904  15.194 -0.1993  0.0111  0.6326
10824TIP3    H153963   4.841   4.887  15.161 -1.2362 -1.4163 -1.5345
10824TIP3    H253964   4.716   4.817  15.208 -1.4771  0.5999  0.9302
10825TIP3   OH253965   3.481   5.472   3.974 -0.0864 -0.7164  0.1924
10825TIP3    H153966   3.566   5.435   3.999 -0.2193 -2.2019 -1.4842
10825TIP3    H253967   3.417   5.407   4.003 -0.5796 -0.0929  0.5026
10826TIP3   OH253968   6.256   1.670  12.691  0.3575  0.2378  0.0799
10826TIP3    H153969   6.215   1.584  12.683  0.2122  0.2648  0.4941
10826TIP3    H253970   6.199   1.729  12.642 -0.9324  0.5381  1.8664
10827TIP3   OH253971   2.363   5.589   4.244  0.4035  0.6505  0.4579
10827TIP3    H153972   2.442   5.635   4.271  0.4217 -0.0271  1.5914
10827TIP3    H253973   2.340   5.534   4.319 -0.7634  0.3399 -0.1098
10828TIP3   OH253974   3.207   1.445   6.079  0.2176  0.0582 -0.3752
10828TIP3    H153975   3.134   1.505   6.091  1.2983  1.3353 -0.0847
10828TIP3    H253976   3.208   1.393   6.160  0.3884  0.8611  0.1392
10829TIP3   OH253977   3.750   0.756  15.864  0.6325  0.1085 -0.0012
10829TIP3    H153978   3.665   0.717  15.883 -0.2708  1.2415 -1.6320
10829TIP3    H253979   3.755   0.834  15.919  0.2972  0.4373 -0.4313
10830TIP3   OH253980   4.735   4.645   3.591 -0.6485  0.2040  0.3185
10830TIP3    H153981   4.683   4.724   3.576  0.0128  0.7142  0.6968
10830TIP3    H253982   4.741   4.638   3.686  1.8683  1.4327  0.3044
10831TIP3   OH253983   1.894   0.435  11.416  0.0784  0.0091 -0.5921
10831TIP3    H153984   1.839   0.369  11.373 -0.4150  0.6164 -0.8956
10831TIP3    H253985   1.889   0.412  11.509 -1.1960  0.4205 -0.5510
10832TIP3   OH253986   4.046   6.611  15.459  0.0714 -0.0686 -0.0844
10832TIP3    H153987   3.971   6.670  15.465  0.1481  0.1462 -1.1094
10832TIP3    H253988   4.095   6.625  15.540  0.3577  1.6470 -0.5364
10833TIP3   OH253989   1.559   1.560   0.858 -0.1941 -0.2718  0.0190
10833TIP3    H153990   1.537   1.630   0.796 -2.9053  0.2435  1.5005
10833TIP3    H253991   1.489   1.496   0.848  0.3453 -1.0759  1.2384
10834TIP3   OH253992   1.830   3.296  12.135  0.0020  0.3303 -0.0734
10834TIP3    H153993   1.748   3.344  12.141 -0.4182 -0.5494  1.6108
10834TIP3    H253994   1.871   3.307  12.221  0.6574 -0.9354 -0.2027
10835TIP3   OH253995   2.876   3.365  16.232  0.4666 -0.4638  0.3504
10835TIP3    H153996   2.823   3.303  16.283  0.0529 -1.1511 -0.8895
10835TIP3    H253997   2.856   3.344  16.140  1.4608  0.5219 -0.1078
10836TIP3   OH253998   6.258   1.881   6.796  0.5224 -0.4070 -0.1877
10836TIP3    H153999   6.182   1.832   6.829 -0.4220  1.4143  0.4276
10836TIP3    H254000   6.243   1.889   6.702  0.0790 -0.2679 -0.1058
10837TIP3   OH254001   2.596   2.093  14.429 -0.2686 -0.0811  0.2274
10837TIP3    H154002   2.591   2.089  14.524  0.8445 -2.0214  0.2274
10837TIP3    H254003   2.506   2.080  14.400 -0.5511  0.0893  1.0108
10838TIP3   OH254004   0.257   6.390  11.856  0.2072 -0.7168 -0.3377
10838TIP3    H154005   0.183   6.381  11.796 -0.3155 -1.3157  0.3923
10838TIP3    H254006   0.232   6.461  11.915  0.6174 -0.2914 -0.6714
10839TIP3   OH254007   1.196   2.664   6.271 -0.1453  0.2431 -0.2693
10839TIP3    H154008   1.157   2.685   6.355 -0.9778  0.2398 -0.6497
10839TIP3    H254009   1.221   2.572   6.278 -1.1714 -0.0545 -0.3822
10840TIP3   OH254010   0.315   4.283  10.872  0.1880 -0.2209  0.2208
10840TIP3    H154011   0.354   4.359  10.914 -0.7884  0.7423 -0.6009
10840TIP3    H254012   0.366   4.209  10.904  1.7383  0.8716  0.3103
10841TIP3   OH254013   1.766   3.691   2.742  0.5054  0.5474  0.0867
10841TIP3    H154014   1.734   3.616   2.792  2.5624 -0.8124 -0.5729
10841TIP3    H254015   1.690   3.721   2.693 -0.2093 -1.5493 -0.1575
10842TIP3   OH254016   2.990   0.749   4.056  0.1784  0.4071  0.1470
10842TIP3    H154017   3.059   0.686   4.075 -0.0299  0.4184  0.9360
10842TIP3    H254018   3.014   0.827   4.105  0.0701  0.7169 -0.2832
10843TIP3   OH254019   3.453   6.807   1.381  0.0035  0.1461 -0.1139
10843TIP3    H154020   3.461   6.776   1.291 -0.7467 -2.2256  0.6137
10843TIP3    H254021   3.537   6.849   1.399  1.0652 -1.4907 -1.1222
10844TIP3   OH254022   2.292   4.131   2.486  0.5995  0.4046 -0.2568
10844TIP3    H154023   2.366   4.115   2.427  0.0264 -0.5297 -0.7180
10844TIP3    H254024   2.218   4.148   2.428  0.4364  1.2964  0.2079
10845TIP3   OH254025   1.518   4.637   2.259 -0.0831 -0.6684  0.5548
10845TIP3    H154026   1.543   4.729   2.252  0.6110 -0.8065  1.0951
10845TIP3    H254027   1.568   4.604   2.334 -0.7898 -1.3345  0.7443
10846TIP3   OH254028   3.099   0.898  12.957 -0.1098 -0.0793  0.2756
10846TIP3    H154029   3.023   0.840  12.959  0.1161 -0.3288  2.4729
10846TIP3    H254030   3.082   0.957  12.884 -1.2916 -1.6302 -0.7236
10847TIP3   OH254031   2.496   0.626  11.842  0.3024  0.3063 -0.4027
10847TIP3    H154032   2.529   0.662  11.924 -0.8098  0.1447  0.1253
10847TIP3    H254033   2.466   0.538  11.865 -2.6202  1.2686 -0.3459
10848TIP3   OH254034   3.787   3.306   0.166 -0.0601 -0.0605  0.2844
10848TIP3    H154035   3.722   3.283   0.232  0.8961  0.0714  1.2897
10848TIP3    H254036   3.860   3.246   0.183 -0.1667 -0.6418 -1.2354
10849TIP3   OH254037   1.940   3.513  16.678 -0.1425 -0.6627 -0.6576
10849TIP3    H154038   1.856   3.498  16.635 -0.8990  0.3207  0.4428
10849TIP3    H254039   1.986   3.429  16.670 -0.8893 -0.9616 -1.9899
10850TIP3   OH254040   0.293   5.065   5.017  0.2664  0.5024  0.4066
10850TIP3    H154041   0.357   5.115   5.067  0.9304  1.1715 -1.0704
10850TIP3    H254042   0.346   5.003   4.966 -0.4692 -0.9074  1.3311
10851TIP3   OH254043   0.470   3.632   4.889 -0.0751 -0.0976 -0.7617
10851TIP3    H154044   0.444   3.716   4.926  0.2127  0.0817 -0.9640
10851TIP3    H254045   0.497   3.653   4.799  2.1784 -0.0519 -0.0902
10852TIP3   OH254046   1.304   5.027   2.355  0.1176 -0.1113 -0.1577
10852TIP3    H154047   1.283   4.940   2.323  1.6679 -1.0611  1.3607
10852TIP3    H254048   1.224   5.078   2.341  0.0468 -1.0301 -3.5269
10853TIP3   OH254049   5.730   4.597   3.536 -0.1701  0.1655  0.5027
10853TIP3    H154050   5.679   4.667   3.496  1.7658 -0.0914 -2.5695
10853TIP3    H254051   5.705   4.518   3.487  1.8251 -0.2747  0.1668
10854TIP3   OH254052   5.292   0.944  12.424 -0.1536  0.1686  0.4768
10854TIP3    H154053   5.267   0.991  12.344  0.8525  1.4198  0.8824
10854TIP3    H254054   5.214   0.949  12.480 -0.1400  1.1784  0.4217
10855TIP3   OH254055   0.014   2.685   1.891  0.2688  0.1201 -0.3203
10855TIP3    H154056  -0.072   2.681   1.850 -0.7916  2.0447  1.6157
10855TIP3    H254057  -0.003   2.673   1.985  2.2704 -0.9080 -0.0563
10856TIP3   OH254058   6.250   4.726   5.662 -0.1827  0.5607 -0.4815
10856TIP3    H154059   6.248   4.813   5.624 -1.7320 -0.6412 -3.3413
10856TIP3    H254060   6.168   4.686   5.634 -0.6002 -1.0075  2.8094
10857TIP3   OH254061   6.025   5.130   0.273 -0.1651 -0.0366 -0.2756
10857TIP3    H154062   6.051   5.075   0.348 -1.1044  0.0748  0.1330
10857TIP3    H254063   6.103   5.181   0.254  0.2739 -0.4949  0.2510
10858TIP3   OH254064   1.023   0.131  10.977  0.6755  0.8444 -0.2149
10858TIP3    H154065   1.021   0.224  10.995 -1.6053  0.6124  0.9600
10858TIP3    H254066   1.088   0.095  11.037 -1.0533  1.2062  1.9317
10859TIP3   OH254067   1.000   2.076  12.718  0.4272  0.0545  0.3123
10859TIP3    H154068   1.015   2.058  12.625 -1.0200 -2.7594  0.5796
10859TIP3    H254069   1.004   2.172  12.724  0.9666  0.2741 -2.5621
10860TIP3   OH254070   5.563   4.257   1.337  0.2101  0.1383  0.6909
10860TIP3    H154071   5.543   4.242   1.245  0.4644  1.5148  0.4043
10860TIP3    H254072   5.477   4.268   1.378  0.1503  0.9553  0.3584
10861TIP3   OH254073   2.322   2.038  14.435 -0.1258  0.1163  0.1736
10861TIP3    H154074   2.272   1.963  14.403  0.1671 -0.2104  0.4640
10861TIP3    H254075   2.278   2.115  14.399 -0.6586 -0.1819  0.1920
10862TIP3   OH254076   5.666   5.099  12.384  0.5448  0.2853  0.1695
10862TIP3    H154077   5.661   5.016  12.431  1.1283  0.4926  0.6064
10862TIP3    H254078   5.736   5.086  12.320 -0.3073 -0.0246 -0.6928
10863TIP3   OH254079   2.459   0.482   1.347 -0.1793  0.0949 -0.8495
10863TIP3    H154080   2.497   0.464   1.262  1.7088  0.0795 -0.0189
10863TIP3    H254081   2.452   0.396   1.389 -2.2834 -0.0578 -1.4429
10864TIP3   OH254082   5.829   0.008  13.323  0.3013  0.2855  0.3682
10864TIP3    H154083   5.919   0.035  13.337  0.6339  0.5377 -2.1570
10864TIP3    H254084   5.809  -0.047  13.399  3.4254 -1.8537 -0.2387
10865TIP3   OH254085   4.958   3.788  12.638  0.0389  0.1681 -0.0485
10865TIP3    H154086   4.900   3.736  12.582  0.5562 -3.1816  2.3827
10865TIP3    H254087   5.013   3.837  12.577 -2.5986  0.3310 -2.4188
10866TIP3   OH254088   4.799   3.674   2.132 -0.0111  0.1031  0.0173
10866TIP3    H154089   4.732   3.681   2.064  1.6528 -1.1215 -1.8485
10866TIP3    H254090   4.796   3.583   2.160  0.4419  0.1883  0.3614
10867TIP3   OH254091   2.765   2.256   4.225 -0.2116  0.6019  0.2228
10867TIP3    H154092   2.789   2.188   4.288 -0.4429  0.7286  0.4513
10867TIP3    H254093   2.848   2.288   4.191 -0.0963  0.2997  0.2165
10868TIP3   OH254094   5.857   5.598   2.094  1.0120  0.3483 -0.1277
10868TIP3    H154095   5.893   5.542   2.024  0.9892  1.5135 -1.0894
10868TIP3    H254096   5.839   5.681   2.050 -0.1451  0.6985  1.0114
10869TIP3   OH254097   4.687   0.214   2.785 -0.5537  0.1243  0.2725
10869TIP3    H154098   4.753   0.145   2.790 -1.6558 -0.7692  3.8009
10869TIP3    H254099   4.732   0.292   2.819 -0.8434 -0.1048  1.1830
10870TIP3   OH254100   3.116   3.157   1.343 -0.0648 -0.0078 -0.4529
10870TIP3    H154101   3.089   3.174   1.433  0.3764 -0.8149 -0.1683
10870TIP3    H254102   3.134   3.064   1.340 -0.0680  0.0123 -1.3794
10871TIP3   OH254103   6.649   1.838   2.388  0.3333  0.0636 -0.6955
10871TIP3    H154104   6.685   1.812   2.473  0.1108  0.9211 -0.3342
10871TIP3    H254105   6.560   1.803   2.389 -0.5603  2.2701  0.5031
10872TIP3   OH254106   4.297   0.769   4.994  0.5483 -0.6273  0.2591
10872TIP3    H154107   4.281   0.716   4.916 -0.6869  2.3272 -1.5669
10872TIP3    H254108   4.216   0.763   5.044 -0.0939  0.6124 -0.6184
10873TIP3   OH254109   4.518   0.243  10.948 -0.6354  0.2857 -0.0869
10873TIP3    H154110   4.585   0.311  10.952  0.9531 -1.1363 -1.3747
10873TIP3    H254111   4.510   0.212  11.038  1.1217 -0.1052 -0.0336
10874TIP3   OH254112   2.245   3.166  17.206  0.2851  0.1999 -0.1821
10874TIP3    H154113   2.309   3.157  17.277 -0.2684 -1.7523  0.1089
10874TIP3    H254114   2.292   3.215  17.138  1.6435 -0.0355  0.5529
10875TIP3   OH254115   4.998   6.022  10.990  0.2065 -0.1247  0.1016
10875TIP3    H154116   5.057   5.980  10.927  2.1786  2.0194  0.4286
10875TIP3    H254117   4.943   6.080  10.936 -1.0444 -1.4702 -0.1018
10876TIP3   OH254118   2.031   1.441  15.654  0.4114 -0.2939 -0.4134
10876TIP3    H154119   1.999   1.360  15.692  1.0126 -0.1435  0.4393
10876TIP3    H254120   1.972   1.459  15.581 -1.2473 -0.1977  0.9147
10877TIP3   OH254121   2.879   5.270  16.537 -0.8520  0.0651  0.2626
10877TIP3    H154122   2.865   5.215  16.615  1.4814  0.3767  0.9330
10877TIP3    H254123   2.907   5.355  16.572  0.1376  0.2347 -0.9088
10878TIP3   OH254124   5.224   5.340   5.081 -0.0522  0.1105 -0.1090
10878TIP3    H154125   5.172   5.292   5.145  0.0632  0.0608 -0.0537
10878TIP3    H254126   5.257   5.273   5.021  0.0987  0.1221 -0.0387
10879TIP3   OH254127   2.590   6.068   0.009 -0.5723  0.2603  0.3061
10879TIP3    H154128   2.588   6.134  -0.061 -0.4942  0.4554  0.4868
10879TIP3    H254129   2.599   5.985  -0.037 -1.5619  0.3000  0.0276
10880TIP3   OH254130   1.695   1.963  15.828 -0.3441 -0.6003 -0.0514
10880TIP3    H154131   1.718   1.989  15.917 -0.4861 -1.0065  0.1073
10880TIP3    H254132   1.715   2.039  15.774 -1.3310  0.0416  0.4890
10881TIP3   OH254133   0.941   2.298   0.379  0.0062  0.1523  0.2108
10881TIP3    H154134   0.916   2.367   0.318 -1.2426 -0.9336 -0.5242
10881TIP3    H254135   0.861   2.278   0.427  0.8239  0.5319  1.7580
10882TIP3   OH254136   4.002   4.825  16.822  0.2522  0.1170  0.3093
10882TIP3    H154137   4.075   4.860  16.873  1.9738 -0.6363 -1.5687
10882TIP3    H254138   4.040   4.753  16.773 -1.7852 -0.2911 -0.7139
10883TIP3   OH254139   0.413   4.779  14.302 -0.2754  0.1412 -0.2112
10883TIP3    H154140   0.338   4.725  14.328 -1.2724  2.0192  0.9786
10883TIP3    H254141   0.393   4.865  14.338  1.9426  0.9554 -0.8702
10884TIP3   OH254142   5.578   0.170   0.866 -0.1194  0.0281 -0.5036
10884TIP3    H154143   5.537   0.244   0.820 -1.0481  0.8331  1.5493
10884TIP3    H254144   5.657   0.208   0.906 -0.5112 -0.1215  0.4205
10885TIP3   OH254145   0.328   3.173  13.554 -0.4335 -0.8272  0.1601
10885TIP3    H154146   0.278   3.096  13.582  1.0329 -1.6036  0.6565
10885TIP3    H254147   0.404   3.137  13.509  0.2998  0.3307  0.4566
10886TIP3   OH254148   1.044   3.393   3.780  0.2331  0.7743  0.4761
10886TIP3    H154149   1.021   3.480   3.811 -1.3661  0.0234  1.4414
10886TIP3    H254150   0.961   3.346   3.775  0.8356 -0.1481 -1.8126
10887TIP3   OH254151   1.868   0.380  17.131 -0.0489  0.6432 -0.5190
10887TIP3    H154152   1.943   0.418  17.177  1.4049 -0.3838 -1.9876
10887TIP3    H254153   1.837   0.449  17.072  1.0970  0.3517 -1.4680
10888TIP3   OH254154   1.174   1.285  12.184  0.0799  0.5588  0.3220
10888TIP3    H154155   1.155   1.243  12.268 -0.4172  2.0397  0.9479
10888TIP3    H254156   1.098   1.340  12.166  0.6217  1.0125 -0.6199
10889TIP3   OH254157   0.819   0.159   0.612  0.0975  0.8100  0.1122
10889TIP3    H154158   0.737   0.111   0.620 -0.3283  1.5133  0.0522
10889TIP3    H254159   0.879   0.098   0.568  0.0949 -0.2753  1.5971
10890TIP3   OH254160   1.642   4.191  11.148 -0.4024  0.7058 -0.2962
10890TIP3    H154161   1.691   4.134  11.208 -0.6786  0.4560 -0.3045
10890TIP3    H254162   1.602   4.130  11.086 -0.6521  0.9155 -0.3404
10891TIP3   OH254163   5.251   0.736   2.351  0.4006  0.3304  0.7609
10891TIP3    H154164   5.214   0.811   2.305 -0.0328 -1.1723 -1.4132
10891TIP3    H254165   5.331   0.770   2.392  0.0879  2.0225 -0.0111
10892TIP3   OH254166   2.157   1.888   5.421 -0.3715 -0.0188 -0.5751
10892TIP3    H154167   2.089   1.939   5.465 -0.4940  0.0256 -0.8196
10892TIP3    H254168   2.111   1.816   5.380 -0.2548 -0.0594 -0.6353
10893TIP3   OH254169   1.577   3.793  16.326  0.0770 -0.4528  0.0740
10893TIP3    H154170   1.613   3.824  16.410 -0.0749 -0.4770  0.1481
10893TIP3    H254171   1.589   3.699  16.327  1.2504 -0.3159 -0.4916
10894TIP3   OH254172   5.688   3.474   5.017  0.3098 -0.1148  0.4162
10894TIP3    H154173   5.662   3.564   5.036  0.8845  0.1390  0.0032
10894TIP3    H254174   5.765   3.459   5.073  0.1183 -0.4070  0.6072
10895TIP3   OH254175   5.353   3.839  15.261 -0.5335 -0.6462  0.5072
10895TIP3    H154176   5.343   3.900  15.188  1.2084 -1.8158 -0.7497
10895TIP3    H254177   5.439   3.800  15.248  1.0090  1.0545  4.6924
10896TIP3   OH254178   3.456   1.007  12.359 -0.4582  0.0269  0.3440
10896TIP3    H154179   3.469   0.989  12.266 -0.9645  0.8691  0.1080
10896TIP3    H254180   3.453   1.102  12.365 -1.2996 -0.0393  1.1050
10897TIP3   OH254181   2.151   4.695  15.772 -0.1794 -0.3897  0.4554
10897TIP3    H154182   2.129   4.631  15.841  1.0620  0.0168  1.2369
10897TIP3    H254183   2.152   4.643  15.691  0.7572 -1.3509  1.0788
10898TIP3   OH254184   6.267   0.072   3.697  0.2248  0.3231 -0.6741
10898TIP3    H154185   6.299   0.053   3.785  0.2464 -0.6902 -0.8885
10898TIP3    H254186   6.173   0.085   3.708  0.2223  0.1620 -0.4998
10899TIP3   OH254187   1.182   6.609   5.970 -0.1046  0.0265  0.0908
10899TIP3    H154188   1.183   6.527   5.921  0.8106 -0.1852  0.4526
10899TIP3    H254189   1.102   6.654   5.941 -0.6601 -1.0372 -0.0297
10900TIP3   OH254190   4.422   3.067   3.865  0.2091  0.0013  0.7241
10900TIP3    H154191   4.405   3.140   3.806  1.6551  1.3276  1.8954
10900TIP3    H254192   4.394   2.990   3.817  0.4877  1.1397 -1.3129
10901TIP3   OH254193   5.615   2.278  15.283 -0.6327 -0.3916 -0.1796
10901TIP3    H154194   5.549   2.346  15.292 -1.4961 -1.0379 -1.4545
10901TIP3    H254195   5.589   2.210  15.345 -0.0658  0.1962  0.7134
10902TIP3   OH254196   4.027   0.456  12.354 -0.5891 -0.4640  0.4646
10902TIP3    H154197   4.021   0.527  12.291  2.0486 -0.4321  0.1869
10902TIP3    H254198   4.120   0.435  12.358 -1.2031 -3.2965  1.2277
10903TIP3   OH254199   3.718   6.597   2.379  0.8835 -0.0403 -0.3747
10903TIP3    H154200   3.799   6.645   2.401  1.1000 -0.5774  0.0098
10903TIP3    H254201   3.676   6.582   2.464 -0.2750  1.3676 -0.6817
10904TIP3   OH254202   0.343   3.289   5.888  0.5872 -0.1040 -0.9767
10904TIP3    H154203   0.341   3.381   5.863  0.3344  0.3701  0.7335
10904TIP3    H254204   0.300   3.243   5.815  1.7371  0.9824 -2.3639
10905TIP3   OH254205   6.253   4.968   1.800 -0.6278 -0.2947 -0.7940
10905TIP3    H154206   6.172   4.921   1.783 -0.5948 -1.0947  1.2092
10905TIP3    H254207   6.263   4.966   1.895  1.1084  0.8539 -0.9331
10906TIP3   OH254208   2.532   6.332   5.833  0.3413  0.0540 -0.0373
10906TIP3    H154209   2.559   6.240   5.833  0.2286  0.0034 -1.9571
10906TIP3    H254210   2.596   6.376   5.776  1.4403  1.5099  2.2155
10907TIP3   OH254211   2.167   1.703   5.050  0.6406 -0.0861  0.4751
10907TIP3    H154212   2.187   1.633   4.988  1.3612  1.1322 -0.7037
10907TIP3    H254213   2.125   1.771   4.997 -0.5903  0.1444  1.7145
10908TIP3   OH254214   2.461   0.377  16.084 -0.5937  0.2665 -0.3094
10908TIP3    H154215   2.367   0.366  16.066 -0.3233 -2.4224 -0.3853
10908TIP3    H254216   2.465   0.403  16.176 -1.3960 -1.1386  0.1469
10909TIP3   OH254217   4.357   3.680  13.294  0.3126 -0.1677 -0.1830
10909TIP3    H154218   4.356   3.619  13.221  2.1459 -0.3597 -0.0798
10909TIP3    H254219   4.446   3.675  13.328  0.3376  2.1548  0.1803
10910TIP3   OH254220   2.261   3.944   5.250  0.8084  0.3716  0.2606
10910TIP3    H154221   2.265   4.007   5.322  0.3738  1.3883 -0.5919
10910TIP3    H254222   2.205   3.986   5.184  0.7900 -0.7601 -0.4559
10911TIP3   OH254223   3.415   4.206  10.711  0.1749  0.3921  0.6757
10911TIP3    H154224   3.405   4.158  10.629  1.0069  1.1953  0.0908
10911TIP3    H254225   3.474   4.151  10.764 -0.8387 -0.4123  0.9724
10912TIP3   OH254226   4.718   6.498  10.409 -0.0220  0.1001 -0.2192
10912TIP3    H154227   4.685   6.461  10.491 -1.2796 -1.2536 -1.3091
10912TIP3    H254228   4.661   6.573  10.392  0.5947  0.7229  0.4165
10913TIP3   OH254229   2.789   4.320  13.690  0.7489  0.3052  0.3350
10913TIP3    H154230   2.816   4.396  13.742  1.2475 -0.0421  0.5937
10913TIP3    H254231   2.709   4.348  13.647  0.3404  0.6134  1.2706
10914TIP3   OH254232   1.615   1.728   5.299 -0.3491  0.2640 -0.8754
10914TIP3    H154233   1.674   1.800   5.320  0.0496 -0.4848  0.6856
10914TIP3    H254234   1.530   1.757   5.330 -0.3190  0.3487 -0.8725
10915TIP3   OH254235   6.407   1.440   4.109 -0.2374 -0.7475 -0.3142
10915TIP3    H154236   6.315   1.428   4.089 -0.3816  0.9937 -0.7557
10915TIP3    H254237   6.409   1.462   4.203 -0.5119  1.5632 -0.8135
10916TIP3   OH254238   4.953   1.254  15.059 -0.0243  0.2065 -0.3563
10916TIP3    H154239   4.915   1.285  14.977 -0.0932  0.1650 -0.3398
10916TIP3    H254240   5.038   1.218  15.034  0.6178  1.5837 -0.2019
10917TIP3   OH254241   5.703   4.192   0.588  1.0508  0.0376  0.2654
10917TIP3    H154242   5.782   4.174   0.537  1.5737  0.2290  0.9965
10917TIP3    H254243   5.716   4.143   0.669  1.3370  1.6536  1.2180
10918TIP3   OH254244   2.215   2.386  16.035 -0.0142  0.1269  0.1954
10918TIP3    H154245   2.193   2.301  16.072 -2.5393  0.4341 -0.5376
10918TIP3    H254246   2.186   2.381  15.944  1.2479  1.2369 -0.2861
10919TIP3   OH254247   4.864   4.588  11.858 -0.9758 -0.1726 -0.3464
10919TIP3    H154248   4.791   4.648  11.874 -1.0344 -0.3654  0.1039
10919TIP3    H254249   4.855   4.521  11.925 -1.3851 -1.1418 -1.3558
10920TIP3   OH254250   1.643   6.582   4.040  0.5279 -0.3257  0.0501
10920TIP3    H154251   1.686   6.536   4.113  0.1888 -0.0342  0.4348
10920TIP3    H254252   1.579   6.519   4.008  1.4440 -0.8810 -0.7274
10921TIP3   OH254253   6.665   0.401   5.734 -0.4174 -0.2680  0.0862
10921TIP3    H154254   6.755   0.398   5.702 -0.0208 -0.4031  1.1785
10921TIP3    H254255   6.618   0.337   5.681 -0.5043  1.7931 -2.3762
10922TIP3   OH254256   2.672   3.977   1.694 -0.2530 -0.0081  0.3690
10922TIP3    H154257   2.618   3.923   1.637  1.2684 -0.8159 -0.3242
10922TIP3    H254258   2.628   3.973   1.779 -0.9208 -1.1732 -0.0244
10923TIP3   OH254259   2.361   3.835   4.080  0.5514  0.6094  0.3136
10923TIP3    H154260   2.422   3.762   4.067  1.4373  1.3339  0.3378
10923TIP3    H254261   2.302   3.831   4.005  1.7763  1.0102 -0.6843
10924TIP3   OH254262   6.277   1.574  13.832 -0.0205  0.1259  0.0824
10924TIP3    H154263   6.355   1.629  13.832 -0.6126  0.9756 -0.7298
10924TIP3    H254264   6.299   1.501  13.774  0.7791 -0.5556  1.1933
10925TIP3   OH254265   4.394   4.150   2.808  0.0442 -0.1128 -0.3406
10925TIP3    H154266   4.393   4.223   2.870  0.2030 -1.5987  1.4655
10925TIP3    H254267   4.359   4.076   2.858  1.5645 -1.7048 -1.5712
10926TIP3   OH254268   0.673   0.389  15.445 -0.4249  0.3418 -0.2837
10926TIP3    H154269   0.612   0.437  15.389  0.3942  0.8495 -0.7437
10926TIP3    H254270   0.692   0.450  15.517 -0.4251  0.1916 -0.1539
10927TIP3   OH254271   6.787   5.398   0.397  0.6070  0.3560  0.2741
10927TIP3    H154272   6.800   5.408   0.302 -1.6248  1.1339  0.0174
10927TIP3    H254273   6.820   5.480   0.433  2.4313 -0.3676  0.2886
10928TIP3   OH254274   1.794   2.521   1.975  0.4235  0.0714  0.1502
10928TIP3    H154275   1.810   2.615   1.987  0.7474 -0.0701  0.8344
10928TIP3    H254276   1.750   2.515   1.890  0.1763  0.8671  0.2164
10929TIP3   OH254277   5.977   5.471   2.741 -0.0190 -0.3978 -0.2420
10929TIP3    H154278   5.909   5.406   2.722  1.4186 -1.9338 -0.1517
10929TIP3    H254279   5.952   5.508   2.826 -0.9859 -0.6120 -0.4258
10930TIP3   OH254280   6.092   4.945   2.864  0.0676  0.6950 -0.2686
10930TIP3    H154281   6.116   5.031   2.897 -2.5690  1.1068  0.7001
10930TIP3    H254282   6.004   4.930   2.899  0.8714 -2.8107  0.3638
10931TIP3   OH254283   6.304   4.026  13.216  0.3998  0.2066 -0.4213
10931TIP3    H154284   6.271   3.945  13.177 -1.3836  0.0486  1.3459
10931TIP3    H254285   6.368   3.997  13.281  0.7754  0.2976 -0.7467
10932TIP3   OH254286   5.553   2.522  15.023 -0.4180 -0.5707  0.2834
10932TIP3    H154287   5.477   2.535  15.081 -0.7581 -0.1392 -0.2506
10932TIP3    H254288   5.627   2.555  15.074 -0.3186 -2.5103  1.4577
10933TIP3   OH254289   1.240   6.394   2.792  0.2156 -0.1268 -0.2816
10933TIP3    H154290   1.259   6.331   2.723 -2.3213  0.0363 -1.1965
10933TIP3    H254291   1.214   6.341   2.867 -0.7152 -0.2103 -0.6603
10934TIP3   OH254292   4.292   1.976   1.620 -0.0895 -0.4113  0.8515
10934TIP3    H154293   4.328   1.891   1.647 -0.6926 -0.5172  1.3399
10934TIP3    H254294   4.224   1.994   1.685  1.1330  1.2171  1.7050
10935TIP3   OH254295   1.112   3.668  14.145  0.0733  0.5620 -0.2717
10935TIP3    H154296   1.131   3.659  14.052 -0.9285 -0.1191 -0.4157
10935TIP3    H254297   1.196   3.650  14.188  0.1130 -0.9725 -0.9589
10936TIP3   OH254298   0.389   1.397  13.965  0.1681 -0.2546  0.3959
10936TIP3    H154299   0.347   1.396  13.879  4.9545  1.6665 -2.1426
10936TIP3    H254300   0.369   1.484  14.001  0.6735  0.0553 -0.0817
10937TIP3   OH254301   6.774   5.899   0.722  0.2858  1.0355 -0.1750
10937TIP3    H154302   6.811   5.937   0.642 -0.9810  2.4515 -0.1036
10937TIP3    H254303   6.683   5.878   0.699  0.0533  1.0125  0.7488
10938TIP3   OH254304   6.097   6.199  16.980 -0.4033 -0.1796 -0.1116
10938TIP3    H154305   6.116   6.167  16.892 -0.0478 -0.8755  0.2174
10938TIP3    H254306   6.051   6.282  16.966 -0.1042 -0.1581 -0.9456
10939TIP3   OH254307   3.879   1.101   5.652  0.1904 -0.3552  0.3742
10939TIP3    H154308   3.810   1.130   5.593 -1.9818 -0.1610  2.9135
10939TIP3    H254309   3.884   1.170   5.719  2.2240 -0.8191  0.7566
10940TIP3   OH254310   1.297   3.733   0.156  0.7435 -0.6458  0.0858
10940TIP3    H154311   1.256   3.742   0.242  3.5301  1.1639  1.3124
10940TIP3    H254312   1.256   3.801   0.103 -0.2431 -1.0831  0.2776
10941TIP3   OH254313   2.663   2.389   4.467  0.4338 -0.5772 -0.2269
10941TIP3    H154314   2.655   2.335   4.388  1.3161 -2.6375  1.0557
10941TIP3    H254315   2.757   2.395   4.483  0.3859  1.6875 -0.5236
10942TIP3   OH254316   3.311   0.083   5.187  0.1609 -0.0428 -0.1612
10942TIP3    H154317   3.296   0.010   5.247  1.1100 -0.0790  0.0334
10942TIP3    H254318   3.394   0.063   5.144 -0.7612 -0.2781 -1.8884
10943TIP3   OH254319   4.408   6.785  14.612  0.3245  0.2597 -0.1845
10943TIP3    H154320   4.448   6.699  14.596  0.7914  0.0542  1.9045
10943TIP3    H254321   4.475   6.834  14.659 -1.1604  0.5823  1.6552
10944TIP3   OH254322   0.789   0.446  12.691  0.4114  0.0709 -0.0280
10944TIP3    H154323   0.727   0.482  12.627  1.0399  2.0130  0.4190
10944TIP3    H254324   0.769   0.493  12.772  0.3368 -1.6058  0.9484
10945TIP3   OH254325   2.624   5.174   1.031 -0.0073 -0.3593 -0.1225
10945TIP3    H154326   2.579   5.258   1.024 -0.0515 -0.4463 -0.9153
10945TIP3    H254327   2.677   5.182   1.110  0.2058  0.5166 -0.3506
10946TIP3   OH254328   1.331   4.721   6.434 -0.1405  0.6671  0.0628
10946TIP3    H154329   1.291   4.747   6.517 -0.1090  0.0602  0.2694
10946TIP3    H254330   1.278   4.648   6.403  0.2135  0.4978 -0.1531
10947TIP3   OH254331   3.297   1.806   3.113  0.3016  0.3784  0.0594
10947TIP3    H154332   3.254   1.725   3.142  1.1178 -0.1705 -0.2638
10947TIP3    H254333   3.390   1.790   3.125  0.4008  1.9263  1.6861
10948TIP3   OH254334   6.638   6.042   4.608  0.5073  0.2731  0.2297
10948TIP3    H154335   6.728   6.073   4.607  1.0042 -1.1497  0.9171
10948TIP3    H254336   6.638   5.964   4.553 -0.3723  0.4377 -0.0207
10949TIP3   OH254337   1.157   2.280   4.767 -0.0869  0.4451 -0.1885
10949TIP3    H154338   1.195   2.252   4.684  0.6394  0.6436  0.0706
10949TIP3    H254339   1.068   2.306   4.745  0.0668  0.3889 -0.8875
10950TIP3   OH254340   4.667   2.939  15.535 -0.4145 -0.8649  0.1409
10950TIP3    H154341   4.723   2.920  15.460 -1.3926  0.2741 -0.9119
10950TIP3    H254342   4.579   2.915  15.506 -1.5746  3.9923 -0.9186
10951TIP3   OH254343   3.084   0.545  12.607 -0.1196  0.4960  0.1048
10951TIP3    H154344   2.988   0.548  12.597 -0.0101 -0.6264 -1.4698
10951TIP3    H254345   3.118   0.568  12.521  1.0528  0.6286  0.5885
10952TIP3   OH254346   2.874   3.018  14.505 -0.0688  0.6152 -0.5825
10952TIP3    H154347   2.793   2.971  14.487  0.5048 -0.1740 -1.1896
10952TIP3    H254348   2.928   2.955  14.553 -0.0855  1.3777  0.4405
10953TIP3   OH254349   5.910   0.113  16.247  0.5234 -0.2970  0.0354
10953TIP3    H154350   6.002   0.096  16.264  0.2522  0.0885  2.1189
10953TIP3    H254351   5.909   0.187  16.187  1.5701  0.8362  1.3840
10954TIP3   OH254352   5.665   3.325   1.923  0.0921 -0.2826 -0.1823
10954TIP3    H154353   5.722   3.339   1.848 -0.4834 -2.4976 -1.0789
10954TIP3    H254354   5.585   3.288   1.886 -0.1345 -1.6058  1.5263
10955TIP3   OH254355   5.523   4.343  16.857 -0.0737 -0.0525  0.3909
10955TIP3    H154356   5.437   4.382  16.871 -0.1804 -0.2160  0.1938
10955TIP3    H254357   5.505   4.250  16.838  0.2350 -0.3958  1.7311
10956TIP3   OH254358   6.202   6.790  11.375  0.7303  0.0363 -0.0009
10956TIP3    H154359   6.195   6.805  11.469 -0.4127 -1.6724  0.2231
10956TIP3    H254360   6.138   6.720  11.358  1.8180 -0.5340 -1.8153
10957TIP3   OH254361   5.885   2.892   4.463  0.2971  0.3202 -0.0233
10957TIP3    H154362   5.933   2.829   4.517 -0.8350  1.7827  2.7523
10957TIP3    H254363   5.794   2.883   4.491 -0.3971  0.8446 -2.0002
10958TIP3   OH254364   0.266   5.996   4.499 -0.0105  0.0713 -0.1473
10958TIP3    H154365   0.326   6.070   4.488 -0.0010  0.3924  1.9122
10958TIP3    H254366   0.186   6.035   4.535 -0.2697 -0.8228  0.2501
10959TIP3   OH254367   0.748   5.918  13.003 -0.0195 -0.5548  0.2676
10959TIP3    H154368   0.704   5.842  12.967  0.5326 -0.2118 -1.1684
10959TIP3    H254369   0.833   5.885  13.033  0.4378 -0.4332 -0.8391
10960TIP3   OH254370   0.121   0.805   5.533 -0.1948  0.1663  0.0058
10960TIP3    H154371   0.051   0.851   5.487  0.0610  2.3806  1.7310
10960TIP3    H254372   0.196   0.812   5.475 -0.5174  0.7842 -0.3471
10961TIP3   OH254373   4.965   3.055   0.244  0.3207 -0.0339 -0.5045
10961TIP3    H154374   4.937   3.076   0.155  1.1643 -0.0869 -0.7824
10961TIP3    H254375   4.915   2.976   0.267  0.0950 -0.0124 -0.9199
10962TIP3   OH254376   4.126   4.372  13.795 -0.0327  0.2391 -0.3085
10962TIP3    H154377   4.109   4.298  13.736 -1.7777  0.9358 -0.7072
10962TIP3    H254378   4.082   4.348  13.876 -3.1783  2.1013 -1.3807
10963TIP3   OH254379   3.620   2.369   4.864  0.6909 -0.0323  0.6774
10963TIP3    H154380   3.652   2.280   4.878 -1.6343 -0.6906  2.2011
10963TIP3    H254381   3.607   2.403   4.953  1.6097  1.8495  0.0978
10964TIP3   OH254382   5.322   2.112   1.032  0.1878 -0.1518  0.6015
10964TIP3    H154383   5.323   2.058   0.953 -0.2913  0.1110  0.4187
10964TIP3    H254384   5.254   2.073   1.087 -0.7438  0.7768  0.1135
10965TIP3   OH254385   3.107   5.050  11.520  0.5260 -0.0068  0.1212
10965TIP3    H154386   3.141   5.118  11.461  1.0848 -1.9801 -1.8763
10965TIP3    H254387   3.179   5.035  11.582  0.8782  0.3159 -0.2039
10966TIP3   OH254388   3.026   1.587  13.193 -0.3345 -0.4574  0.6983
10966TIP3    H154389   2.968   1.663  13.201 -0.5871 -0.8758  3.2320
10966TIP3    H254390   3.080   1.590  13.272  0.2418 -2.4330  0.3977
10967TIP3   OH254391   4.671   1.906   2.967  0.3889 -0.4816 -0.4487
10967TIP3    H154392   4.759   1.926   2.933  0.5102 -0.6452 -0.2325
10967TIP3    H254393   4.620   1.984   2.946  0.1875 -0.9958 -1.9339
10968TIP3   OH254394   5.381   3.720   5.850 -0.3872  0.0089 -0.3986
10968TIP3    H154395   5.292   3.706   5.883 -0.3276 -0.1160 -0.2926
10968TIP3    H254396   5.435   3.658   5.898 -0.4969 -1.0647 -1.6265
10969TIP3   OH254397   4.592   3.931  13.689 -0.5183 -0.3340 -0.0031
10969TIP3    H154398   4.519   3.936  13.628  0.6670  1.1278 -1.3339
10969TIP3    H254399   4.618   3.838  13.689 -1.9037 -0.7212 -0.0457
10970TIP3   OH254400   4.334   0.722  17.148  0.1937  0.4979 -0.0279
10970TIP3    H154401   4.355   0.806  17.107  0.6790  0.0324 -0.7489
10970TIP3    H254402   4.242   0.729  17.171  0.0759  0.9992 -0.6445
10971TIP3   OH254403   0.840   4.661  15.453 -0.4739 -0.0993 -0.2138
10971TIP3    H154404   0.838   4.576  15.498 -1.5391  0.3120  0.5529
10971TIP3    H254405   0.806   4.723  15.518 -1.1961  0.6555 -1.2862
10972TIP3   OH254406   1.076   6.153  15.620  0.6397 -0.2140 -1.1579
10972TIP3    H154407   1.034   6.167  15.536  1.7475 -0.9748 -1.8434
10972TIP3    H254408   1.135   6.079  15.606  0.3126 -0.8046  0.4658
10973TIP3   OH254409   6.663   6.073  14.138 -0.1848  0.3450 -0.4248
10973TIP3    H154410   6.640   6.161  14.109 -0.2109  0.6764  0.5707
10973TIP3    H254411   6.733   6.046  14.079  0.0551  1.1676 -0.5274
10974TIP3   OH254412   4.190   1.807   1.037  0.2245  0.2623  0.0449
10974TIP3    H154413   4.182   1.714   1.056 -2.4331  0.5368  0.5378
10974TIP3    H254414   4.230   1.811   0.950 -2.0338 -1.4482 -1.1378
10975TIP3   OH254415   5.559   3.669   3.639  0.2164 -0.3729 -0.2845
10975TIP3    H154416   5.490   3.736   3.640  0.1270 -0.3956 -2.3965
10975TIP3    H254417   5.638   3.717   3.612 -0.1238 -1.3276 -3.0974
10976TIP3   OH254418   6.802   2.512   4.499  0.3512  0.3326 -0.1121
10976TIP3    H154419   6.847   2.507   4.415  1.2411  0.5175  0.3407
10976TIP3    H254420   6.873   2.520   4.563 -0.2640 -0.7803  0.7319
10977TIP3   OH254421   3.614   5.052   1.748  0.0850  0.0382  0.2118
10977TIP3    H154422   3.627   5.027   1.656  0.5605 -0.7051  0.4744
10977TIP3    H254423   3.696   5.093   1.774  1.2214 -2.7630  1.2598
10978TIP3   OH254424   4.605   3.033   4.074  0.3643 -0.0542  0.3284
10978TIP3    H154425   4.548   3.006   4.002 -1.1249  0.3833  1.3289
10978TIP3    H254426   4.624   3.125   4.057 -0.5116  0.2210  0.8410
10979TIP3   OH254427   4.975   4.577   1.040  0.7771  0.2037 -0.5503
10979TIP3    H154428   4.995   4.603   0.950 -0.0502  0.5830 -0.6302
10979TIP3    H254429   4.905   4.512   1.031  0.5971  0.3457 -0.1685
10980TIP3   OH254430   5.609   1.343  15.441 -0.3090 -0.1336  0.2102
10980TIP3    H154431   5.653   1.388  15.369  2.3770 -0.0733  1.8215
10980TIP3    H254432   5.529   1.394  15.455  1.5484  2.8431  0.5250
10981TIP3   OH254433   3.558   6.017   2.220  0.2068 -0.1607 -0.4619
10981TIP3    H154434   3.489   6.056   2.274  0.0455 -0.1942 -0.6437
10981TIP3    H254435   3.536   5.925   2.216  0.6052 -0.2807 -0.0084
10982TIP3   OH254436   3.959   3.881   2.552  0.2217 -0.2286 -0.3371
10982TIP3    H154437   3.961   3.785   2.555  1.5754 -0.1666  1.7739
10982TIP3    H254438   3.866   3.902   2.542 -0.3076 -1.7534  1.0208
10983TIP3   OH254439   6.537   5.295  11.562  0.3005  0.0271  0.1571
10983TIP3    H154440   6.472   5.360  11.588 -0.3470 -0.0788 -1.1505
10983TIP3    H254441   6.553   5.244  11.641 -2.3915 -0.9367  0.1310
10984TIP3   OH254442   0.384   1.245  12.674  0.2129  0.4695  0.7419
10984TIP3    H154443   0.324   1.231  12.747  1.4227  1.0970  1.8621
10984TIP3    H254444   0.443   1.170  12.676  0.5655  0.7465  0.7234
10985TIP3   OH254445   4.636   5.116   4.416  0.0797 -0.1330  0.0435
10985TIP3    H154446   4.634   5.067   4.498  1.2296  2.2660  1.5402
10985TIP3    H254447   4.715   5.084   4.372  0.0444 -0.6449  0.3431
10986TIP3   OH254448   4.052   0.532   3.707 -0.5015  0.3050 -0.1083
10986TIP3    H154449   4.112   0.597   3.742 -0.9051  1.0263 -0.7365
10986TIP3    H254450   4.108   0.460   3.678  0.0104  0.6885 -0.0753
10987TIP3   OH254451   0.127   2.741  11.585 -0.3904  0.2299  0.1217
10987TIP3    H154452   0.100   2.663  11.537 -0.0788  0.5464 -0.5632
10987TIP3    H254453   0.099   2.814  11.531 -2.2061  0.6411  1.5617
10988TIP3   OH254454   6.191   1.130  17.247  0.4239 -0.1527 -0.3573
10988TIP3    H154455   6.147   1.049  17.275 -3.5119  1.5822 -1.2625
10988TIP3    H254456   6.222   1.111  17.159  0.2129 -0.9099 -0.2787
10989TIP3   OH254457   5.765   0.644  15.324  0.3928 -0.3791  0.1793
10989TIP3    H154458   5.711   0.585  15.272 -0.0413  0.4236 -0.2994
10989TIP3    H254459   5.850   0.600  15.331  0.0966 -1.0175 -0.2371
10990TIP3   OH254460   0.330   6.547  13.164 -0.3595  0.1043 -0.2416
10990TIP3    H154461   0.301   6.519  13.250 -0.2727 -0.0890 -0.2755
10990TIP3    H254462   0.301   6.479  13.104  0.9528 -0.5570 -0.1527
10991TIP3   OH254463   2.898   6.388  16.591 -0.4374 -0.2350 -0.6101
10991TIP3    H154464   2.813   6.353  16.618 -0.6033 -1.1059 -2.1912
10991TIP3    H254465   2.956   6.372  16.665 -1.7738  0.8584  0.7006
10992TIP3   OH254466   0.444   4.642   5.500 -0.3255  0.3038 -0.2019
10992TIP3    H154467   0.349   4.646   5.510 -0.4576 -0.8012 -0.9123
10992TIP3    H254468   0.473   4.733   5.502 -1.5439  0.7164 -1.4181
10993TIP3   OH254469   2.072   6.444  15.445 -0.1779 -0.5528  0.4696
10993TIP3    H154470   2.109   6.529  15.420  0.2375 -1.4510 -2.0210
10993TIP3    H254471   2.148   6.389  15.461 -0.4273 -1.2719 -0.7729
10994TIP3   OH254472   2.244   4.643  16.336 -0.0715 -0.4636 -0.4822
10994TIP3    H154473   2.267   4.573  16.398 -0.1499  0.1536  0.2497
10994TIP3    H254474   2.197   4.598  16.267  0.0388 -1.1717 -0.1086
10995TIP3   OH254475   2.621   5.767   3.139 -0.4584 -0.1251 -0.7389
10995TIP3    H154476   2.708   5.728   3.154 -0.4955  0.1842  0.3275
10995TIP3    H254477   2.635   5.860   3.151 -1.1952 -0.1866  0.6981
10996TIP3   OH254478   0.085   3.472  10.527 -0.1757  0.6530 -0.5184
10996TIP3    H154479   0.091   3.547  10.468  1.1103  1.0002  0.0479
10996TIP3    H254480   0.001   3.432  10.505 -2.6423  4.3229  1.5985
10997TIP3   OH254481   6.580   1.429   1.278 -0.3535 -0.0401  0.1504
10997TIP3    H154482   6.610   1.433   1.369 -0.6946  1.2989  0.2097
10997TIP3    H254483   6.554   1.519   1.257 -4.3336 -1.1195  0.1118
10998TIP3   OH254484   6.169   0.019  15.980 -0.0096 -0.1138  0.3189
10998TIP3    H154485   6.214   0.096  16.013 -2.3304  1.5149 -0.2111
10998TIP3    H254486   6.101   0.054  15.922  0.5522 -2.6495 -1.9878
10999TIP3   OH254487   3.833   2.115  11.436  0.5506 -0.5545  0.0003
10999TIP3    H154488   3.780   2.035  11.438 -0.2521 -0.1328 -2.5626
10999TIP3    H254489   3.913   2.089  11.390  0.9084 -0.2468  0.4544
11000TIP3   OH254490   5.850   0.745  15.006  0.2577 -0.0331 -0.0095
11000TIP3    H154491   5.927   0.718  15.055  1.3847  0.2780 -1.5668
11000TIP3    H254492   5.836   0.675  14.942  0.3727  0.7785 -0.9501
11001TIP3   OH254493   1.409   3.922   5.188  0.3246 -0.2663  0.1083
11001TIP3    H154494   1.376   3.975   5.115 -1.7871 -1.3421  0.2404
11001TIP3    H254495   1.403   3.832   5.156  1.7170 -0.5884  0.7282
11002TIP3   OH254496   3.198   1.607   1.225  0.5955 -0.0971  0.0655
11002TIP3    H154497   3.229   1.522   1.193  0.4894  0.0888 -0.5406
11002TIP3    H254498   3.200   1.599   1.320  1.5663 -0.4305  0.0267
11003TIP3   OH254499   1.300   0.911   1.828 -0.0294  0.3889 -0.0929
11003TIP3    H154500   1.368   0.863   1.875 -3.0317 -4.0571  0.0895
11003TIP3    H254501   1.248   0.954   1.897 -1.8107 -2.5166  0.4889
11004TIP3   OH254502   5.764   1.692   1.766  0.1589  0.0536  0.1085
11004TIP3    H154503   5.704   1.748   1.717 -0.8483 -1.1396 -0.0287
11004TIP3    H254504   5.793   1.747   1.839  0.6588  1.3919 -1.0819
11005TIP3   OH254505   1.316   4.283  11.811  0.2193  0.0466 -0.0316
11005TIP3    H154506   1.407   4.313  11.805  0.3364 -0.0247  1.2154
11005TIP3    H254507   1.264   4.361  11.794  0.5022  0.1015 -0.6931
11006TIP3   OH254508   6.818   2.536   2.935 -0.3944 -0.8144 -1.0676
11006TIP3    H154509   6.905   2.551   2.974 -0.9590 -3.2460  1.2605
11006TIP3    H254510   6.779   2.624   2.931  0.1663 -0.2827  2.8553
11007TIP3   OH254511   3.606   4.840  11.289  0.7665 -0.0661  0.2879
11007TIP3    H154512   3.672   4.798  11.233  1.0703 -0.0112  0.6050
11007TIP3    H254513   3.571   4.768  11.342  0.4845 -0.1171  0.0271
11008TIP3   OH254514   2.042   1.964  12.833 -0.1443 -0.1519  0.5249
11008TIP3    H154515   2.004   2.047  12.803 -0.5996  0.5501  2.8904
11008TIP3    H254516   1.993   1.897  12.787 -0.2082  0.8861 -0.9506
11009TIP3   OH254517   1.828   6.157   2.038 -0.0091 -0.2389  0.1814
11009TIP3    H154518   1.853   6.084   1.982 -0.9828  0.4924 -1.2205
11009TIP3    H254519   1.900   6.164   2.101  0.4699 -1.8934 -0.1524
11010TIP3   OH254520   3.185   6.034  16.074  0.1673 -0.1186 -0.0980
11010TIP3    H154521   3.225   5.962  16.025 -1.3702  0.0661 -1.6961
11010TIP3    H254522   3.097   6.002  16.095  0.2002  0.5035  1.0089
11011TIP3   OH254523   6.505   1.356  12.204  0.1157  0.0052 -0.1057
11011TIP3    H154524   6.463   1.363  12.289  3.2026  2.1980  1.3263
11011TIP3    H254525   6.487   1.439  12.160  0.9114  0.0003 -0.4539
11012TIP3   OH254526   4.618   6.420   0.322 -0.0253  0.0996  0.0725
11012TIP3    H154527   4.686   6.387   0.264  0.8260  0.3106  0.9471
11012TIP3    H254528   4.555   6.348   0.329  1.2798 -0.9644  1.1114
11013TIP3   OH254529   2.164   4.318   2.652  0.1202 -0.2071  0.1441
11013TIP3    H154530   2.242   4.361   2.687  1.2384 -3.9215  2.6133
11013TIP3    H254531   2.198   4.256   2.588 -1.1579  0.4880 -1.2249
11014TIP3   OH254532   5.023   4.454   0.579  0.2845  0.2718  0.2800
11014TIP3    H154533   4.939   4.500   0.584  1.1836  1.7385  2.1458
11014TIP3    H254534   5.088   4.521   0.598  2.0831 -0.3382 -3.3567
11015TIP3   OH254535   3.977   3.188  12.961  0.0710  0.3133 -0.2776
11015TIP3    H154536   3.887   3.219  12.951 -0.1263 -0.3097 -0.4463
11015TIP3    H254537   4.027   3.267  12.982 -0.7737  0.4238  1.4276
11016TIP3   OH254538   5.987   2.590   6.252 -0.6102  0.5948  0.3244
11016TIP3    H154539   6.064   2.559   6.300 -0.1173  1.9920  0.4648
11016TIP3    H254540   6.023   2.636   6.176 -1.3234  0.6572  0.0212
11017TIP3   OH254541   2.850   0.539   3.352 -0.0385 -0.4339  0.4791
11017TIP3    H154542   2.783   0.573   3.411  1.2836  0.7645  1.3082
11017TIP3    H254543   2.807   0.537   3.266 -0.9959  0.7723  0.9109
11018TIP3   OH254544   5.583   2.707  10.566 -0.4385 -0.3188 -0.4980
11018TIP3    H154545   5.578   2.689  10.660  0.2411 -2.2394 -0.8087
11018TIP3    H254546   5.666   2.668  10.539 -0.3279  0.7830 -1.7832
11019TIP3   OH254547   0.331   2.518  16.489 -0.2087  0.0390 -0.5270
11019TIP3    H154548   0.333   2.469  16.406  0.0733  1.8534 -1.6174
11019TIP3    H254549   0.409   2.573  16.487 -0.8043  0.9402  0.4165
11020TIP3   OH254550   3.245   3.103  14.153 -0.2295  0.7164 -0.0059
11020TIP3    H154551   3.303   3.028  14.139  0.6594  1.4803 -0.4490
11020TIP3    H254552   3.198   3.081  14.234 -0.1249 -0.4013 -0.2311
11021TIP3   OH254553   2.440   0.290  16.539  0.3856  0.0224  0.2673
11021TIP3    H154554   2.525   0.318  16.502 -0.4170  1.2102 -0.7306
11021TIP3    H254555   2.409   0.367  16.587  1.4616 -1.5371  3.5927
11022TIP3   OH254556   3.896   6.708   0.238 -0.3794 -0.1394  0.2611
11022TIP3    H154557   3.869   6.624   0.202  0.3861 -0.5578  0.6425
11022TIP3    H254558   3.833   6.771   0.202 -1.1677 -0.9215  0.2567
11023TIP3   OH254559   4.743   3.043  16.569 -0.3310 -0.0930  0.3186
11023TIP3    H154560   4.733   3.076  16.659 -0.6480 -3.0825  1.4265
11023TIP3    H254561   4.664   2.992  16.553  0.1196 -0.2961 -1.3700
11024TIP3   OH254562   0.779   4.509   4.049 -0.2549 -0.2965 -0.1955
11024TIP3    H154563   0.706   4.482   4.105 -1.6813  1.4862 -1.1259
11024TIP3    H254564   0.758   4.600   4.025  2.5446  0.4231 -0.0459
11025TIP3   OH254565   6.459   4.039   1.174  0.4928 -0.3352  0.2801
11025TIP3    H154566   6.384   4.053   1.232 -1.5228 -2.2397 -1.7958
11025TIP3    H254567   6.479   4.126   1.139 -0.5568  0.2352  1.0736
11026TIP3   OH254568   0.932   5.213  16.343  0.4481 -0.0410 -0.1954
11026TIP3    H154569   0.967   5.135  16.387 -0.7194 -0.3804  0.1452
11026TIP3    H254570   0.916   5.275  16.413  1.0480  0.3878 -0.4298
11027TIP3   OH254571   0.076   0.914  15.086  0.2465 -0.2758  0.0119
11027TIP3    H154572   0.023   0.990  15.061  0.1272  0.0481  1.2017
11027TIP3    H254573   0.087   0.923  15.181  2.6606 -0.2005 -0.2435
11028TIP3   OH254574   2.697   2.179  17.230  0.6000 -0.1186  0.2183
11028TIP3    H154575   2.663   2.113  17.290  1.7261 -0.4704  0.4839
11028TIP3    H254576   2.637   2.178  17.156  0.5846 -1.4099  0.2444
11029TIP3   OH254577   4.259   5.463  15.313 -0.0831 -0.2747 -0.0643
11029TIP3    H154578   4.312   5.497  15.385 -1.8293  1.6122  0.3697
11029TIP3    H254579   4.320   5.410  15.262  1.9340  0.8509  1.1083
11030TIP3   OH254580   2.159   4.207  12.591  0.1402  0.6729 -0.1536
11030TIP3    H154581   2.133   4.280  12.647  1.4447  1.9528 -1.1872
11030TIP3    H254582   2.212   4.150  12.648 -0.7579  0.5973  0.6105
11031TIP3   OH254583   2.733   0.485   4.782 -0.2879 -0.0713 -0.0923
11031TIP3    H154584   2.780   0.538   4.847  1.5142 -1.5114 -0.1801
11031TIP3    H254585   2.650   0.531   4.770 -0.0102  1.0873  2.0602
11032TIP3   OH254586   0.085   3.716   0.479 -0.3333  0.0123  0.0656
11032TIP3    H154587   0.073   3.766   0.560  0.8931 -0.4703  0.5643
11032TIP3    H254588   0.179   3.719   0.463 -0.5185 -0.2627 -1.1172
11033TIP3   OH254589   0.109   2.803  12.033  0.0256 -0.8087 -0.5945
11033TIP3    H154590   0.197   2.769  12.022  0.3800 -0.3173  0.6207
11033TIP3    H254591   0.115   2.862  12.109 -1.3158 -0.6945 -0.5572
11034TIP3   OH254592   6.712   2.454  16.111 -0.0790 -0.4644 -0.4546
11034TIP3    H154593   6.803   2.483  16.099 -0.2877  0.0314 -0.8985
11034TIP3    H254594   6.662   2.535  16.115 -0.5214 -0.7417 -0.3807
11035TIP3   OH254595   2.515   4.659  15.548  0.1830  0.1837 -0.1042
11035TIP3    H154596   2.436   4.710  15.532 -0.3061 -0.3579  0.5389
11035TIP3    H254597   2.512   4.639  15.642  1.7830  1.3200  0.2182
11036TIP3   OH254598   4.503   3.234  11.342 -0.0065  0.3686 -0.2946
11036TIP3    H154599   4.413   3.228  11.375 -0.7526  0.3182 -2.2960
11036TIP3    H254600   4.500   3.191  11.256  1.8229  0.7945 -0.5834
11037TIP3   OH254601   3.602   2.838   1.809  0.5436  0.5512 -0.0280
11037TIP3    H154602   3.677   2.786   1.781 -1.1675 -1.0595 -1.8111
11037TIP3    H254603   3.587   2.812   1.900  0.8048 -0.7781 -0.3595
11038TIP3   OH254604   1.550   1.079  17.128 -0.0984 -0.0408  0.8006
11038TIP3    H154605   1.463   1.119  17.117 -0.0821 -0.2791 -0.2142
11038TIP3    H254606   1.610   1.141  17.086 -0.1241 -1.3438 -1.1990
11039TIP3   OH254607   0.845   2.905  16.367 -0.0550 -0.0313 -0.5775
11039TIP3    H154608   0.857   2.969  16.438 -0.0900  1.0403 -1.5290
11039TIP3    H254609   0.831   2.958  16.289  2.4425 -1.1635 -1.8501
11040TIP3   OH254610   5.396   6.264  12.063  0.2942 -0.4526 -0.0820
11040TIP3    H154611   5.446   6.343  12.045 -1.0893 -0.0252 -2.3744
11040TIP3    H254612   5.456   6.206  12.109  2.0035  1.0838 -0.3492
11041TIP3   OH254613   1.411   0.487   2.523 -0.7322 -0.3450 -0.1946
11041TIP3    H154614   1.468   0.482   2.599 -0.0752 -0.2033 -0.6701
11041TIP3    H254615   1.322   0.483   2.558 -0.4368  0.2127  0.6093
11042TIP3   OH254616   1.470   1.956   1.617 -0.2043 -0.5106 -0.4927
11042TIP3    H154617   1.397   2.002   1.575  1.1267  3.4547  1.3028
11042TIP3    H254618   1.433   1.923   1.699 -0.3983  0.1364 -0.3132
11043TIP3   OH254619   2.250   5.231   4.032  0.1816 -0.0816 -0.1650
11043TIP3    H154620   2.270   5.170   4.103  0.8486 -2.6996 -2.5173
11043TIP3    H254621   2.155   5.224   4.022 -0.2297  1.9229  1.8186
11044TIP3   OH254622   5.226   3.942   1.571  0.1007  0.0473 -0.0179
11044TIP3    H154623   5.143   3.988   1.567  0.3886  0.7338  1.6991
11044TIP3    H254624   5.292   4.009   1.558  0.4174 -0.3686 -0.5806
11045TIP3   OH254625   6.703   3.380  11.422 -0.2682 -0.0326 -0.3470
11045TIP3    H154626   6.748   3.455  11.462  1.0841 -0.2331 -1.4662
11045TIP3    H254627   6.664   3.334  11.496  0.4576  0.7517  0.5434
11046TIP3   OH254628   4.609   2.172  10.400 -0.2399 -0.1411 -0.0873
11046TIP3    H154629   4.623   2.078  10.416 -3.0156 -0.8277 -1.3853
11046TIP3    H254630   4.526   2.176  10.353 -0.0474  2.9834 -0.2533
11047TIP3   OH254631   6.797   6.481  15.368 -0.3408  0.7588  0.0896
11047TIP3    H154632   6.742   6.535  15.424 -1.3025  0.6630 -0.7435
11047TIP3    H254633   6.759   6.393  15.374 -1.2518  0.9910 -1.6775
11048TIP3   OH254634   1.459   3.510  12.846 -0.5684  0.0322  0.2174
11048TIP3    H154635   1.493   3.421  12.839  1.4095  0.8197 -0.7799
11048TIP3    H254636   1.364   3.501  12.840 -0.4142 -2.0518  0.7416
11049TIP3   OH254637   0.095   6.306  12.301  0.1881  0.6508 -0.2052
11049TIP3    H154638   0.019   6.331  12.355  0.4449  0.9192  0.0351
11049TIP3    H254639   0.112   6.215  12.324 -0.6104  0.3153 -0.9101
11050TIP3   OH254640   6.267   4.310  11.663 -0.1096 -0.2141 -0.1130
11050TIP3    H154641   6.203   4.336  11.597 -0.2125  0.6737  0.3264
11050TIP3    H254642   6.222   4.322  11.747  0.5228  0.1229  0.1832
11051TIP3   OH254643   2.382   4.482   0.723  0.3609  0.0377  0.2743
11051TIP3    H154644   2.459   4.435   0.691 -0.1978 -0.8941  0.2764
11051TIP3    H254645   2.353   4.431   0.800  1.2888  1.8521  1.8648
11052TIP3   OH254646   3.225   5.465   0.613 -0.1283  0.1681 -0.6331
11052TIP3    H154647   3.187   5.448   0.700  0.0255  0.9950 -0.3995
11052TIP3    H254648   3.153   5.502   0.563 -0.4323 -1.0495 -1.1073
11053TIP3   OH254649   6.348   6.248   1.700 -0.4555 -0.0529  0.0912
11053TIP3    H154650   6.320   6.292   1.620 -3.0769 -0.5670  0.6888
11053TIP3    H254651   6.313   6.301   1.771  0.1688 -0.6793  0.8802
11054TIP3   OH254652   1.752   1.887  11.152  0.1674 -0.2211  0.1125
11054TIP3    H154653   1.697   1.856  11.080  1.9925 -0.8483 -1.0315
11054TIP3    H254654   1.702   1.865  11.231 -1.0800 -1.0612 -0.8851
11055TIP3   OH254655   1.811   6.195   2.657 -0.6174 -0.3716  0.1110
11055TIP3    H154656   1.769   6.141   2.591 -0.7172  2.5474 -2.3344
11055TIP3    H254657   1.904   6.173   2.652 -0.9334 -1.8281  0.6376
11056TIP3   OH254658   2.967   4.207  16.161 -0.4213  0.3583 -0.1775
11056TIP3    H154659   2.910   4.283  16.151  1.1824  1.6405  0.0931
11056TIP3    H254660   3.052   4.236  16.128  0.1239 -1.4464 -0.4214
11057TIP3   OH254661   2.423   4.881  12.550  0.5433  0.3979 -0.1841
11057TIP3    H154662   2.497   4.920  12.597  0.1436  2.3413 -1.1000
11057TIP3    H254663   2.443   4.788  12.546  2.1958  0.6850  0.9166
11058TIP3   OH254664   5.962   3.870   1.130  0.5144 -0.1086 -0.2392
11058TIP3    H154665   5.942   3.782   1.099  1.0111  0.1077 -1.1977
11058TIP3    H254666   6.029   3.858   1.197 -1.0525 -0.6377  1.2348
11059TIP3   OH254667   2.716   2.996   3.078  0.1547 -0.2522  0.1995
11059TIP3    H154668   2.762   2.915   3.097  0.5407  0.0473  0.5492
11059TIP3    H254669   2.735   3.014   2.986 -2.0144 -1.8969 -0.6077
11060TIP3   OH254670   4.704   0.123   5.601  0.0860  0.3181  0.5312
11060TIP3    H154671   4.716   0.049   5.542 -0.7958  1.2873 -0.8871
11060TIP3    H254672   4.678   0.083   5.684  1.2404 -1.0458  0.2706
11061TIP3   OH254673   4.463   2.313  13.638  0.6622 -0.2261 -0.2027
11061TIP3    H154674   4.396   2.276  13.581  0.4348 -0.2377  0.0732
11061TIP3    H254675   4.478   2.245  13.705  4.2341 -2.2221 -2.8509
11062TIP3   OH254676   4.404   4.613   6.463  0.2143  0.1021 -0.3863
11062TIP3    H154677   4.357   4.653   6.536  1.1604  0.6305 -0.0438
11062TIP3    H254678   4.424   4.525   6.493  1.1646  0.5253  0.2754
11063TIP3   OH254679   2.771   3.503   4.922 -0.4471  0.3040  0.0960
11063TIP3    H154680   2.715   3.576   4.893  0.5832  0.7413 -0.8645
11063TIP3    H254681   2.787   3.521   5.015 -0.1488  1.3502 -0.1470
11064TIP3   OH254682   5.878   5.133  16.419  0.3652  0.2510  0.3098
11064TIP3    H154683   5.962   5.153  16.460 -0.1185  0.7821  1.0482
11064TIP3    H254684   5.826   5.212  16.432 -0.7230 -0.5877  1.0728
11065TIP3   OH254685   4.764   5.120  16.921 -0.0442 -0.9763  0.5888
11065TIP3    H154686   4.714   5.039  16.934 -0.4534 -0.4226  2.6540
11065TIP3    H254687   4.698   5.187  16.904  0.2043 -0.8158  0.2518
11066TIP3   OH254688   0.708   0.266   1.173 -0.1659  0.5874 -0.3863
11066TIP3    H154689   0.732   0.321   1.099  1.2566  0.6090  0.0633
11066TIP3    H254690   0.627   0.304   1.207 -0.3119  1.1406 -1.3555
11067TIP3   OH254691   1.705   2.267   5.725  0.2820 -0.2505  0.5768
11067TIP3    H154692   1.798   2.280   5.743  0.7221 -1.5953 -0.6668
11067TIP3    H254693   1.690   2.175   5.743 -0.7698 -0.0772  0.5900
11068TIP3   OH254694   4.352   1.348   1.383  0.9898 -0.0991  0.5468
11068TIP3    H154695   4.377   1.259   1.359  2.7099  0.3540  0.5921
11068TIP3    H254696   4.350   1.347   1.479  2.1526  0.1918  0.5857
11069TIP3   OH254697   2.684   0.127  12.456 -0.0509  0.1792 -0.2669
11069TIP3    H154698   2.683   0.034  12.435  0.1798  0.2997 -0.8176
11069TIP3    H254699   2.705   0.131  12.549  0.9249 -0.2779 -0.4666
11070TIP3   OH254700   0.334   0.642   3.223  0.7075 -0.2857 -0.8675
11070TIP3    H154701   0.388   0.583   3.275 -0.1999 -2.1547 -2.0080
11070TIP3    H254702   0.274   0.682   3.286  2.0888  0.3355  0.0874
11071TIP3   OH254703   2.011   1.584   1.270 -0.0510 -0.0340  0.2818
11071TIP3    H154704   1.988   1.601   1.361  0.7621 -0.8436  0.6490
11071TIP3    H254705   1.984   1.663   1.223 -0.7060  0.2807  1.1813
11072TIP3   OH254706   3.362   5.175  13.193  0.2649 -0.5883 -0.0295
11072TIP3    H154707   3.317   5.097  13.226 -0.6481 -0.0279  0.0642
11072TIP3    H254708   3.441   5.182  13.247  0.3072 -1.3961  0.0190
11073TIP3   OH254709   3.943   0.004   2.884  0.1899  0.6332 -0.2109
11073TIP3    H154710   3.936  -0.082   2.843 -0.6339  0.9919 -0.8549
11073TIP3    H254711   3.857   0.018   2.924 -0.2050  1.7940 -1.4140
11074TIP3   OH254712   3.971   0.823  17.029 -0.1609  0.9853  0.5235
11074TIP3    H154713   3.989   0.917  17.028  1.5279  0.6992 -1.2734
11074TIP3    H254714   3.894   0.812  16.974 -0.6285  1.3674  1.1058
11075TIP3   OH254715   4.594   0.144  15.719  0.3219 -0.2890 -0.1336
11075TIP3    H154716   4.625   0.103  15.638 -0.5656 -0.6679 -0.2861
11075TIP3    H254717   4.504   0.170  15.699  0.6520  1.1244  0.1853
11076TIP3   OH254718   0.323   0.649  13.160 -0.2387  0.8068  0.1641
11076TIP3    H154719   0.332   0.708  13.235  1.3688 -1.0268  1.4872
11076TIP3    H254720   0.342   0.562  13.196 -2.2671 -0.4905 -1.7865
11077TIP3   OH254721   4.758   6.419  11.727  0.9149  0.1031  0.5204
11077TIP3    H154722   4.848   6.426  11.694  1.2224 -0.4599  1.2326
11077TIP3    H254723   4.723   6.508  11.720  1.0924  0.0782 -0.9704
11078TIP3   OH254724   6.727   6.818   4.828 -0.4286  0.1552  0.1958
11078TIP3    H154725   6.711   6.849   4.917  0.2531 -0.3726  0.5167
11078TIP3    H254726   6.823   6.814   4.822 -0.4830 -2.5191  0.4169
11079TIP3   OH254727   6.113   4.025   2.324 -0.1165  0.3536  0.0424
11079TIP3    H154728   6.105   3.945   2.377 -0.2990  0.6391  0.4408
11079TIP3    H254729   6.033   4.025   2.270  1.8576 -2.0151 -3.0936
11080TIP3   OH254730   0.207   0.472   3.435  0.5468 -0.3668  0.2970
11080TIP3    H154731   0.149   0.432   3.371  0.3837 -0.7880  0.7005
11080TIP3    H254732   0.183   0.565   3.435  0.1028 -0.4814  0.2185
11081TIP3   OH254733   4.204   0.720   3.197  0.5455 -0.1072 -0.1761
11081TIP3    H154734   4.145   0.756   3.131  1.8261  1.3834 -0.5403
11081TIP3    H254735   4.248   0.648   3.153 -0.9173 -1.1732  0.0696
11082TIP3   OH254736   1.459   1.701   1.325  0.6356  0.1284  0.1336
11082TIP3    H154737   1.535   1.680   1.271 -0.2412  1.5659 -1.7333
11082TIP3    H254738   1.430   1.787   1.293 -0.4666  0.5840  2.2821
11083TIP3   OH254739   0.870   5.511  12.202 -1.0188 -0.6955  0.3036
11083TIP3    H154740   0.928   5.538  12.273 -0.1505  0.5385 -0.8512
11083TIP3    H254741   0.914   5.436  12.162  1.1501  1.7483 -2.1611
11084TIP3   OH254742   0.817   6.262  14.022  0.3308 -0.1497 -0.2955
11084TIP3    H154743   0.788   6.267  13.931 -1.5313  0.1154  0.2729
11084TIP3    H254744   0.758   6.198  14.062  1.6895 -0.8941  0.5198
11085TIP3   OH254745   5.710   2.383  16.048  0.0235 -0.5386 -0.3635
11085TIP3    H154746   5.699   2.302  15.997 -0.7389 -0.0722 -0.9355
11085TIP3    H254747   5.634   2.386  16.106  0.0001 -0.1826 -0.4131
11086TIP3   OH254748   4.238   2.649  17.152 -0.2014  0.1356 -0.2309
11086TIP3    H154749   4.160   2.594  17.141 -0.1775  0.1589 -0.5407
11086TIP3    H254750   4.298   2.617  17.084  0.4573 -0.5832  0.6706
11087TIP3   OH254751   2.749   4.799  12.979  0.1216 -0.2798 -0.1234
11087TIP3    H154752   2.820   4.856  12.949 -0.7910  1.3934  0.8011
11087TIP3    H254753   2.681   4.809  12.913 -0.9284  1.5137  1.1764
11088TIP3   OH254754   1.544   3.463  14.807 -0.1567  0.0636  0.3338
11088TIP3    H154755   1.529   3.441  14.899 -0.3356 -0.6044  0.1494
11088TIP3    H254756   1.490   3.402  14.758  1.2055 -0.6938 -0.2680
11089TIP3   OH254757   3.513   1.473  16.295  0.1004  0.1644 -0.2012
11089TIP3    H154758   3.434   1.442  16.338  1.0519 -0.7352  0.9396
11089TIP3    H254759   3.516   1.567  16.314  0.0598 -0.0721  0.9707
11090TIP3   OH254760   6.784   6.034   4.969  0.0595  0.2328  0.2025
11090TIP3    H154761   6.786   6.062   5.060 -0.4644  2.1632 -0.3531
11090TIP3    H254762   6.702   6.070   4.935 -0.3987 -1.5992 -0.6960
11091TIP3   OH254763   5.851   4.892  12.245 -0.3989  0.5559 -0.5726
11091TIP3    H154764   5.792   4.877  12.171 -0.6999  2.3391 -0.7135
11091TIP3    H254765   5.891   4.977  12.227 -0.1064  0.7814  1.0667
11092TIP3   OH254766   0.348   4.647  14.927  0.4853 -0.2082 -0.0674
11092TIP3    H154767   0.371   4.740  14.930  1.1320 -0.3673  0.2024
11092TIP3    H254768   0.264   4.641  14.972  0.4185  0.2569 -0.1348
11093TIP3   OH254769   4.062   5.648  16.420 -0.3549  0.0242  0.2155
11093TIP3    H154770   3.984   5.671  16.369 -1.2933 -1.6294  0.8831
11093TIP3    H254771   4.059   5.707  16.496 -0.4246  0.6198 -0.2449
11094TIP3   OH254772   4.788   5.731   5.628 -0.0112 -0.3924  0.3242
11094TIP3    H154773   4.829   5.744   5.714 -1.5781 -2.8638  1.5141
11094TIP3    H254774   4.855   5.688   5.575  1.0277  1.3074  0.2386
11095TIP3   OH254775   2.842   1.597   2.560  0.6123 -0.8847  0.8519
11095TIP3    H154776   2.788   1.545   2.502 -2.3534  0.3242  2.4177
11095TIP3    H254777   2.867   1.537   2.630 -0.2008 -1.0181  1.0307
11096TIP3   OH254778   0.925   2.872  14.882  0.4383  0.3211 -0.5177
11096TIP3    H154779   0.878   2.789  14.878 -1.0926  1.1834 -0.8576
11096TIP3    H254780   0.932   2.891  14.976  1.6854 -0.6663 -0.3942
11097TIP3   OH254781   2.384   1.974  16.371 -0.1013 -0.1994 -0.7248
11097TIP3    H154782   2.305   2.002  16.323 -0.5983 -1.0055 -0.3892
11097TIP3    H254783   2.351   1.917  16.441  0.7010  0.2495  0.0251
11098TIP3   OH254784   3.363   3.563   2.603  0.3234  0.3268  0.5729
11098TIP3    H154785   3.323   3.649   2.596 -0.4358  0.0392  1.2942
11098TIP3    H254786   3.340   3.518   2.522  0.7728  0.8178  0.1697
11099TIP3   OH254787   6.536   2.960   5.081  0.1188 -0.2407  0.0435
11099TIP3    H154788   6.465   3.002   5.034 -0.8731 -2.6685 -0.6988
11099TIP3    H254789   6.499   2.878   5.114  2.1654 -0.8949  0.8572
11100TIP3   OH254790   4.182   4.471   4.646  0.1382 -0.5969 -0.3557
11100TIP3    H154791   4.158   4.562   4.665  1.4367  0.4792 -3.5115
11100TIP3    H254792   4.100   4.422   4.655 -0.7872  1.0359  0.3368
11101TIP3   OH254793   6.331   0.429   1.870 -0.5306  0.2803 -0.0779
11101TIP3    H154794   6.279   0.386   1.938 -1.5462  0.0338 -0.9956
11101TIP3    H254795   6.309   0.522   1.879 -0.2218  0.3189  0.3005
11102TIP3   OH254796   5.265   3.300  11.787  0.1385  0.4958  0.3603
11102TIP3    H154797   5.279   3.329  11.697  0.6539  1.6272  0.8021
11102TIP3    H254798   5.336   3.237  11.803  1.1112  1.6304  0.5575
11103TIP3   OH254799   1.190   0.701   0.800 -0.1211 -0.1269 -0.0976
11103TIP3    H154800   1.158   0.790   0.783  0.0090  0.1381  1.0732
11103TIP3    H254801   1.165   0.683   0.890 -0.5283 -1.4483 -0.4643
11104TIP3   OH254802   4.560   0.737  14.585 -0.2253 -0.0062 -0.4716
11104TIP3    H154803   4.490   0.777  14.533  1.4779  0.4615 -2.4714
11104TIP3    H254804   4.517   0.710  14.666 -2.6700  0.4599 -1.5637
11105TIP3   OH254805   1.260   3.025  13.002  0.0832  0.1139 -0.1481
11105TIP3    H154806   1.256   3.075  12.921  2.0430 -1.5764 -1.3265
11105TIP3    H254807   1.236   2.936  12.977  2.6030 -0.8495  0.6984
11106TIP3   OH254808   5.970   0.931   1.149  0.2944  0.1266 -0.1391
11106TIP3    H154809   6.045   0.979   1.113  1.9720 -3.0716 -1.0450
11106TIP3    H254810   5.916   0.910   1.073  0.5640 -1.0780 -0.0039
11107TIP3   OH254811   4.609   6.125   1.844 -0.5387  0.2558 -0.4717
11107TIP3    H154812   4.633   6.075   1.922  1.7770  1.4344 -0.3983
11107TIP3    H254813   4.590   6.213   1.877 -2.3458  0.0398 -0.8922
11108TIP3   OH254814   6.512   5.826  16.470 -0.3201 -0.2343  0.3417
11108TIP3    H154815   6.566   5.757  16.432 -0.2063  0.1592 -0.2123
11108TIP3    H254816   6.531   5.822  16.564  1.8813  0.9469 -0.0131
11109TIP3   OH254817   3.968   1.673  11.788 -0.1532 -0.3345  0.4045
11109TIP3    H154818   3.915   1.662  11.709  0.6247  0.5475 -0.2570
11109TIP3    H254819   4.017   1.754  11.773  0.3854 -0.4299  1.5753
11110TIP3   OH254820   0.690   2.498   4.691 -0.1517 -0.0890 -0.3759
11110TIP3    H154821   0.702   2.533   4.779  2.4963 -0.3565 -0.5980
11110TIP3    H254822   0.672   2.404   4.704  2.7655 -0.6654 -0.1778
11111TIP3   OH254823   6.257   5.562   5.826  0.4411  0.1513  0.2666
11111TIP3    H154824   6.164   5.560   5.807  0.2643  2.6085  0.6654
11111TIP3    H254825   6.299   5.578   5.741  0.5322 -1.1939  0.0497
11112TIP3   OH254826   5.374   1.512  14.747 -0.4279 -0.1691 -0.2478
11112TIP3    H154827   5.363   1.575  14.818  0.5580 -0.7089  0.3971
11112TIP3    H254828   5.289   1.469  14.739 -0.3308 -0.6155  1.0840
11113TIP3   OH254829   2.175   6.138   6.016 -0.0951 -0.4741  0.3490
11113TIP3    H154830   2.138   6.109   6.100 -1.3341  1.5226  0.5385
11113TIP3    H254831   2.106   6.119   5.952 -0.9722  2.1108  0.4993
11114TIP3   OH254832   2.955   2.382   2.207  0.7015 -0.7647  0.3503
11114TIP3    H154833   3.021   2.318   2.179  0.3712 -0.7985 -0.3731
11114TIP3    H254834   2.880   2.329   2.232  0.9161 -0.7223  1.1019
11115TIP3   OH254835   4.783   4.349   1.594  0.1682  0.3532 -0.1056
11115TIP3    H154836   4.692   4.372   1.577  0.6495  0.7601 -2.2747
11115TIP3    H254837   4.829   4.433   1.596  0.9028  0.0044 -1.6729
11116TIP3   OH254838   4.227   6.653  14.831 -0.3890  0.5818  0.2679
11116TIP3    H154839   4.270   6.736  14.810 -1.9880  1.4849  0.5334
11116TIP3    H254840   4.274   6.588  14.777  1.0240  1.5979  0.2421
11117TIP3   OH254841   6.583   3.886  16.020 -0.3827  0.4188 -0.4268
11117TIP3    H154842   6.624   3.812  16.066 -1.8660 -0.9120 -1.2124
11117TIP3    H254843   6.629   3.890  15.936 -2.3241 -1.5528 -1.6153
11118TIP3   OH254844   1.610   0.599  14.340 -0.5760  0.2940 -0.5649
11118TIP3    H154845   1.631   0.549  14.261 -1.4423  0.5720 -0.9746
11118TIP3    H254846   1.588   0.686  14.308 -1.8330  0.1590 -0.1090
11119TIP3   OH254847   2.925   5.630  11.458 -0.0394 -0.4370 -0.1973
11119TIP3    H154848   2.885   5.694  11.517  0.6467  0.4946 -0.7403
11119TIP3    H254849   2.875   5.637  11.377  0.7225  0.2084 -0.6278
11120TIP3   OH254850   1.304   4.402   2.420 -0.3472  0.2655 -0.5305
11120TIP3    H154851   1.378   4.371   2.368  0.3597  0.8547  0.1062
11120TIP3    H254852   1.287   4.491   2.388 -0.9918  0.0069 -0.9054
11121TIP3   OH254853   4.463   3.090  13.496  0.1824  0.1513  0.2121
11121TIP3    H154854   4.484   2.997  13.508 -0.1344 -0.1700 -1.5856
11121TIP3    H254855   4.368   3.091  13.481  0.3246  0.6443 -0.7207
11122TIP3   OH254856   6.116   4.329   5.691 -0.1945 -0.8907 -0.2402
11122TIP3    H154857   6.165   4.319   5.609  0.3026  0.8313 -0.1669
11122TIP3    H254858   6.025   4.336   5.663 -0.0641 -0.6654 -0.6188
11123TIP3   OH254859   1.409   4.518  11.967 -0.1725 -0.2187  0.0800
11123TIP3    H154860   1.427   4.598  12.017 -2.8822  0.0687  0.6642
11123TIP3    H254861   1.488   4.505  11.913  1.4135  1.3166  1.9554
11124TIP3   OH254862   5.343   3.857   3.729  0.5397  0.3282  0.2347
11124TIP3    H154863   5.264   3.806   3.708  0.0184  1.1735  0.1201
11124TIP3    H254864   5.373   3.820   3.812 -0.9555  1.1088  1.1561
11125TIP3   OH254865   5.036   3.304  13.377 -0.5362 -0.6134  0.5422
11125TIP3    H154866   5.085   3.265  13.449  2.5663 -0.7207 -1.5279
11125TIP3    H254867   5.004   3.229  13.326 -0.3533 -0.5322  0.3043
11126TIP3   OH254868   6.812   4.772  15.920  0.0821  0.0883 -0.0901
11126TIP3    H154869   6.898   4.804  15.949 -0.8285  0.7069  2.0566
11126TIP3    H254870   6.781   4.839  15.859  0.4441  0.7015  0.3883
11127TIP3   OH254871   4.465   2.076   5.464  0.3306  0.5781  0.6427
11127TIP3    H154872   4.487   2.150   5.520 -0.4447  2.6044 -1.6226
11127TIP3    H254873   4.531   2.079   5.394 -0.4987 -0.0506 -0.1773
11128TIP3   OH254874   0.909   1.499   4.512  0.1135 -0.2773  0.0632
11128TIP3    H154875   0.873   1.455   4.589  0.1357  0.4466  0.4899
11128TIP3    H254876   0.857   1.466   4.439 -1.1336  0.4013  0.6235
11129TIP3   OH254877   4.076   2.511   5.387 -0.2955  0.2125 -0.0612
11129TIP3    H154878   4.028   2.462   5.321  0.7428  0.5103 -1.0456
11129TIP3    H254879   4.153   2.458   5.405  0.0799  0.7676 -0.0373
11130TIP3   OH254880   1.016   1.342  13.341 -0.8407 -0.3403 -0.1893
11130TIP3    H154881   0.996   1.421  13.290 -0.5264 -0.6072 -0.7280
11130TIP3    H254882   1.028   1.274  13.275  0.2013 -0.5485  0.2121
11131TIP3   OH254883   2.617   1.882   4.529  0.6455  0.6596 -0.1778
11131TIP3    H154884   2.590   1.862   4.619  2.5569  1.7842  0.6952
11131TIP3    H254885   2.552   1.839   4.474 -0.7456  0.2130  1.7505
11132TIP3   OH254886   1.017   3.493   0.398 -0.4468 -0.3446  0.5532
11132TIP3    H154887   1.104   3.455   0.386 -0.4475 -0.1918  0.0409
11132TIP3    H254888   0.985   3.509   0.309 -0.0568  1.7395  0.7468
11133TIP3   OH254889   0.349   2.885   3.451  0.0374  0.4470 -0.1916
11133TIP3    H154890   0.301   2.954   3.405 -3.0745  0.5896  3.0649
11133TIP3    H254891   0.295   2.807   3.440  0.2977  0.0221  1.4357
11134TIP3   OH254892   5.190   5.963   0.941 -0.2099  0.1631 -0.2111
11134TIP3    H154893   5.113   6.020   0.942 -0.1915  0.2522 -2.0441
11134TIP3    H254894   5.205   5.942   1.033 -1.1393  1.8718  0.3553
11135TIP3   OH254895   4.032   0.064  16.158 -0.4404  0.3291 -0.3089
11135TIP3    H154896   4.113   0.017  16.177 -0.9975 -0.0163  1.3475
11135TIP3    H254897   4.060   0.152  16.135  0.4748 -0.1188 -0.9156
11136TIP3   OH254898   2.899   3.871  14.421  0.0918  0.2437  0.1068
11136TIP3    H154899   2.882   3.959  14.386 -0.3543 -0.3609 -1.2078
11136TIP3    H254900   2.812   3.834  14.434  0.2914 -0.1868  0.2008
11137TIP3   OH254901   5.451   1.195  17.009  0.1585 -0.2237  0.0122
11137TIP3    H154902   5.492   1.238  17.084  1.3746 -0.2524 -0.6249
11137TIP3    H254903   5.487   1.239  16.932 -1.5501  0.2319 -0.5669
11138TIP3   OH254904   6.372   1.661   2.652  0.2174 -0.5883 -0.1032
11138TIP3    H154905   6.359   1.592   2.588 -0.2903  0.5071 -1.1884
11138TIP3    H254906   6.287   1.671   2.695  0.2461 -0.5104 -0.0628
11139TIP3   OH254907   2.130   0.414   2.032  0.3549  1.3359  0.2442
11139TIP3    H154908   2.129   0.376   1.945  1.0944  2.8617 -0.4548
11139TIP3    H254909   2.179   0.351   2.085 -1.1945 -0.2084 -0.1304
11140TIP3   OH254910   3.622   5.125  11.203  0.6709  0.2613 -0.2062
11140TIP3    H154911   3.665   5.047  11.238 -0.3000 -0.4647 -0.6074
11140TIP3    H254912   3.654   5.131  11.113  0.2686 -0.0433 -0.3742
11141TIP3   OH254913   5.697   5.483   0.811  0.4668  0.4920 -0.0670
11141TIP3    H154914   5.768   5.535   0.774 -1.0910  1.6715 -1.4097
11141TIP3    H254915   5.617   5.527   0.783 -0.8108 -0.5427  1.8411
11142TIP3   OH254916   1.435   1.206   0.331 -0.0248 -0.3066 -0.7681
11142TIP3    H154917   1.454   1.186   0.239  1.1819 -0.0362 -0.5886
11142TIP3    H254918   1.341   1.224   0.333  0.0317  0.1837 -2.0390
11143TIP3   OH254919   6.721   3.875   1.079 -0.1957 -0.0901 -0.4215
11143TIP3    H154920   6.693   3.819   1.152  0.9154  0.3082  0.3281
11143TIP3    H254921   6.728   3.815   1.005 -0.7172 -0.6210 -0.0509
11144TIP3   OH254922   0.620   4.983   5.998  0.2471  0.2558  0.2042
11144TIP3    H154923   0.707   4.947   5.981 -0.3865 -0.9651 -0.5926
11144TIP3    H254924   0.573   4.912   6.042 -1.4159 -0.4253 -2.5057
11145TIP3   OH254925   0.692   0.801   3.671 -0.1663 -0.4697 -0.5002
11145TIP3    H154926   0.768   0.758   3.709 -0.1915 -0.2802 -0.2376
11145TIP3    H254927   0.729   0.870   3.615 -0.1708  0.3525  0.5014
11146TIP3   OH254928   6.611   6.611  15.719  0.3149 -0.8633  0.0369
11146TIP3    H154929   6.686   6.670  15.723  0.2763 -0.8595  0.8250
11146TIP3    H254930   6.535   6.666  15.739  0.3000 -1.2109  0.9731
11147TIP3   OH254931   0.763   6.492  15.981  0.0146 -0.6481  0.1610
11147TIP3    H154932   0.756   6.536  15.897  0.0179  1.8963  1.4363
11147TIP3    H254933   0.840   6.437  15.974  0.5011  0.2054 -1.2115
11148TIP3   OH254934   6.403   0.879   3.161 -0.0457 -0.0370  0.1746
11148TIP3    H154935   6.339   0.836   3.219 -1.8678  0.7465 -1.2045
11148TIP3    H254936   6.483   0.828   3.172 -1.0926 -1.4665  1.4290
11149TIP3   OH254937   1.625   1.675   2.268 -0.3088 -0.0855 -0.0735
11149TIP3    H154938   1.590   1.636   2.188 -0.8673  0.1017  0.0813
11149TIP3    H254939   1.605   1.611   2.336 -0.2207 -0.0423 -0.0070
11150TIP3   OH254940   5.925   3.030   3.295 -0.1524  0.2967 -0.1029
11150TIP3    H154941   5.840   3.016   3.253 -0.6685  0.3021  0.9229
11150TIP3    H254942   5.948   3.120   3.271  0.2300 -0.1526 -1.5210
11151TIP3   OH254943   4.185   0.827  11.619  0.3165  0.1647  0.0140
11151TIP3    H154944   4.213   0.809  11.529 -1.1937  2.8585 -1.0635
11151TIP3    H254945   4.253   0.884  11.654 -0.5848  1.5707 -0.4734
11152TIP3   OH254946   0.936   3.625  12.772 -0.0977  0.0523 -0.2063
11152TIP3    H154947   0.894   3.539  12.763 -1.6799  0.8085 -0.2571
11152TIP3    H254948   0.930   3.664  12.684 -0.2379  0.5896  0.0371
11153TIP3   OH254949   0.713   2.759   5.581 -0.6443  0.0710  0.4560
11153TIP3    H154950   0.700   2.799   5.667  0.3268 -0.9954  1.1047
11153TIP3    H254951   0.624   2.738   5.551 -0.9190 -0.5538  1.6831
11154TIP3   OH254952   3.723   3.620   5.903 -0.2023  0.4681  0.1846
11154TIP3    H154953   3.678   3.553   5.852 -0.0659  0.2547  0.3420
11154TIP3    H254954   3.658   3.689   5.918 -0.7723 -0.3019  1.2892
11155TIP3   OH254955   0.610   6.240  11.948  0.3560 -0.2441 -0.1140
11155TIP3    H154956   0.659   6.173  11.902  0.3531 -0.1011 -0.3238
11155TIP3    H254957   0.522   6.203  11.957 -0.0614  0.3682 -1.5942
11156TIP3   OH254958   3.885   1.118   6.581  0.1803 -0.0016  0.3594
11156TIP3    H154959   3.905   1.195   6.634 -1.5400  1.4772 -1.0706
11156TIP3    H254960   3.872   1.048   6.645 -2.2282  1.8302  1.9746
11157TIP3   OH254961   2.879   3.878   5.863 -0.3535  0.6128 -0.8105
11157TIP3    H154962   2.928   3.933   5.925 -2.4592  2.3440 -0.6393
11157TIP3    H254963   2.831   3.817   5.919 -1.1868  1.2768 -0.7983
11158TIP3   OH254964   6.640   0.807   0.459  0.1716  0.0319  1.0186
11158TIP3    H154965   6.704   0.784   0.527  3.0877  5.0106  0.2380
11158TIP3    H254966   6.594   0.883   0.495 -0.6443  0.5846 -1.1262
11159TIP3   OH254967   4.931   1.369  11.196 -0.7182 -0.3434 -0.2734
11159TIP3    H154968   4.929   1.427  11.273 -0.3584 -0.7522  0.0500
11159TIP3    H254969   4.980   1.418  11.131 -1.4963  0.2305 -0.4277
11160TIP3   OH254970   1.990   1.685  12.051 -0.2811  0.2320  0.3690
11160TIP3    H154971   1.962   1.701  12.142 -0.1346 -0.1567  0.4825
11160TIP3    H254972   2.033   1.600  12.054  1.3027  1.0226  0.2729
11161TIP3   OH254973   1.916   3.308   0.590 -0.4622 -0.2641  0.2730
11161TIP3    H154974   1.857   3.372   0.550 -1.4987  0.1901  2.4513
11161TIP3    H254975   1.934   3.246   0.520 -0.1081  1.9358 -1.6487
11162TIP3   OH254976   6.599   2.336   3.396  0.1002  0.4798 -0.0084
11162TIP3    H154977   6.605   2.421   3.439  0.2263  0.7710 -0.5970
11162TIP3    H254978   6.689   2.316   3.370 -0.1965  1.0261 -1.5099
11163TIP3   OH254979   4.433   4.215   3.575 -1.4235  0.3960  0.2017
11163TIP3    H154980   4.512   4.251   3.615 -1.7173 -0.3459  1.4758
11163TIP3    H254981   4.460   4.188   3.487 -0.4847  0.9697  0.3128
11164TIP3   OH254982   3.634   6.006   1.153  0.3892  0.2414 -0.2438
11164TIP3    H154983   3.586   6.046   1.080  1.9387 -0.8113 -1.9009
11164TIP3    H254984   3.577   5.935   1.183  1.7300 -2.4058 -3.6136
11165TIP3   OH254985   4.808   2.693  13.618  0.2024  0.2910  0.5374
11165TIP3    H154986   4.874   2.628  13.642  2.6496  1.3942 -2.9011
11165TIP3    H254987   4.748   2.647  13.560 -1.1820 -0.2383  2.3100
11166TIP3   OH254988   6.318   3.110  11.245  0.3400  0.1951 -0.3980
11166TIP3    H154989   6.406   3.076  11.232  0.8110  2.1838 -2.6116
11166TIP3    H254990   6.331   3.199  11.277 -0.8967 -0.6998  2.7768
11167TIP3   OH254991   1.223   3.773   2.866 -0.3202 -0.5804 -0.2876
11167TIP3    H154992   1.166   3.772   2.789 -0.3873 -0.7346 -0.2365
11167TIP3    H254993   1.257   3.683   2.872  0.1661 -0.4087 -0.4950
11168TIP3   OH254994   2.995   2.067  15.277  0.1253  0.5903 -0.3056
11168TIP3    H154995   3.086   2.068  15.306 -0.0773  1.2666  0.3233
11168TIP3    H254996   2.944   2.081  15.357 -0.5380  0.0359 -0.6282
11169TIP3   OH254997   0.501   6.727   4.166  0.1342  0.0281  0.9043
11169TIP3    H154998   0.563   6.667   4.206  0.3386 -1.4423 -1.5071
11169TIP3    H254999   0.416   6.685   4.176  0.1716 -0.2980 -0.0323
11170TIP3   OH255000   5.030   6.104   5.077  0.8860 -0.2191  0.2429
11170TIP3    H155001   5.028   6.195   5.107 -1.3071 -0.1480 -0.0730
11170TIP3    H255002   4.996   6.106   4.988  0.8992 -1.3454  0.1970
11171TIP3   OH255003   1.541   0.871  11.969 -0.2067  0.0578 -0.0143
11171TIP3    H155004   1.632   0.893  11.988 -0.0108 -0.5493 -0.2155
11171TIP3    H255005   1.493   0.953  11.979  0.1459  0.1054  1.4758
11172TIP3   OH255006   2.823   4.744   1.423  0.1138 -0.4962  0.1192
11172TIP3    H155007   2.783   4.669   1.378  0.8254  1.3697 -3.7945
11172TIP3    H255008   2.910   4.713   1.447 -0.8717 -2.0688  1.8923
11173TIP3   OH255009   4.962   2.667  16.790 -0.0471 -0.3906 -0.6292
11173TIP3    H155010   4.965   2.618  16.873  0.4001 -0.3810 -0.6369
11173TIP3    H255011   4.944   2.757  16.816 -0.0253 -0.4092 -0.5488
11174TIP3   OH255012   0.377   5.045  12.547  0.0629  0.3849 -0.4551
11174TIP3    H155013   0.298   5.003  12.512  2.3809 -3.8783 -0.9375
11174TIP3    H255014   0.443   5.033  12.478  2.1750  0.3247  1.5140
11175TIP3   OH255015   3.864   5.509  14.981 -0.2375  0.3286  0.0453
11175TIP3    H155016   3.812   5.589  14.981 -0.9411 -0.1019  1.3382
11175TIP3    H255017   3.833   5.460  14.905  0.9890  1.7640 -1.4188
11176TIP3   OH255018   2.219   3.859   4.931 -0.4405  0.0801  0.5448
11176TIP3    H155019   2.125   3.838   4.936 -0.9757  1.4824 -2.3206
11176TIP3    H255020   2.259   3.781   4.894 -0.5763 -0.2861  1.1667
11177TIP3   OH255021   3.429   5.391  14.717 -0.0471 -0.4658  0.6541
11177TIP3    H155022   3.467   5.310  14.685 -1.2038 -1.1863  1.0582
11177TIP3    H255023   3.387   5.430  14.640  2.0064  0.6320  0.0793
11178TIP3   OH255024   0.306   1.153   1.622 -0.6254 -0.0732  0.0522
11178TIP3    H155025   0.278   1.062   1.612 -0.0416 -0.2255 -0.1940
11178TIP3    H255026   0.337   1.179   1.535  1.6423 -0.4533  0.7150
11179TIP3   OH255027   0.457   0.188  15.940  0.5300  0.4795  0.1735
11179TIP3    H155028   0.514   0.265  15.946  1.1187 -0.0547  1.9507
11179TIP3    H255029   0.371   0.224  15.918  1.4615  1.3308 -2.1890
11180TIP3   OH255030   0.418   3.413  16.386  0.2349 -0.2272  0.0268
11180TIP3    H155031   0.427   3.464  16.306  1.1480 -1.7291 -0.8704
11180TIP3    H255032   0.485   3.345  16.379  0.2560 -0.4644  2.0141
11181TIP3   OH255033   5.614   0.891  11.400 -0.7826 -0.0705  0.0544
11181TIP3    H155034   5.636   0.891  11.307 -0.8594 -0.0341  0.0363
11181TIP3    H255035   5.549   0.961  11.410  1.2550  1.7800  0.6314
11182TIP3   OH255036   0.971   2.874  15.172  0.2457 -0.1185 -0.1182
11182TIP3    H155037   0.900   2.899  15.232 -0.2046  0.4012 -0.8512
11182TIP3    H255038   1.002   2.790  15.205 -0.3362 -0.0766  0.5489
11183TIP3   OH255039   6.363   0.307  16.324 -0.3958  0.0113  0.0891
11183TIP3    H155040   6.280   0.264  16.344 -0.1342 -0.3348  0.4328
11183TIP3    H255041   6.340   0.399  16.310 -1.0105 -0.2981 -1.0151
11184TIP3   OH255042   4.352   0.143  13.101  0.0320  0.2755 -0.3433
11184TIP3    H155043   4.377   0.172  13.013 -0.3779 -0.8101 -0.8211
11184TIP3    H255044   4.436   0.127  13.145  0.2370  0.6500 -0.5898
11185TIP3   OH255045   5.583   3.555  15.481  0.4864  0.5509  0.2609
11185TIP3    H155046   5.626   3.635  15.509  2.3183  0.5917 -2.4673
11185TIP3    H255047   5.490   3.572  15.494  0.8337  3.1932 -0.4608
11186TIP3   OH255048   2.853   1.249   3.369 -0.3655 -1.1441 -0.0546
11186TIP3    H155049   2.769   1.251   3.323 -1.4599  0.2034  1.9015
11186TIP3    H255050   2.891   1.335   3.353  0.1089 -1.3421  0.0086
11187TIP3   OH255051   1.126   2.089   4.333 -0.0550  0.4667 -0.3897
11187TIP3    H155052   1.045   2.124   4.296 -0.1052 -0.1829 -0.9078
11187TIP3    H255053   1.153   2.021   4.271  0.1529 -0.2577  0.4794
11188TIP3   OH255054   4.315   3.962  11.346 -0.1992 -0.1335 -0.5204
11188TIP3    H155055   4.395   4.011  11.364 -1.2434  0.7704  1.7701
11188TIP3    H255056   4.330   3.923  11.259  3.3517 -1.2550  0.4939
11189TIP3   OH255057   3.164   5.042   2.805  0.1933  0.1610  0.0258
11189TIP3    H155058   3.204   4.983   2.742 -0.1238 -1.3640  1.2418
11189TIP3    H255059   3.238   5.083   2.850  0.4641 -2.2461  1.8933
11190TIP3   OH255060   0.600   3.228  16.363  0.0708 -0.1395 -0.6264
11190TIP3    H155061   0.659   3.256  16.433 -2.2399  2.1537  0.4707
11190TIP3    H255062   0.570   3.141  16.390  0.0425  0.2667  0.6629
11191TIP3   OH255063   2.451   0.963   4.726  0.0987 -0.1289  0.6369
11191TIP3    H155064   2.380   1.008   4.679  1.2885  0.4016 -0.6815
11191TIP3    H255065   2.406   0.896   4.778 -1.6655  2.0041  2.0254
11192TIP3   OH255066   6.035   0.839  13.353 -0.3185 -0.4490  0.2777
11192TIP3    H155067   5.962   0.863  13.410 -2.5026 -1.2694 -2.0957
11192TIP3    H255068   6.015   0.881  13.269  3.0031  1.0154  0.1378
11193TIP3   OH255069   2.843   2.699  11.700  0.1048 -0.0614 -0.0549
11193TIP3    H155070   2.891   2.617  11.688 -0.5280 -0.4187 -0.1698
11193TIP3    H255071   2.835   2.708  11.795 -0.9521 -0.8079 -0.0571
11194TIP3   OH255072   3.966   0.134   6.175  0.2652 -0.1429 -0.6176
11194TIP3    H155073   3.960   0.223   6.210  1.7688  0.3260 -1.4952
11194TIP3    H255074   3.943   0.078   6.248  0.6065  0.9333  0.3348
11195TIP3   OH255075   1.927   3.333   0.068  0.1123 -0.6359  0.8876
11195TIP3    H155076   1.971   3.248   0.058 -0.9001 -1.0317 -0.4036
11195TIP3    H255077   1.834   3.311   0.078 -0.3677  0.3617 -1.0833
11196TIP3   OH255078   3.731   2.699   0.394  0.3581 -0.5989  0.2072
11196TIP3    H155079   3.763   2.631   0.334 -0.5312  0.4934 -1.5274
11196TIP3    H255080   3.651   2.732   0.353 -1.5039 -1.3431  3.0824
11197TIP3   OH255081   2.913   3.784   1.668 -0.1470  0.2579 -0.2674
11197TIP3    H155082   2.963   3.743   1.597 -2.5577  0.5513 -2.2146
11197TIP3    H255083   2.822   3.783   1.637 -0.8506  3.1928  1.4968
11198TIP3   OH255084   1.449   6.202   4.225 -0.5287 -0.1885  0.2096
11198TIP3    H155085   1.541   6.185   4.205 -0.6570  0.8114 -1.2297
11198TIP3    H255086   1.451   6.261   4.301 -0.0039 -0.5608  0.4857
11199TIP3   OH255087   2.693   6.518   6.163  0.2443  0.5457  0.4560
11199TIP3    H155088   2.643   6.436   6.166  1.5939 -0.2557  1.4939
11199TIP3    H255089   2.751   6.508   6.087 -1.0539  1.4313 -0.6833
11200TIP3   OH255090   2.798   6.536   0.592 -0.1400 -0.0687 -0.4727
11200TIP3    H155091   2.874   6.593   0.576  0.7830 -1.0529  0.3544
11200TIP3    H255092   2.730   6.570   0.533  1.0101  0.6828 -1.3936
11201TIP3   OH255093   2.730   5.800  12.125  0.0816 -0.3516 -0.1257
11201TIP3    H155094   2.707   5.757  12.207  0.0482 -1.1786 -0.5613
11201TIP3    H255095   2.700   5.890  12.135  0.3118 -0.3865  0.8666
11202TIP3   OH255096   2.054   2.611  16.616 -0.1534 -0.3050  0.6714
11202TIP3    H155097   2.139   2.587  16.653 -0.4352 -2.4325  0.0146
11202TIP3    H255098   2.024   2.531  16.573 -1.7522  0.9063 -0.4897
11203TIP3   OH255099   5.957   3.502  12.674 -0.2855 -0.2958 -0.1394
11203TIP3    H155100   5.887   3.478  12.613  0.4493 -0.0336 -1.0996
11203TIP3    H255101   5.967   3.597  12.664  2.4567 -0.7651 -2.4774
11204TIP3   OH255102   5.445   4.280   2.523  0.2856 -0.0106  0.0979
11204TIP3    H155103   5.456   4.247   2.612 -0.1770 -2.2452 -0.6491
11204TIP3    H255104   5.533   4.306   2.495  0.3634  1.1469  1.3491
11205TIP3   OH255105   0.059   1.010   0.069 -0.3568 -0.2421  0.2975
11205TIP3    H155106   0.146   1.044   0.088  1.2054 -2.3636 -2.6102
11205TIP3    H255107   0.039   1.042  -0.018 -1.4101 -1.8103 -0.0559
11206TIP3   OH255108   0.816   2.669   2.003  0.5678  0.0393  0.2213
11206TIP3    H155109   0.843   2.643   1.915 -0.3137  2.2258 -0.7237
11206TIP3    H255110   0.895   2.705   2.043  0.5113  0.8289 -0.3721
11207TIP3   OH255111   5.172   1.101   1.074  0.5078 -0.6822 -0.1117
11207TIP3    H155112   5.229   1.107   0.997  1.0931  1.3401  0.4327
11207TIP3    H255113   5.215   1.037   1.130  2.5935  1.1902  0.5185
11208TIP3   OH255114   4.711   1.199  16.684  0.7492 -0.8356 -0.3412
11208TIP3    H155115   4.710   1.292  16.707 -0.0641 -0.7524 -0.6831
11208TIP3    H255116   4.800   1.171  16.703  0.8512 -0.1183  0.2980
11209TIP3   OH255117   2.450   2.720  16.182 -1.0558  0.0844  0.2711
11209TIP3    H155118   2.521   2.781  16.162  1.1283 -2.1919  0.8579
11209TIP3    H255119   2.449   2.715  16.277 -1.6556 -0.3229  0.2447
11210TIP3   OH255120   4.359   4.953  17.120 -0.0348  0.0343  0.6690
11210TIP3    H155121   4.432   4.902  17.156  0.1313 -0.8484 -0.8725
11210TIP3    H255122   4.401   5.014  17.059 -0.5640 -0.3360 -0.0664
11211TIP3   OH255123   2.878   5.484  14.643 -0.1296 -0.5441 -0.6021
11211TIP3    H155124   2.795   5.532  14.646 -0.7680 -1.6121 -0.6360
11211TIP3    H255125   2.852   5.394  14.623  1.0936 -0.7651 -1.2409
11212TIP3   OH255126   5.414   3.884  17.182  0.3487 -0.2361  0.1506
11212TIP3    H155127   5.433   3.976  17.163  0.1673 -0.1486  0.3928
11212TIP3    H255128   5.486   3.836  17.141 -1.2175 -0.2157 -2.7246
11213TIP3   OH255129   0.028   3.784   3.383 -0.1683 -0.3286 -0.1953
11213TIP3    H155130   0.120   3.766   3.362 -0.5591 -3.2762  0.3815
11213TIP3    H255131  -0.004   3.834   3.309  1.1852 -1.6846 -1.7399
11214TIP3   OH255132   1.000   2.858  15.786 -0.0360  0.0807 -0.3592
11214TIP3    H155133   1.080   2.829  15.742 -1.8770 -1.2757 -3.0306
11214TIP3    H255134   1.008   2.825  15.875  1.1149 -2.6152 -1.3833
11215TIP3   OH255135   2.494   2.603  11.905  0.4767 -0.0120 -0.5167
11215TIP3    H155136   2.502   2.607  11.809  2.5414  1.1908 -0.3315
11215TIP3    H255137   2.567   2.548  11.933  0.0896 -0.0746  0.3901
11216TIP3   OH255138   0.799   5.175   1.119 -0.0554 -0.1535  0.0722
11216TIP3    H155139   0.894   5.166   1.116 -0.0834 -0.2709 -0.7236
11216TIP3    H255140   0.776   5.158   1.210  0.9353  2.4825  0.8440
11217TIP3   OH255141   0.861   2.682   3.761 -0.9346 -0.0186  0.4281
11217TIP3    H155142   0.945   2.711   3.795 -0.1607 -1.1062 -0.5211
11217TIP3    H255143   0.839   2.746   3.694 -2.8932  2.6534  3.4512
11218TIP3   OH255144   5.991   4.188  14.509  0.1228 -0.5594 -0.3532
11218TIP3    H155145   6.016   4.159  14.596 -0.4566  0.3445  0.1247
11218TIP3    H255146   6.066   4.166  14.453  1.4252  0.9002  0.7987
11219TIP3   OH255147   1.110   0.074  17.097 -0.2114  0.0083 -0.5669
11219TIP3    H155148   1.140   0.009  17.035  0.2976 -0.3472  0.0443
11219TIP3    H255149   1.160   0.057  17.177 -1.1557  0.1827  0.0785
11220TIP3   OH255150   5.368   0.685  16.777 -0.1313  0.8999  0.5441
11220TIP3    H155151   5.289   0.641  16.748  0.2963  0.6931 -0.3099
11220TIP3    H255152   5.361   0.774  16.743  0.1425  0.7946  0.2040
11221TIP3   OH255153   0.191   1.446  13.739 -0.2316 -0.6770  0.7341
11221TIP3    H155154   0.161   1.361  13.705 -0.9741 -0.5072  0.9595
11221TIP3    H255155   0.121   1.474  13.798  0.0543  0.0602  0.7211
11222TIP3   OH255156   2.088   3.949  14.072  0.3754  0.3450  0.1811
11222TIP3    H155157   2.037   3.885  14.122  0.1825 -0.1223 -0.6064
11222TIP3    H255158   2.163   3.968  14.128  0.1672 -0.1765  0.6485
11223TIP3   OH255159   4.265   6.411   0.303 -0.3056 -0.0650  0.2587
11223TIP3    H155160   4.192   6.377   0.251  0.2049 -0.7777  0.0020
11223TIP3    H255161   4.225   6.435   0.387 -0.6960 -1.2666  0.4277
11224TIP3   OH255162   1.300   2.853  14.051 -0.0441 -0.4262  0.3219
11224TIP3    H155163   1.336   2.811  14.128  0.8946  1.4626  0.9464
11224TIP3    H255164   1.304   2.786  13.983  1.0797 -1.4488  1.3649
11225TIP3   OH255165   5.063   0.031   2.295  0.0872  0.5631  0.1588
11225TIP3    H155166   4.985   0.072   2.257  0.2358  0.4319 -0.2908
11225TIP3    H255167   5.090   0.092   2.364 -0.8300  0.2531  0.8084
11226TIP3   OH255168   4.062   0.176  13.093 -0.1820 -0.4191  0.0698
11226TIP3    H155169   4.154   0.187  13.118 -0.4020 -0.7379  1.0639
11226TIP3    H255170   4.065   0.132  13.008  0.5862 -0.5666  0.1690
11227TIP3   OH255171   4.821   6.733   1.829  0.1123  0.0270  0.0711
11227TIP3    H155172   4.884   6.662   1.832  0.5301  0.2287 -2.3649
11227TIP3    H255173   4.822   6.771   1.917  2.1645 -1.0099  0.5132
11228TIP3   OH255174   2.095   4.903  15.925 -0.6596 -0.2908  0.2858
11228TIP3    H155175   2.096   4.826  15.868 -0.1491 -0.4787  0.5447
11228TIP3    H255176   2.029   4.883  15.991  1.3836 -1.6730  1.9406
11229TIP3   OH255177   5.368   1.112  13.670 -0.0049 -0.0884  0.5160
11229TIP3    H155178   5.457   1.117  13.706 -0.1475 -0.5346  0.9229
11229TIP3    H255179   5.377   1.150  13.582  0.3722  0.8229  0.9353
11230TIP3   OH255180   2.301   1.896   0.670 -0.0994  0.4629 -0.6721
11230TIP3    H155181   2.331   1.949   0.745  0.6551  2.5863 -2.4116
11230TIP3    H255182   2.276   1.812   0.709 -0.1324  1.6487  2.0239
11231TIP3   OH255183   3.748   0.983  12.334  0.0795  0.2221 -0.4101
11231TIP3    H155184   3.758   1.069  12.293 -0.9787  0.7423  0.4242
11231TIP3    H255185   3.688   0.997  12.406  0.9031 -0.9652  0.5282
11232TIP3   OH255186   6.190   4.261   4.379  0.0192  0.0694 -0.1528
11232TIP3    H155187   6.098   4.280   4.398  0.5662 -1.1507  4.0652
11232TIP3    H255188   6.236   4.342   4.404  0.2764  0.1239 -0.7969
11233TIP3   OH255189   1.480   4.616   4.205 -0.1443  0.5860 -0.1572
11233TIP3    H155190   1.459   4.605   4.298 -0.5855 -0.0471 -0.3362
11233TIP3    H255191   1.538   4.543   4.184 -0.8753  0.1397 -0.6395
11234TIP3   OH255192   3.607   0.660  12.898  0.2193 -0.2400  0.3786
11234TIP3    H155193   3.677   0.721  12.919  0.2616 -0.5228  1.0804
11234TIP3    H255194   3.647   0.573  12.907  1.0459 -0.3982 -3.5942
11235TIP3   OH255195   6.228   4.760  14.855 -0.6119 -0.4379 -0.2656
11235TIP3    H155196   6.256   4.687  14.910 -1.3818  0.1389  0.9203
11235TIP3    H255197   6.307   4.788  14.809  0.1570 -0.5911  0.9498
11236TIP3   OH255198   3.788   4.443  14.382  0.4289  0.0934 -0.5735
11236TIP3    H155199   3.732   4.479  14.450  0.2116  1.7844 -1.6011
11236TIP3    H255200   3.868   4.496  14.387  0.3129  0.4001 -1.7551
11237TIP3   OH255201   2.732   2.188   5.526  0.5027  0.2893  0.1210
11237TIP3    H155202   2.686   2.265   5.491 -0.3805 -0.9033 -1.4041
11237TIP3    H255203   2.797   2.224   5.587 -0.5077  2.1784  0.0992
11238TIP3   OH255204   5.409   5.635  15.875  0.0472  0.4844 -0.1107
11238TIP3    H155205   5.464   5.677  15.809 -0.2594 -0.5774 -1.0647
11238TIP3    H255206   5.322   5.672  15.861 -0.1387 -0.1542 -0.6945
11239TIP3   OH255207   2.998   1.431  13.550  0.3648  0.7957 -0.2018
11239TIP3    H155208   2.928   1.426  13.485 -0.2053 -0.7944  0.5071
11239TIP3    H255209   3.070   1.380  13.513  0.7109  1.4317 -0.4040
11240TIP3   OH255210   2.520   2.095  14.129 -0.0391 -0.0830  0.4032
11240TIP3    H155211   2.506   2.005  14.159 -1.2954 -0.1382 -0.3208
11240TIP3    H255212   2.613   2.111  14.146  0.0143 -1.2274  1.3092
11241TIP3   OH255213   0.757   1.473  12.750 -0.3068 -0.5098  0.4042
11241TIP3    H155214   0.735   1.420  12.827 -0.0003 -0.2743  0.6515
11241TIP3    H255215   0.756   1.563  12.782 -0.3050 -0.4029  0.1014
11242TIP3   OH255216   5.429   3.073   2.481 -0.1464 -0.2100  0.0994
11242TIP3    H155217   5.366   3.037   2.418  0.7599  0.7637 -1.4187
11242TIP3    H255218   5.391   3.055   2.567 -1.5384 -1.3664 -0.7309
11243TIP3   OH255219   1.533   4.875   2.107 -0.2193 -0.7669 -0.6373
11243TIP3    H155220   1.584   4.904   2.031  0.3322 -0.1406 -0.0334
11243TIP3    H255221   1.461   4.825   2.069  0.6579 -1.3863 -1.5186
11244TIP3   OH255222   0.178   6.327  16.341  0.5687 -0.0467  0.4333
11244TIP3    H155223   0.103   6.376  16.376 -0.5257  0.3735 -2.3841
11244TIP3    H255224   0.140   6.248  16.305  1.1407  1.1441 -2.9340
11245TIP3   OH255225   2.804   6.069  11.395 -0.1727 -0.1229  0.4862
11245TIP3    H155226   2.759   6.036  11.472  0.9361  1.8176  2.0089
11245TIP3    H255227   2.897   6.070  11.420  0.2319  0.2754 -0.9575
11246TIP3   OH255228   3.125   4.062   0.223  0.0455 -0.3179 -0.7134
11246TIP3    H155229   3.172   4.133   0.178  0.7875 -0.0669  0.4416
11246TIP3    H255230   3.112   3.995   0.155 -1.1668  1.1463 -1.9531
11247TIP3   OH255231   5.538   0.378   0.314  0.5217 -0.4431  0.3066
11247TIP3    H155232   5.543   0.292   0.273  0.4286 -0.5389  0.4970
11247TIP3    H255233   5.629   0.401   0.334  0.6207 -0.1396 -0.4890
11248TIP3   OH255234   0.037   0.629  12.129  0.0820  0.0756 -0.1829
11248TIP3    H155235   0.058   0.700  12.190  1.8113 -2.0333  1.7864
11248TIP3    H255236   0.087   0.650  12.050  2.6864 -0.2666  1.3232
11249TIP3   OH255237   3.819   5.304  11.391  0.5288 -0.2785  0.0439
11249TIP3    H155238   3.899   5.356  11.399  1.6863 -1.6299 -2.1621
11249TIP3    H255239   3.847   5.215  11.411 -0.0373 -1.0252 -2.3218
11250TIP3   OH255240   2.870   3.206   4.914  0.1843  0.2444  0.4115
11250TIP3    H155241   2.959   3.172   4.920 -0.2310 -0.7088  1.1317
11250TIP3    H255242   2.834   3.196   5.002 -0.0555  2.2389  0.5671
11251TIP3   OH255243   0.635   1.358   1.310  0.5149  0.5948 -0.1843
11251TIP3    H155244   0.599   1.365   1.221  0.5403 -0.5022 -0.2887
11251TIP3    H255245   0.710   1.299   1.300 -0.2599 -0.5839  0.7883
11252TIP3   OH255246   4.058   5.477  14.009  0.3209  0.1127 -0.3130
11252TIP3    H155247   3.991   5.511  14.068  0.2255 -0.3049 -0.1788
11252TIP3    H255248   4.010   5.422  13.947  0.3248  1.1003 -1.2131
11253TIP3   OH255249   3.050   3.103   3.483 -0.0672  0.1361  0.2028
11253TIP3    H155250   3.038   3.191   3.518 -1.0200 -0.7527  2.1399
11253TIP3    H255251   2.962   3.073   3.462  0.1594 -0.7754  0.5577
11254TIP3   OH255252   0.528   4.369  15.206 -1.1872  0.5467  0.2564
11254TIP3    H155253   0.598   4.429  15.181 -0.5254 -0.7271 -1.0029
11254TIP3    H255254   0.555   4.335  15.291  0.5643 -1.1624 -0.9370
11255TIP3   OH255255   6.338   3.977  15.076  0.1802  0.3152 -0.0158
11255TIP3    H155256   6.401   4.034  15.119  1.0045  0.1674 -1.0199
11255TIP3    H255257   6.345   3.893  15.123 -0.0169  0.6001  0.5352
11256TIP3   OH255258   2.348   4.459  11.475 -0.2297 -0.2089 -0.2279
11256TIP3    H155259   2.363   4.528  11.410  0.8830 -1.0436 -0.8716
11256TIP3    H255260   2.371   4.378  11.431 -2.7984 -1.1652  0.1135
11257TIP3   OH255261   6.072   5.886  13.940 -0.1430 -0.3643  0.0381
11257TIP3    H155262   6.168   5.880  13.940 -0.0336  1.1011  0.6552
11257TIP3    H255263   6.045   5.834  13.865  1.1633 -0.4900 -0.3603
11258TIP3   OH255264   6.274   3.656  15.062  0.5195  0.2537  0.7315
11258TIP3    H155265   6.252   3.678  14.971 -0.6500 -0.2093  0.8916
11258TIP3    H255266   6.198   3.607  15.094  1.7797 -1.3571  1.3438
11259TIP3   OH255267   5.484   0.366   0.702  0.7159  0.0697 -0.2535
11259TIP3    H155268   5.427   0.401   0.634  0.3790  3.7396  1.7646
11259TIP3    H255269   5.572   0.393   0.675  0.7807 -0.0288 -0.1406
11260TIP3   OH255270   0.913   5.759  11.845 -0.5759  0.3624  0.7387
11260TIP3    H155271   0.983   5.786  11.905 -0.0679 -0.4045  0.4916
11260TIP3    H255272   0.940   5.794  11.760  0.9717 -2.3725  0.0517
11261TIP3   OH255273   0.946   6.096  13.463  0.3890  0.3984 -0.1145
11261TIP3    H155274   1.010   6.163  13.440  1.2009 -0.8005 -1.4469
11261TIP3    H255275   0.988   6.014  13.438 -0.8760 -0.5492  0.8365
11262TIP3   OH255276   2.448   0.433   3.864  0.1127 -0.2056  0.3760
11262TIP3    H155277   2.453   0.366   3.932 -0.1898 -0.9194 -0.2888
11262TIP3    H255278   2.358   0.465   3.868  0.3935  0.5228  1.0223
11263TIP3   OH255279   3.435   1.755   1.725 -0.3289  0.2266  0.6350
11263TIP3    H155280   3.417   1.710   1.807  1.5691  0.4326  1.1834
11263TIP3    H255281   3.449   1.847   1.750  2.6490 -0.1338  0.4185
11264TIP3   OH255282   6.338   5.877   5.114 -0.5021  0.3552 -0.0622
11264TIP3    H155283   6.248   5.906   5.104 -0.0122  1.6888 -0.7721
11264TIP3    H255284   6.372   5.870   5.024  0.5743  1.4600  0.2356
11265TIP3   OH255285   0.764   5.493  11.276 -0.3076  0.0966  0.2404
11265TIP3    H155286   0.826   5.425  11.250 -2.7190 -1.8752 -0.5583
11265TIP3    H255287   0.812   5.547  11.338  3.3409  0.7485 -2.9863
11266TIP3   OH255288   5.172   4.149  11.258 -0.2311  0.0113 -0.0521
11266TIP3    H155289   5.236   4.159  11.187  0.7749  2.0660  1.1153
11266TIP3    H255290   5.212   4.084  11.317 -0.1561 -0.2098 -0.3459
11267TIP3   OH255291   6.252   5.542  14.770  0.6327 -0.3152 -0.1976
11267TIP3    H155292   6.323   5.560  14.709  0.6767  2.0682  0.5086
11267TIP3    H255293   6.276   5.589  14.850  0.0991 -2.5787  1.3540
11268TIP3   OH255294   6.447   5.288   0.489  0.3126  0.5099  0.1092
11268TIP3    H155295   6.427   5.377   0.459  0.9564  0.5646 -0.1881
11268TIP3    H255296   6.502   5.252   0.419  0.0088 -0.1396  0.2035
11269TIP3   OH255297   1.777   6.021  17.057  0.4956 -0.2204 -0.0362
11269TIP3    H155298   1.713   5.972  17.109 -0.1462  0.2902 -0.3347
11269TIP3    H255299   1.807   6.090  17.116 -1.3608  1.2977 -0.7998
11270TIP3   OH255300   5.397   5.887  14.533  0.1608 -0.4292 -0.3445
11270TIP3    H155301   5.356   5.970  14.559  1.4329  0.4108 -0.9677
11270TIP3    H255302   5.426   5.902  14.443  2.7928 -0.6394  0.4467
11271TIP3   OH255303   0.182   0.309   2.070  0.5672  0.0699  0.0442
11271TIP3    H155304   0.254   0.247   2.076 -0.3595 -1.0076  0.3776
11271TIP3    H255305   0.222   0.395   2.076  1.7252 -0.5378  0.9928
11272TIP3   OH255306   0.498   6.328  12.695 -0.1310 -0.4565 -0.3796
11272TIP3    H155307   0.560   6.305  12.626  1.4716  0.3756  0.7315
11272TIP3    H255308   0.551   6.332  12.775 -1.6751 -0.0340  0.6601
11273TIP3   OH255309   3.751   4.482  16.179  0.2939  0.2955 -0.0115
11273TIP3    H155310   3.807   4.517  16.110  0.2197 -2.5961 -1.6185
11273TIP3    H255311   3.810   4.427  16.231 -0.2138  0.3689  0.6394
11274TIP3   OH255312   1.090   0.914  15.526 -0.2313 -0.5606  0.6634
11274TIP3    H155313   1.180   0.924  15.555 -0.2901 -0.8167  0.9313
11274TIP3    H255314   1.091   0.836  15.470 -0.5426 -1.3244  1.7172
11275TIP3   OH255315   1.766   0.685   1.418 -0.0269  0.0804  0.1240
11275TIP3    H155316   1.690   0.633   1.445  1.2356 -0.9460  1.8268
11275TIP3    H255317   1.737   0.730   1.339 -2.6781  0.3669  1.1965
11276TIP3   OH255318   2.183   3.221  16.259  0.2239 -0.1779 -0.2275
11276TIP3    H155319   2.269   3.194  16.227  0.7278  2.4147 -1.2181
11276TIP3    H255320   2.202   3.273  16.337 -0.4495  0.2783 -0.3668
11277TIP3   OH255321   2.662   6.531  11.749 -0.0631  0.1025 -0.4567
11277TIP3    H155322   2.714   6.451  11.757 -0.8360 -0.3119  0.6343
11277TIP3    H255323   2.677   6.561  11.660 -1.2557 -2.3032 -1.5320
11278TIP3   OH255324   2.648   5.247  15.657  0.7756  0.4678 -0.3336
11278TIP3    H155325   2.618   5.171  15.607  0.1381 -0.6620  1.7247
11278TIP3    H255326   2.703   5.210  15.726  0.0067  1.8186  1.0252
11279TIP3   OH255327   2.715   6.000   3.368  0.3568 -0.0285 -0.3339
11279TIP3    H155328   2.625   5.968   3.370  0.1317  0.5609 -0.9037
11279TIP3    H255329   2.748   5.986   3.457 -0.3256 -0.1574 -0.1040
11280TIP3   OH255330   5.414   0.926   6.387  0.1676  0.1214  0.6288
11280TIP3    H155331   5.487   0.959   6.335  0.3516  0.2404  0.9598
11280TIP3    H255332   5.443   0.841   6.419 -0.0731 -0.0998  0.2728
11281TIP3   OH255333   0.019   5.837   4.482  0.2266  0.8389 -0.5028
11281TIP3    H155334   0.040   5.812   4.572  2.5893  1.2438 -0.9190
11281TIP3    H255335   0.103   5.849   4.440 -0.8089 -1.9662 -3.5719
11282TIP3   OH255336   4.471   1.776  12.975  0.0117  0.1183  0.6113
11282TIP3    H155337   4.503   1.839  12.910 -0.7275 -2.4424 -2.3424
11282TIP3    H255338   4.378   1.798  12.985 -0.4545 -1.0109 -1.0773
11283TIP3   OH255339   0.688   3.721  16.200  0.7210 -0.1015  0.2928
11283TIP3    H155340   0.726   3.807  16.178  1.5397 -0.2786  0.9608
11283TIP3    H255341   0.599   3.724  16.165  1.0624  0.6637 -0.5383
11284TIP3   OH255342   1.763   0.358  11.672  0.4863  0.2602 -0.2787
11284TIP3    H155343   1.746   0.436  11.724  0.6701  1.4992 -2.0184
11284TIP3    H255344   1.700   0.293  11.703  0.8213  0.8416  1.6859
11285TIP3   OH255345   2.255   2.803   4.531 -0.2090 -0.4138  1.0483
11285TIP3    H155346   2.305   2.870   4.579  2.2045 -2.5387  1.6098
11285TIP3    H255347   2.203   2.853   4.468  1.1380  2.0295  1.7990
11286TIP3   OH255348   6.565   1.451  12.465 -0.0927  0.5216  0.1449
11286TIP3    H155349   6.529   1.362  12.472 -0.0477  0.4859 -0.0929
11286TIP3    H255350   6.638   1.443  12.403 -0.8261  0.9523 -0.7834
11287TIP3   OH255351   4.192   3.923   1.614  0.2429  0.1194  0.0860
11287TIP3    H155352   4.156   3.841   1.579  0.0754 -0.1613  0.8944
11287TIP3    H255353   4.263   3.946   1.554 -0.3900 -0.0660 -0.7330
11288TIP3   OH255354   4.721   1.041  12.098  0.3887 -0.1781 -0.3139
11288TIP3    H155355   4.660   1.077  12.162  1.1600  0.8638 -0.1394
11288TIP3    H255356   4.762   1.119  12.060 -1.6106 -0.6301 -3.6217
11289TIP3   OH255357   5.928   1.516   3.991 -0.1020  0.2134  0.1442
11289TIP3    H155358   5.996   1.573   4.027  0.8337 -0.2520 -0.8709
11289TIP3    H255359   5.868   1.576   3.946 -0.2177  0.5944  0.7953
11290TIP3   OH255360   2.443   3.327  11.005  0.3507  0.3849 -0.4183
11290TIP3    H155361   2.446   3.246  10.954 -0.0865  1.8160 -2.7457
11290TIP3    H255362   2.433   3.297  11.096  1.2780 -2.1899 -1.1222
11291TIP3   OH255363   4.620   2.699  11.939 -0.2519 -0.6031  0.6509
11291TIP3    H155364   4.597   2.621  11.889 -0.3500 -0.1314 -0.0503
11291TIP3    H255365   4.685   2.669  12.003  0.8002 -0.9737 -0.5762
11292TIP3   OH255366   5.462   0.218  13.487  0.0181  0.0412 -0.3882
11292TIP3    H155367   5.420   0.273  13.553 -0.5899 -1.2678  0.3427
11292TIP3    H255368   5.397   0.213  13.416 -0.1860 -0.2305 -0.1851
11293TIP3   OH255369   5.990   5.647   2.520 -0.2060  0.0446  0.3151
11293TIP3    H155370   6.032   5.733   2.528  0.6645 -0.3392 -0.0940
11293TIP3    H255371   5.976   5.619   2.610 -0.3333  0.5408  0.4542
11294TIP3   OH255372   4.880   1.565   0.154  0.4591 -0.1007 -0.6468
11294TIP3    H155373   4.816   1.631   0.182  0.8018  0.3611 -0.9460
11294TIP3    H255374   4.909   1.524   0.236  1.3414  1.1413 -0.3254
11295TIP3   OH255375   3.324   5.732  10.465  0.2998  0.2427 -0.3380
11295TIP3    H155376   3.256   5.668  10.445 -0.8894  1.6670 -1.0022
11295TIP3    H255377   3.321   5.742  10.560  0.7405 -0.9366 -0.1936
11296TIP3   OH255378   4.639   4.398  11.533  0.5114  0.1318  0.3006
11296TIP3    H155379   4.654   4.444  11.451  0.3557 -0.4410 -0.0539
11296TIP3    H255380   4.718   4.345  11.545  1.2734  1.5091  1.3928
11297TIP3   OH255381   1.885   3.044  14.177  0.0719 -0.1810  0.1504
11297TIP3    H155382   1.818   3.011  14.118  0.0805  2.6433 -1.5516
11297TIP3    H255383   1.838   3.065  14.257 -0.9962  1.0694 -0.7740
11298TIP3   OH255384   1.912   4.776   1.700  0.1422 -0.0084 -0.4407
11298TIP3    H155385   1.987   4.782   1.760  0.2558 -2.0845 -0.3440
11298TIP3    H255386   1.946   4.806   1.616  0.8261 -0.0424 -0.1805
11299TIP3   OH255387   6.357   6.455  16.156  0.5073  0.1331 -0.1642
11299TIP3    H155388   6.312   6.504  16.088  0.8172  0.6831  0.0229
11299TIP3    H255389   6.415   6.519  16.197  0.2634 -0.1726  0.6693
11300TIP3   OH255390   6.544   0.129   5.091 -0.9732  0.4040  0.2028
11300TIP3    H155391   6.466   0.176   5.119 -0.3399  1.6921 -0.1591
11300TIP3    H255392   6.552   0.057   5.154 -4.0348 -1.4614 -1.4468
11301TIP3   OH255393   2.998   3.555   1.805 -0.0851 -0.1501  0.8322
11301TIP3    H155394   2.979   3.644   1.777  2.3844  0.0973 -0.1949
11301TIP3    H255395   2.913   3.520   1.833 -0.8770  2.9364  2.5489
11302TIP3   OH255396   1.190   4.996  11.928  0.0318 -0.1090 -0.4670
11302TIP3    H155397   1.250   4.993  11.854  2.8770 -2.1619  1.8181
11302TIP3    H255398   1.107   4.965  11.892  0.9241  0.4707 -3.1457
11303TIP3   OH255399   1.594   3.503   3.108  0.0422  0.1432 -0.3360
11303TIP3    H155400   1.662   3.450   3.066  0.4403 -0.7975  1.4842
11303TIP3    H255401   1.573   3.457   3.189 -1.2439  1.5640  0.1702
11304TIP3   OH255402   1.192   6.480  13.793  0.1099 -0.4593  0.5369
11304TIP3    H155403   1.246   6.448  13.721 -0.6224  2.6441 -1.4729
11304TIP3    H255404   1.120   6.417  13.799 -0.7779  0.1631 -2.6518
11305TIP3   OH255405   3.029   6.791  12.215  0.6239  0.3748  0.1814
11305TIP3    H155406   3.105   6.817  12.163 -0.8512  2.5328 -0.9613
11305TIP3    H255407   2.953   6.814  12.161 -0.9076  1.1935  2.5817
11306TIP3   OH255408   1.447   5.537  15.920 -0.2443  0.5678  0.0678
11306TIP3    H155409   1.507   5.484  15.867 -0.9993  0.3718 -0.6028
11306TIP3    H255410   1.498   5.562  15.996  0.6592  0.3128 -0.4492
11307TIP3   OH255411   5.530   0.846   1.800 -0.2268 -0.3717  0.1678
11307TIP3    H155412   5.517   0.935   1.767  1.2456 -0.1735  0.0773
11307TIP3    H255413   5.616   0.821   1.765  1.5029 -0.0869  3.9758
11308TIP3   OH255414   4.907   5.485  15.284 -0.3088  0.5933 -0.1899
11308TIP3    H155415   4.903   5.579  15.269  0.2648  0.8843  1.3341
11308TIP3    H255416   4.852   5.470  15.361 -1.6037 -0.5404 -1.3105
11309TIP3   OH255417   1.587   4.466  14.236  0.2041  0.1089  0.3933
11309TIP3    H155418   1.637   4.538  14.275  0.2688 -0.2507  0.9790
11309TIP3    H255419   1.536   4.430  14.308 -0.2088 -0.1160 -0.0046
11310TIP3   OH255420   0.821   6.154   0.738  0.0167  0.0944  0.3270
11310TIP3    H155421   0.728   6.173   0.748  0.0804 -0.4224  2.0096
11310TIP3    H255422   0.850   6.213   0.668 -1.5789  0.2215 -0.2379
11311TIP3   OH255423   3.256   0.083   3.444 -0.1458 -0.1630 -0.6655
11311TIP3    H155424   3.267   0.067   3.350 -0.3624 -0.6699 -0.6042
11311TIP3    H255425   3.332   0.138   3.468  0.2473 -0.5543 -1.0057
11312TIP3   OH255426   5.103   0.091   4.291 -1.0610 -0.1768 -0.4057
11312TIP3    H155427   5.151   0.081   4.209 -1.9796  0.9410 -1.0876
11312TIP3    H255428   5.166   0.132   4.350 -1.3653  1.8871 -1.4970
11313TIP3   OH255429   5.596   1.416  12.075  0.3523  0.1040  0.1388
11313TIP3    H155430   5.674   1.457  12.112  1.5640 -1.2522 -0.8793
11313TIP3    H255431   5.549   1.381  12.150  1.8328 -0.9832  0.5741
11314TIP3   OH255432   0.897   6.564   1.710 -0.4599 -0.1556  0.0602
11314TIP3    H155433   0.915   6.604   1.624 -0.1073 -0.4584 -0.0088
11314TIP3    H255434   0.817   6.607   1.740  1.6206  2.9491  1.4228
11315TIP3   OH255435   1.759   2.146  14.555 -0.6289  0.3727  0.3256
11315TIP3    H155436   1.747   2.107  14.468  0.2175 -0.4638  0.5692
11315TIP3    H255437   1.839   2.105  14.588 -1.8329 -0.5662  2.1802
11316TIP3   OH255438   5.076   1.595   2.969  0.5225 -0.5065  0.1191
11316TIP3    H155439   5.009   1.540   3.010 -0.4634  0.0322 -0.7106
11316TIP3    H255440   5.097   1.662   3.034  1.8471 -1.9541  1.1907
11317TIP3   OH255441   2.904   1.787   3.773  0.1195  0.0342 -0.3079
11317TIP3    H155442   2.872   1.840   3.700  0.1015 -0.6808 -0.8214
11317TIP3    H255443   2.864   1.701   3.760  2.4597 -0.9784 -1.1474
11318TIP3   OH255444   4.727   5.297   0.524  0.0541 -0.2100 -0.6459
11318TIP3    H155445   4.753   5.356   0.453  0.0212  0.3250 -0.2129
11318TIP3    H255446   4.776   5.328   0.600  0.4040 -1.0422 -0.5267
11319TIP3   OH255447   1.878   1.785  10.830 -0.5802  0.3154  0.3212
11319TIP3    H155448   1.965   1.748  10.841 -0.1062  1.4121  0.2976
11319TIP3    H255449   1.874   1.809  10.737 -0.3602  1.6205  0.6428
11320TIP3   OH255450   1.177   6.649  15.194  0.0050  0.0950  0.0027
11320TIP3    H155451   1.102   6.706  15.180 -2.7347 -3.2967 -0.0304
11320TIP3    H255452   1.190   6.607  15.109  1.9826  0.6652  0.0123
11321TIP3   OH255453   5.550   6.051   2.623 -0.0290 -0.0714 -0.4057
11321TIP3    H155454   5.498   6.113   2.673  0.1109 -0.6452  0.4642
11321TIP3    H255455   5.585   5.991   2.689  2.4821  0.8419 -0.8899
11322TIP3   OH255456   2.970   1.713  13.581 -0.5079 -0.0130  0.3168
11322TIP3    H155457   2.946   1.805  13.569 -0.6074 -0.1449 -0.5335
11322TIP3    H255458   2.901   1.665  13.535  0.3658 -0.4603 -0.5604
11323TIP3   OH255459   3.813   5.053  12.827 -0.6421  0.0054  0.3974
11323TIP3    H155460   3.816   5.144  12.857  2.2277  0.3258 -0.7153
11323TIP3    H255461   3.900   5.019  12.845 -0.8003 -1.6609 -1.8517
11324TIP3   OH255462   6.686   6.202   4.370 -0.0507  0.4998 -0.4387
11324TIP3    H155463   6.704   6.250   4.451  0.8195  1.8435 -1.4210
11324TIP3    H255464   6.766   6.150   4.355  0.0205  0.7022 -0.7534
11325TIP3   OH255465   0.461   4.888  14.035  0.2226 -0.0828  0.2666
11325TIP3    H155466   0.434   4.827  14.104  1.5143 -0.4549  0.4627
11325TIP3    H255467   0.482   4.969  14.082 -0.5952  0.2368  0.1016
11326TIP3   OH255468   3.447   1.109  14.999 -0.4585 -0.0771  0.0990
11326TIP3    H155469   3.481   1.024  15.028 -0.9176 -0.2455  0.1485
11326TIP3    H255470   3.522   1.151  14.957 -0.0187 -0.1849  0.7582
11327TIP3   OH255471   1.663   2.431   2.217 -0.4300  0.0113 -0.1031
11327TIP3    H155472   1.709   2.448   2.135 -0.7540  1.3116 -0.0251
11327TIP3    H255473   1.723   2.462   2.285 -0.2620 -0.8461  0.1459
11328TIP3   OH255474   4.292   0.917  14.161 -0.0046  0.2634 -0.2531
11328TIP3    H155475   4.383   0.941  14.143  0.3610 -1.5145 -0.9200
11328TIP3    H255476   4.296   0.861  14.239 -0.4675 -0.1834 -0.5432
11329TIP3   OH255477   5.140   5.242   3.857  0.3716  0.4547 -0.3144
11329TIP3    H155478   5.195   5.259   3.934 -0.5112  2.5316 -0.0927
11329TIP3    H255479   5.199   5.252   3.783  0.9230 -0.1353  0.0474
11330TIP3   OH255480   4.433   5.337  17.173 -0.1785 -0.5467  0.5503
11330TIP3    H155481   4.484   5.312  17.096 -0.0476 -1.1744  0.8385
11330TIP3    H255482   4.494   5.331  17.246 -0.5768 -0.9838  0.8502
11331TIP3   OH255483   5.057   1.986   0.599  0.4752 -0.2621 -0.0746
11331TIP3    H155484   5.018   1.961   0.683 -3.9913  0.4334 -1.7963
11331TIP3    H255485   5.084   2.077   0.611  1.1417 -0.5991  1.0097
11332TIP3   OH255486   1.435   4.439  16.732  0.2273 -0.4820  0.0567
11332TIP3    H155487   1.423   4.371  16.798  0.5842  0.8886  1.5542
11332TIP3    H255488   1.440   4.520  16.781  1.4021  0.4774 -1.6025
11333TIP3   OH255489   4.363   4.761  16.745  0.2613  0.0551 -0.2431
11333TIP3    H155490   4.285   4.714  16.714 -1.3271  2.1038  0.4969
11333TIP3    H255491   4.405   4.793  16.666 -1.1148  1.1351 -0.5692
11334TIP3   OH255492   4.552   2.000   3.622 -0.0929  0.3222  0.6263
11334TIP3    H155493   4.515   1.912   3.616 -1.5298  0.9932 -0.7159
11334TIP3    H255494   4.550   2.020   3.716  1.3027 -1.4923  1.0700
11335TIP3   OH255495   5.551   4.347  15.578  0.0275 -0.0461  0.1906
11335TIP3    H155496   5.633   4.313  15.543 -0.2598 -0.1338 -0.4138
11335TIP3    H255497   5.574   4.381  15.664  0.6403 -0.3197  0.1406
11336TIP3   OH255498   3.564   6.394  14.581  0.3610  0.2136  0.1656
11336TIP3    H155499   3.605   6.431  14.659 -1.2171  0.1486  1.0585
11336TIP3    H255500   3.470   6.395  14.601  0.0197 -0.8066 -1.2981
11337TIP3   OH255501   4.614   4.476   3.082 -0.0545  0.4370  0.3862
11337TIP3    H155502   4.578   4.549   3.030 -2.3319 -1.1960 -0.4055
11337TIP3    H255503   4.574   4.486   3.168 -2.4637 -1.3059 -0.4590
11338TIP3   OH255504   5.563   1.075   3.314  0.1885 -0.6870 -0.2004
11338TIP3    H155505   5.543   1.072   3.220  0.9840 -1.1244 -0.3585
11338TIP3    H255506   5.480   1.054   3.357  0.1000 -1.6737 -0.8352
11339TIP3   OH255507   3.281   0.207  16.117  0.3009 -0.0370  0.2748
11339TIP3    H155508   3.324   0.151  16.053 -0.4795 -0.7218  0.3554
11339TIP3    H255509   3.205   0.157  16.146 -1.3348  1.7283 -0.8680
11340TIP3   OH255510   1.346   1.561   2.520  0.0530  0.7849 -0.5885
11340TIP3    H155511   1.370   1.647   2.484 -1.9134  2.0093  0.8505
11340TIP3    H255512   1.329   1.579   2.613 -1.8075 -0.8596 -0.5897
11341TIP3   OH255513   3.300   1.387  14.863 -0.3495 -0.0177 -0.0540
11341TIP3    H155514   3.272   1.299  14.838  0.9849  0.2413 -2.6334
11341TIP3    H255515   3.394   1.378  14.881 -0.4672  0.6323  0.9037
11342TIP3   OH255516   6.700   2.620  12.091  0.5965  0.4142  0.0974
11342TIP3    H155517   6.699   2.691  12.026 -1.7998  1.5492  1.2865
11342TIP3    H255518   6.731   2.662  12.171 -0.3902  0.0358  0.6906
11343TIP3   OH255519   4.762   5.576  17.222  0.5226  0.4475  0.4238
11343TIP3    H155520   4.763   5.636  17.296  1.2432 -0.8415  1.4867
11343TIP3    H255521   4.827   5.509  17.245 -1.0587 -1.3470 -0.1875
11344TIP3   OH255522   4.601   3.177   6.215  0.2532  0.4531 -0.4127
11344TIP3    H155523   4.627   3.146   6.128 -0.8027 -0.8398 -0.2980
11344TIP3    H255524   4.510   3.204   6.204  0.0387  0.0438  0.3350
11345TIP3   OH255525   1.696   3.193   5.094 -0.2580  0.2779 -0.0308
11345TIP3    H155526   1.702   3.098   5.082  1.3680  0.3088  0.4836
11345TIP3    H255527   1.758   3.229   5.030  0.4611  0.9068  1.0122
11346TIP3   OH255528   3.778   6.167   3.236 -0.7129 -1.0127 -0.3194
11346TIP3    H155529   3.817   6.254   3.251 -1.6805 -0.5929 -0.1986
11346TIP3    H255530   3.812   6.114   3.308 -0.9411 -0.4529  0.2115
11347TIP3   OH255531   0.478   6.217   2.355  0.1144  0.3892 -0.0946
11347TIP3    H155532   0.571   6.227   2.332  0.6083  0.6594  1.9835
11347TIP3    H255533   0.455   6.298   2.400 -0.6941 -0.3613  0.8530
11348TIP3   OH255534   1.560   6.368  14.996  0.1659  0.4753 -0.1788
11348TIP3    H155535   1.548   6.451  14.949 -0.3128  0.6010  0.1545
11348TIP3    H255536   1.471   6.336  15.008  0.3312  0.1124  0.0521
11349TIP3   OH255537   5.122   3.683  16.602 -0.2582  0.3326 -0.4050
11349TIP3    H155538   5.048   3.705  16.546  1.1711  2.8764 -1.3647
11349TIP3    H255539   5.152   3.767  16.637  2.9925 -0.4551 -1.0750
11350TIP3   OH255540   5.273   4.111   3.851 -0.5467 -0.0434  0.4365
11350TIP3    H155541   5.306   4.041   3.795  0.8349  0.0240  1.1396
11350TIP3    H255542   5.339   4.179   3.846 -0.9345  0.4085  1.2827
11351TIP3   OH255543   2.999   3.563  14.720 -0.0388 -0.0380 -0.0488
11351TIP3    H155544   2.920   3.567  14.666  0.1432 -0.9917 -0.4043
11351TIP3    H255545   2.989   3.633  14.784 -0.4794  0.8031 -1.0258
11352TIP3   OH255546   0.951   3.055   2.910 -0.1255 -0.1484  0.0952
11352TIP3    H155547   0.923   3.146   2.902  3.1917  0.9516  0.3096
11352TIP3    H255548   0.999   3.052   2.993 -0.2363 -2.1015  0.1118
11353TIP3   OH255549   4.758   2.398  10.387  0.3543  0.1704 -0.2673
11353TIP3    H155550   4.703   2.469  10.421  1.1703  0.9081 -0.4718
11353TIP3    H255551   4.710   2.318  10.408 -0.8745  0.8127 -0.5778
11354TIP3   OH255552   2.285   2.687   1.559 -0.3526  0.0722  0.0347
11354TIP3    H155553   2.370   2.711   1.521 -0.3629 -1.2561 -0.8400
11354TIP3    H255554   2.236   2.769   1.561  0.0771  0.3941 -1.7413
11355TIP3   OH255555   6.539   5.421   3.863 -0.5648 -0.2890  0.4106
11355TIP3    H155556   6.510   5.376   3.784 -1.0388  2.1158 -0.8512
11355TIP3    H255557   6.608   5.365   3.899 -0.5297 -1.5621 -1.5571
11356TIP3   OH255558   3.065   2.626  15.985 -0.4263  0.0659 -0.1463
11356TIP3    H155559   3.148   2.674  15.985  0.4252 -1.4067  1.0348
11356TIP3    H255560   3.082   2.549  15.930 -1.3795  0.3581 -0.8727
11357TIP3   OH255561   5.734   2.932  13.826 -0.0508 -0.4057  0.0009
11357TIP3    H155562   5.810   2.961  13.776  1.2562  0.7546  2.5921
11357TIP3    H255563   5.673   3.006  13.822  0.2187 -0.1556  0.4069
11358TIP3   OH255564   4.368   5.105   0.648  0.3648  0.5070 -0.3332
11358TIP3    H155565   4.324   5.129   0.730 -0.0303  1.0617 -0.7010
11358TIP3    H255566   4.297   5.072   0.592  0.8171 -0.9839 -0.0367
11359TIP3   OH255567   1.250   4.041   0.590 -0.6847  0.7502 -0.8028
11359TIP3    H155568   1.245   4.107   0.659 -0.9464  1.0537 -1.1094
11359TIP3    H255569   1.219   3.960   0.632  0.9571  0.4927 -0.0306
11360TIP3   OH255570   3.203   6.052   2.015 -0.2562 -0.1749 -0.4164
11360TIP3    H155571   3.248   6.111   2.076 -0.9794 -1.2917  1.2334
11360TIP3    H255572   3.123   6.099   1.991 -0.6173 -0.2889  0.5490
11361TIP3   OH255573   4.299   6.797  16.181  0.2620 -0.0101  0.0597
11361TIP3    H155574   4.293   6.781  16.275 -2.1387 -3.0961 -0.5463
11361TIP3    H255575   4.344   6.720  16.146 -0.0303  0.4823 -1.4703
11362TIP3   OH255576   0.156   2.407  14.959 -0.1555  0.7871  0.2257
11362TIP3    H155577   0.226   2.344  14.974  0.3001  1.3940  0.7063
11362TIP3    H255578   0.190   2.467  14.893 -1.4876 -0.8316 -1.9559
11363TIP3   OH255579   4.768   3.070   2.880  0.1794 -0.0838  0.2166
11363TIP3    H155580   4.733   3.140   2.826  0.0881  1.6895  2.4773
11363TIP3    H255581   4.863   3.072   2.864  0.0210 -0.3514 -0.7482
11364TIP3   OH255582   5.102   3.040  16.226 -0.0858 -0.0950 -0.2796
11364TIP3    H155583   5.084   3.052  16.319  0.7071  2.1039 -0.3561
11364TIP3    H255584   5.036   3.094  16.182 -0.9586 -1.7533 -1.0304
11365TIP3   OH255585   1.106   5.315   3.848 -0.3356  0.2662  0.2581
11365TIP3    H155586   1.043   5.270   3.904 -2.5926  2.9583 -0.0291
11365TIP3    H255587   1.131   5.392   3.899  0.4738  0.7594 -0.8809
11366TIP3   OH255588   4.283   1.910  15.209  0.1447  0.0796 -0.1920
11366TIP3    H155589   4.307   1.847  15.140  1.0857  0.9484 -0.6738
11366TIP3    H255590   4.273   1.993  15.162 -1.9886  0.1279  0.2951
11367TIP3   OH255591   5.485   2.316  11.266  0.3651 -0.3437 -0.7282
11367TIP3    H155592   5.483   2.381  11.336 -0.6183 -1.3170  0.1804
11367TIP3    H255593   5.406   2.264  11.280  0.9631 -1.5217 -1.6291
11368TIP3   OH255594   6.770   1.306   5.961  0.6045  0.1255  0.0464
11368TIP3    H155595   6.801   1.391   5.992 -0.6486  0.7494 -0.3802
11368TIP3    H255596   6.842   1.273   5.908  1.0434  0.9997  0.0791
11369TIP3   OH255597   4.311   3.222  15.765  0.3097  0.0386  0.0323
11369TIP3    H155598   4.342   3.183  15.847  0.0512 -0.2938 -0.0281
11369TIP3    H255599   4.383   3.278  15.736  1.0512 -1.1238 -0.3701
11370TIP3   OH255600   2.211   3.576  14.255  0.2806  0.5782 -0.0422
11370TIP3    H155601   2.143   3.642  14.250  0.1478  0.5681  1.3833
11370TIP3    H255602   2.203   3.540  14.344  2.6537  1.1641  0.4538
11371TIP3   OH255603   2.907   0.991  14.084 -0.1468 -0.1267 -0.6974
11371TIP3    H155604   2.885   1.025  13.998  0.7328 -0.1573 -0.9371
11371TIP3    H255605   2.975   0.926  14.068  2.8460  2.6109  0.3437
11372TIP3   OH255606   1.295   1.861   2.219  0.1513 -0.1244  0.2646
11372TIP3    H155607   1.373   1.885   2.170 -0.1595 -3.1506 -1.8365
11372TIP3    H255608   1.223   1.897   2.168 -0.0769 -1.8330 -0.6571
11373TIP3   OH255609   4.495   2.214  15.822 -0.0220  0.8075  0.4851
11373TIP3    H155610   4.487   2.283  15.756 -0.4460  1.1477  0.8913
11373TIP3    H255611   4.408   2.206  15.860 -0.6833 -1.8550 -1.4460
11374TIP3   OH255612   4.761   4.248  14.164  0.6474 -0.3349 -0.8511
11374TIP3    H155613   4.805   4.176  14.209  0.0392 -1.8612 -2.6680
11374TIP3    H255614   4.736   4.308  14.234 -0.6713 -2.8766  0.9113
11375TIP3   OH255615   3.106   1.120   3.360 -0.0730  0.4460  0.1626
11375TIP3    H155616   3.143   1.155   3.278 -2.1811 -1.6316 -1.7450
11375TIP3    H255617   3.021   1.164   3.368 -0.3647 -0.2032  0.6419
11376TIP3   OH255618   4.263   2.167  14.372  0.7604 -0.4358  0.1060
11376TIP3    H155619   4.335   2.132  14.319  0.6190  0.0172 -0.3797
11376TIP3    H255620   4.184   2.126  14.336  0.7893 -1.0997  0.7760
11377TIP3   OH255621   1.083   0.219   4.748 -0.1272  0.2282 -0.0526
11377TIP3    H155622   1.024   0.287   4.715  0.2337 -0.3367 -1.9260
11377TIP3    H255623   1.028   0.164   4.804 -1.3463 -0.1582 -1.5925
11378TIP3   OH255624   6.189   3.153   2.697 -0.0534 -0.0824  0.6319
11378TIP3    H155625   6.186   3.192   2.784  1.5214  0.2819  0.5315
11378TIP3    H255626   6.101   3.117   2.684 -0.7443  1.1524  1.7667
11379TIP3   OH255627   5.805   5.726  11.775  0.2492  0.1647  0.0066
11379TIP3    H155628   5.855   5.649  11.748  0.5041  0.1317  0.5671
11379TIP3    H255629   5.789   5.774  11.693  1.6302  0.4360 -0.1118
11380TIP3   OH255630   0.420   4.675  16.120 -0.1567 -0.2885 -0.4069
11380TIP3    H155631   0.397   4.749  16.065 -2.1788  0.2610  1.1389
11380TIP3    H255632   0.440   4.713  16.206 -2.1195 -1.5821  0.6616
11381TIP3   OH255633   5.183   0.123   6.229 -0.8403  0.5358 -0.4746
11381TIP3    H155634   5.260   0.179   6.241 -1.8974  1.7339  0.9652
11381TIP3    H255635   5.203   0.043   6.277 -0.4406  0.8012 -0.1959
11382TIP3   OH255636   5.361   3.135   4.157 -0.0833  0.5021 -0.1797
11382TIP3    H155637   5.432   3.075   4.134  0.2387  1.2370 -1.1258
11382TIP3    H255638   5.392   3.181   4.234  1.0478  1.7841 -1.3806
11383TIP3   OH255639   3.352   1.005   0.068  0.1430  0.1976 -0.0855
11383TIP3    H155640   3.434   1.044   0.097  0.5288  0.6599 -1.7492
11383TIP3    H255641   3.305   1.077   0.024 -1.4343  0.1070  1.4071
11384TIP3   OH255642   5.010   4.975   5.142 -0.1767 -0.0449 -0.0555
11384TIP3    H155643   4.927   5.020   5.163 -0.2970 -0.8971  1.3558
11384TIP3    H255644   4.992   4.928   5.061 -0.2664  1.8773 -1.1827
11385TIP3   OH255645   1.641   0.095   4.769  0.5706 -0.2916  0.4188
11385TIP3    H155646   1.663   0.014   4.816  0.6606 -1.1468 -1.0686
11385TIP3    H255647   1.702   0.160   4.804  1.9890 -1.3980  0.0734
11386TIP3   OH255648   3.632   5.522   5.270 -0.3427 -0.0361  0.3368
11386TIP3    H155649   3.612   5.466   5.344 -0.9402  1.2975  1.2096
11386TIP3    H255650   3.701   5.581   5.302  1.6241 -1.4790 -1.1571
11387TIP3   OH255651   0.010   0.903   5.910 -0.1291 -0.3466  0.3452
11387TIP3    H155652  -0.004   0.984   5.959  1.9818 -0.8356  1.8494
11387TIP3    H255653   0.090   0.919   5.859  1.3371 -2.0353  2.0171
11388TIP3   OH255654   1.516   6.742   2.268 -0.6814 -0.0855  0.2576
11388TIP3    H155655   1.593   6.787   2.304 -1.9529  0.8850  1.8064
11388TIP3    H255656   1.537   6.729   2.176  0.3396  2.3704  0.1073
11389TIP3   OH255657   1.394   6.540   2.411 -0.2703  0.0475  0.3910
11389TIP3    H155658   1.461   6.572   2.350  0.2463  0.2687  1.0650
11389TIP3    H255659   1.436   6.544   2.497 -1.6472  1.5794  1.0145
11390TIP3   OH255660   1.507   2.849   0.667 -0.5716 -0.4846 -0.0575
11390TIP3    H155661   1.445   2.801   0.723 -1.2961  1.4288  0.8045
11390TIP3    H255662   1.460   2.928   0.642  1.5818  1.0922  0.7528
11391TIP3   OH255663   5.891   2.826   2.141  0.0963 -0.1046  0.1482
11391TIP3    H155664   5.829   2.807   2.071  2.2142  0.7578 -2.0219
11391TIP3    H255665   5.964   2.869   2.097  0.5733  2.3550  3.1794
11392TIP3   OH255666   6.322   1.723   3.567  0.0495 -0.2421 -0.1179
11392TIP3    H155667   6.382   1.759   3.633 -1.2022 -0.4520  1.1487
11392TIP3    H255668   6.294   1.640   3.604 -1.1825 -0.0486 -0.6088
11393TIP3   OH255669   4.884   3.964  13.181  0.1016 -0.1730  0.5193
11393TIP3    H155670   4.879   3.871  13.158  0.7723 -0.9458  3.2553
11393TIP3    H255671   4.818   3.975  13.250  0.3501  1.2800  0.5515
11394TIP3   OH255672   3.213   6.096   5.052  0.4198 -0.5025  0.4162
11394TIP3    H155673   3.130   6.057   5.080  0.0230  0.5927  0.7934
11394TIP3    H255674   3.278   6.060   5.111  0.4027 -2.2121 -0.5509
11395TIP3   OH255675   5.217   1.265   4.084 -0.0447 -0.3226 -0.1313
11395TIP3    H155676   5.198   1.208   4.159 -0.2387 -1.3040 -0.9103
11395TIP3    H255677   5.170   1.346   4.103  0.2278 -0.4195  0.9949
11396TIP3   OH255678   5.591   3.923  12.538  0.1085  0.1674 -0.2145
11396TIP3    H155679   5.567   3.913  12.630  0.0287 -0.0897 -0.2619
11396TIP3    H255680   5.511   3.950  12.494  0.8816  3.5715  0.3143
11397TIP3   OH255681   6.349   0.300   2.758 -0.0838  0.1703 -0.4054
11397TIP3    H155682   6.286   0.237   2.724 -0.7252  0.4477  0.2430
11397TIP3    H255683   6.354   0.281   2.852  1.3149 -0.2878 -0.5558
11398TIP3   OH255684   3.334   4.531  13.708 -0.4846  0.1054 -0.2069
11398TIP3    H155685   3.367   4.511  13.621  0.3268 -0.1097  0.1519
11398TIP3    H255686   3.251   4.482  13.714 -0.0357 -0.6983 -0.4772
11399TIP3   OH255687   5.385   6.655  14.368 -0.1129 -0.2762 -0.0015
11399TIP3    H155688   5.353   6.639  14.279 -1.1467  0.7708  0.1663
11399TIP3    H255689   5.305   6.658  14.421  0.4171  0.3058  0.7612
11400TIP3   OH255690   5.187   1.297  16.531 -0.0408 -0.0323 -0.5941
11400TIP3    H155691   5.108   1.329  16.573 -0.7153  0.0372 -1.8930
11400TIP3    H255692   5.159   1.269  16.444  1.1824 -0.8794 -0.7380
11401TIP3   OH255693   6.561   2.419   1.458 -0.3064  0.1445  0.9742
11401TIP3    H155694   6.466   2.411   1.459 -0.2789 -0.9243 -0.9122
11401TIP3    H255695   6.590   2.375   1.538 -1.3531 -0.5820  0.9680
11402TIP3   OH255696   1.871   4.847   0.361  0.0233 -0.3345 -0.0044
11402TIP3    H155697   1.840   4.846   0.452 -0.5052 -0.2189 -0.1777
11402TIP3    H255698   1.961   4.877   0.366 -0.4351  1.0262  0.3604
11403TIP3   OH255699   3.822   1.229   0.729 -0.1950  0.1747 -0.4018
11403TIP3    H155700   3.794   1.296   0.667  0.4625  0.1935 -0.6742
11403TIP3    H255701   3.901   1.191   0.690  0.4019  0.4106  0.5821
11404TIP3   OH255702   1.228   4.684   4.605 -0.5302  0.2846 -0.5445
11404TIP3    H155703   1.261   4.749   4.667  2.3625 -1.6652  0.0791
11404TIP3    H255704   1.203   4.609   4.658 -0.7592 -0.3280 -1.4919
11405TIP3   OH255705   4.965   4.432  10.990 -0.4247  0.3532 -0.1682
11405TIP3    H155706   4.953   4.393  11.077  0.4006 -1.8390 -1.0002
11405TIP3    H255707   5.060   4.428  10.975 -0.3563  2.3880 -0.4380
11406TIP3   OH255708   5.405   4.519   1.513  0.3018 -0.2785  0.5427
11406TIP3    H155709   5.322   4.512   1.560 -0.2997  0.4503 -0.3825
11406TIP3    H255710   5.380   4.513   1.420  0.9926  2.4911  0.1337
11407TIP3   OH255711   3.628   4.560  12.517 -0.4041 -0.2645 -0.1159
11407TIP3    H155712   3.573   4.544  12.594  0.2270 -3.2430 -0.2413
11407TIP3    H255713   3.716   4.536  12.545 -0.1648 -1.3046 -1.7234
11408TIP3   OH255714   4.577   0.468  16.517  0.2067  0.0430  0.2167
11408TIP3    H155715   4.564   0.498  16.607  0.5585  1.0418 -0.0487
11408TIP3    H255716   4.550   0.376  16.517 -0.0349  0.1143  1.2826
11409TIP3   OH255717   0.098   2.040   2.431  0.3394  0.3293 -0.0792
11409TIP3    H155718   0.042   2.080   2.364  0.7364 -0.1765 -0.7170
11409TIP3    H255719   0.037   1.987   2.484  0.0832  0.4254 -0.2765
11410TIP3   OH255720   6.508   3.446   0.420  0.1867  0.0061  0.0344
11410TIP3    H155721   6.592   3.417   0.454  0.2853 -0.9953 -1.0180
11410TIP3    H255722   6.477   3.511   0.483  0.3936 -1.7267  1.9548
11411TIP3   OH255723   0.710   0.443  15.041 -0.3485 -0.1466 -0.0646
11411TIP3    H155724   0.805   0.449  15.045 -0.2201 -2.2464  0.3513
11411TIP3    H255725   0.692   0.385  14.967 -1.2989  0.0069  0.0314
11412TIP3   OH255726   3.158   0.511  14.093  0.1439  0.3478  0.6800
11412TIP3    H155727   3.194   0.570  14.159  1.1597  0.4887  0.0174
11412TIP3    H255728   3.076   0.479  14.131 -0.3464  2.0586  1.1085
11413TIP3   OH255729   4.771   2.277  13.394  0.1107  0.1817  0.4351
11413TIP3    H155730   4.701   2.212  13.400 -0.8388  1.1932  0.5192
11413TIP3    H255731   4.851   2.226  13.384 -0.5364 -1.0135  1.3346
11414TIP3   OH255732   4.770   1.496   6.352  0.4576 -0.2284 -0.1839
11414TIP3    H155733   4.744   1.412   6.391 -1.7215  0.1260 -0.7912
11414TIP3    H255734   4.835   1.531   6.413 -0.2829 -1.3276  1.2870
11415TIP3   OH255735   4.173   3.844   3.546 -0.1256  0.2123  0.4190
11415TIP3    H155736   4.131   3.910   3.491 -1.1812  0.2954  1.2991
11415TIP3    H255737   4.200   3.893   3.624 -1.3004 -0.4576  1.2680
11416TIP3   OH255738   0.150   1.233   2.291  0.2426  0.4373  0.5205
11416TIP3    H155739   0.068   1.280   2.300  0.6488  0.7923  2.4741
11416TIP3    H255740   0.209   1.274   2.354  1.5952 -0.5275 -0.0873
11417TIP3   OH255741   1.616   5.216   2.543  0.0704 -0.6803  0.0258
11417TIP3    H155742   1.698   5.246   2.583 -0.2056 -0.5897  0.5364
11417TIP3    H255743   1.641   5.182   2.457  0.5273  0.0985 -0.1512
11418TIP3   OH255744   5.232   3.955   6.466 -0.1369  0.1599  0.6989
11418TIP3    H155745   5.142   3.975   6.440 -0.9401 -0.4650  2.9167
11418TIP3    H255746   5.248   4.011   6.542  1.0838 -0.3019  0.7911
11419TIP3   OH255747   4.179   0.135  10.961  0.6354 -0.6171  0.3308
11419TIP3    H155748   4.207   0.106  10.874  0.9792 -0.5789  0.4280
11419TIP3    H255749   4.159   0.228  10.950 -0.2246 -0.8264  0.0747
11420TIP3   OH255750   4.955   3.498   3.065  0.5959 -0.4833  0.7956
11420TIP3    H155751   4.910   3.534   2.988  0.0570 -0.4850  1.1097
11420TIP3    H255752   4.979   3.575   3.117  0.2341 -0.5294  1.0291
11421TIP3   OH255753   4.842   3.237   3.468 -0.0209 -0.5392  0.4552
11421TIP3    H155754   4.859   3.195   3.384 -0.8916  0.6619 -0.3486
11421TIP3    H255755   4.923   3.285   3.488 -0.0136 -0.3628  0.0113
11422TIP3   OH255756   1.883   1.305  12.553 -0.2265  0.0023 -0.0419
11422TIP3    H155757   1.850   1.388  12.587  1.1240  0.8692 -0.8302
11422TIP3    H255758   1.836   1.238  12.603  1.1795  1.2304  3.0413
11423TIP3   OH255759   2.789   4.931   3.542  0.2981  0.3374 -0.5546
11423TIP3    H155760   2.741   4.977   3.610 -0.5946 -0.4358 -0.6520
11423TIP3    H255761   2.813   4.848   3.582  0.8205  0.3803 -0.7840
11424TIP3   OH255762   0.612   1.258  14.078 -0.0527 -0.0487  0.3569
11424TIP3    H155763   0.575   1.179  14.116 -0.6906  0.9685  1.9502
11424TIP3    H255764   0.571   1.266  13.992 -1.3886 -0.4544  0.9420
11425TIP3   OH255765   2.116   6.524   6.690  0.4545 -0.4333 -0.6560
11425TIP3    H155766   2.021   6.529   6.694  0.4506  0.5055 -1.5090
11425TIP3    H255767   2.138   6.442   6.734 -0.7769 -0.8736 -0.8282
11426TIP3   OH255768   1.120   5.816  14.438 -0.3579  0.0507 -0.2220
11426TIP3    H155769   1.085   5.733  14.470  0.9735 -0.5258 -0.2499
11426TIP3    H255770   1.164   5.854  14.514  1.0740 -0.3761 -0.8311
11427TIP3   OH255771   0.236   0.641   1.434 -0.0036 -0.2531  0.6706
11427TIP3    H155772   0.248   0.680   1.347  1.5796  2.4430  2.0361
11427TIP3    H255773   0.279   0.555   1.428 -0.8861 -0.5812 -1.4980
11428TIP3   OH255774   6.236   4.602   1.817  0.3153  0.2868 -0.4922
11428TIP3    H155775   6.306   4.537   1.821  1.7030  1.7303 -0.6604
11428TIP3    H255776   6.241   4.648   1.901 -1.9220 -1.0475  0.4322
11429TIP3   OH255777   1.168   0.315   2.165 -0.0940 -0.1370  0.1719
11429TIP3    H155778   1.081   0.279   2.182 -0.4735  1.1264  0.9585
11429TIP3    H255779   1.158   0.410   2.177  1.3472  0.0354  0.1191
11430TIP3   OH255780   5.088   6.807   1.549 -0.0328  0.1559 -0.4948
11430TIP3    H155781   5.180   6.798   1.523 -0.1686  0.6502 -1.1740
11430TIP3    H255782   5.091   6.832   1.641  0.4730 -1.5740 -0.0049
11431TIP3   OH255783   3.589   3.743   1.367  0.0885  0.2563 -0.2677
11431TIP3    H155784   3.509   3.775   1.411  1.0570  2.8586 -0.3087
11431TIP3    H255785   3.651   3.730   1.438  0.6154  1.3028 -0.5278
11432TIP3   OH255786   0.025   3.623   6.214  0.0969 -0.3460  0.3508
11432TIP3    H155787   0.032   3.538   6.258  1.6417 -0.1051  0.5991
11432TIP3    H255788   0.115   3.648   6.196 -0.1827  2.3537  2.3998
11433TIP3   OH255789   1.721   3.818  11.101 -0.6479  0.1598 -0.1441
11433TIP3    H155790   1.654   3.750  11.094 -1.6253  1.0240  0.7347
11433TIP3    H255791   1.735   3.829  11.194 -3.1556  3.6771 -0.0601
11434TIP3   OH255792   3.722   4.710  14.766  0.5805  0.3383 -0.4282
11434TIP3    H155793   3.660   4.643  14.795 -1.0583  1.7154 -0.6847
11434TIP3    H255794   3.715   4.710  14.671 -0.7837  2.1263 -0.3438
11435TIP3   OH255795   0.257   5.894  11.799  0.5185 -0.5917 -0.0478
11435TIP3    H155796   0.327   5.954  11.823 -2.1623  3.3785 -1.5445
11435TIP3    H255797   0.207   5.882  11.881  1.4163 -1.3264  0.4006
11436TIP3   OH255798   1.366   1.415   1.787 -0.2996  0.2458 -0.1363
11436TIP3    H155799   1.303   1.372   1.845 -0.2561 -0.1379 -0.3672
11436TIP3    H255800   1.313   1.456   1.719 -0.2495 -1.5950 -1.3583
11437TIP3   OH255801   1.930   0.928  14.333  0.0928 -0.2392  0.3972
11437TIP3    H155802   1.942   0.952  14.425  0.6240 -0.0863  0.2853
11437TIP3    H255803   1.914   1.011  14.289 -1.5328 -0.4377  0.5610
11438TIP3   OH255804   3.063   5.464   5.643 -0.2754  0.1150 -0.3994
11438TIP3    H155805   3.076   5.424   5.729  0.4207  0.8965 -0.1409
11438TIP3    H255806   3.142   5.515   5.627 -0.0831 -0.5794 -1.8263
11439TIP3   OH255807   4.320   6.714  11.070 -0.2377  0.5468  0.1579
11439TIP3    H155808   4.284   6.712  11.159 -1.4246 -0.1991 -0.3343
11439TIP3    H255809   4.282   6.791  11.030 -0.8518  0.0706 -0.1795
11440TIP3   OH255810   2.346   3.502   2.648 -0.1253  0.0538  0.2351
11440TIP3    H155811   2.432   3.506   2.605 -0.6948  1.7555 -0.7986
11440TIP3    H255812   2.327   3.409   2.656  1.4514 -0.3223 -0.2701
11441TIP3   OH255813   2.753   2.392   1.777 -0.5454 -0.3160 -0.3346
11441TIP3    H155814   2.695   2.440   1.718 -0.2870 -0.2125 -0.5111
11441TIP3    H255815   2.764   2.450   1.852  0.0444  0.0580 -0.7036
11442TIP3   OH255816   2.433   0.997  16.487  0.3010  0.0257 -0.8561
11442TIP3    H155817   2.364   0.977  16.423 -0.4971 -2.2080  0.6396
11442TIP3    H255818   2.508   0.946  16.458  0.0843 -0.6205 -0.2899
11443TIP3   OH255819   4.411   6.596   1.175 -0.2815  0.6517  0.6740
11443TIP3    H155820   4.448   6.557   1.095 -2.2694 -0.1536  0.1012
11443TIP3    H255821   4.362   6.672   1.144 -1.2847  0.1813  1.0604
11444TIP3   OH255822   1.840   1.134  15.470  0.1607  0.1132  0.2454
11444TIP3    H155823   1.762   1.185  15.445 -0.2044  0.0818  1.2968
11444TIP3    H255824   1.870   1.095  15.387  1.2041  3.0427 -0.8164
11445TIP3   OH255825   0.122   3.904   0.674  0.2352  0.4113  0.0292
11445TIP3    H155826   0.080   3.851   0.742  0.8141  1.6495  1.3777
11445TIP3    H255827   0.213   3.914   0.704  0.3109  1.5680 -0.5529
11446TIP3   OH255828   3.812   1.209   4.452  0.8557  0.6094  0.2332
11446TIP3    H155829   3.805   1.115   4.464  0.0961  0.5756 -0.4340
11446TIP3    H255830   3.725   1.237   4.425  1.3559  1.3349 -0.6844
11447TIP3   OH255831   5.306   2.571  15.968 -0.3026  0.6266  0.2269
11447TIP3    H155832   5.261   2.656  15.962  1.5469  1.7107  1.5315
11447TIP3    H255833   5.394   2.588  15.936 -0.5381 -1.3336 -1.5895
11448TIP3   OH255834   3.773   5.861  11.816  0.1702  0.0113  0.2814
11448TIP3    H155835   3.688   5.902  11.799 -1.2595 -3.5464 -1.7271
11448TIP3    H255836   3.758   5.805  11.891  1.3921  1.0687  1.3410
11449TIP3   OH255837   1.450   3.811  12.477 -0.2853 -0.0384 -0.3254
11449TIP3    H155838   1.460   3.902  12.505  1.2631 -0.0060 -0.9434
11449TIP3    H255839   1.483   3.810  12.387 -0.1356 -1.2473 -0.2610
11450TIP3   OH255840   1.785   3.286   3.634 -0.2406  0.0019  0.2044
11450TIP3    H155841   1.789   3.371   3.589  0.3449 -2.1805 -4.1928
11450TIP3    H255842   1.691   3.266   3.637 -0.4641  1.2442  2.2395
11451TIP3   OH255843   1.747   5.085  13.652  0.3784  0.2181 -0.0300
11451TIP3    H155844   1.728   5.145  13.580  0.2211 -1.6542 -1.5994
11451TIP3    H255845   1.668   5.088  13.706  0.7006  2.0299  0.3740
11452TIP3   OH255846   0.656   3.113  14.787 -0.3213 -1.0957  0.3054
11452TIP3    H155847   0.700   3.114  14.702  0.7699 -0.4812  0.8686
11452TIP3    H255848   0.564   3.098  14.766 -0.0773 -0.8338 -0.9968
11453TIP3   OH255849   5.747   3.718  15.149 -0.0228  0.7828 -0.5088
11453TIP3    H155850   5.841   3.710  15.168 -0.2695  1.0287  0.8801
11453TIP3    H255851   5.724   3.806  15.180 -1.0984  0.0330  0.8736
11454TIP3   OH255852   2.275   3.752   5.954  0.1845  0.2209  0.1519
11454TIP3    H155853   2.337   3.783   5.888  0.0980  0.3315  0.1213
11454TIP3    H255854   2.302   3.798   6.034 -0.7410  1.3785 -0.1800
11455TIP3   OH255855   2.685   4.127  16.340 -0.0289 -0.1684 -0.3018
11455TIP3    H155856   2.675   4.158  16.250  1.2539  0.8133 -0.1152
11455TIP3    H255857   2.778   4.104  16.348  0.1967  1.1576  1.2043
11456TIP3   OH255858   6.115   5.883   2.679  0.1591 -0.5361  0.0668
11456TIP3    H155859   6.136   5.974   2.658  1.6467 -0.9672 -0.3768
11456TIP3    H255860   6.126   5.876   2.773 -2.1882  0.3019  0.4257
11457TIP3   OH255861   0.746   6.035  13.658 -0.5055 -0.0079 -0.2315
11457TIP3    H155862   0.674   6.097  13.647 -0.1778  0.5702  0.8549
11457TIP3    H255863   0.809   6.059  13.590 -0.0541  1.3285  0.6353
11458TIP3   OH255864   3.559   5.952   4.071 -0.7643  0.3378 -0.2128
11458TIP3    H155865   3.576   5.984   4.160 -0.5272  1.5960 -0.7039
11458TIP3    H255866   3.530   5.862   4.084 -0.4088  0.3939  1.1218
11459TIP3   OH255867   5.495   6.745   3.819 -0.0831  0.1039  0.1451
11459TIP3    H155868   5.497   6.675   3.755 -0.3274  0.6091 -0.4270
11459TIP3    H255869   5.477   6.824   3.768 -3.8558  0.0560  1.1791
11460TIP3   OH255870   3.620   1.297   6.710  0.1994 -0.3398  0.1460
11460TIP3    H155871   3.673   1.363   6.666 -2.4445  1.6980 -0.1329
11460TIP3    H255872   3.562   1.264   6.641  0.0330 -1.3643  0.7820
11461TIP3   OH255873   5.775   6.792   6.136  0.8295  0.2232  0.1070
11461TIP3    H155874   5.713   6.825   6.201 -0.2635 -0.2759 -0.6820
11461TIP3    H255875   5.861   6.814   6.172  0.2595 -0.7346  2.1069
11462TIP3   OH255876   1.827   1.355  16.764  0.0556  0.3883 -0.5475
11462TIP3    H155877   1.830   1.305  16.845  0.6566  0.8114 -0.3062
11462TIP3    H255878   1.907   1.407  16.764  0.0840  0.3609 -1.4352
11463TIP3   OH255879   2.072   4.426  13.486 -0.5207 -0.0505 -0.6744
11463TIP3    H155880   2.080   4.363  13.557 -1.3685  2.3300  1.6298
11463TIP3    H255881   1.994   4.399  13.438 -1.4455 -0.2225  0.8899
11464TIP3   OH255882   3.714   2.304  13.551  0.4334  0.0989 -0.3197
11464TIP3    H155883   3.730   2.233  13.613  0.3854 -0.4141 -0.8916
11464TIP3    H255884   3.620   2.300  13.534  0.6577 -0.5849 -1.4162
11465TIP3   OH255885   3.137   3.658  13.908  0.2292 -0.1661  0.0372
11465TIP3    H155886   3.094   3.575  13.925  0.7814 -0.6685 -0.9689
11465TIP3    H255887   3.128   3.707  13.990 -3.2540  0.2145 -0.5193
11466TIP3   OH255888   5.819   3.628  14.437  0.0045  0.2291 -0.1949
11466TIP3    H155889   5.867   3.708  14.415  1.9531 -0.7724  0.2704
11466TIP3    H255890   5.809   3.631  14.532  0.3404 -0.2018 -0.1437
11467TIP3   OH255891   5.788   0.025  14.935 -0.0964  0.2018  0.1000
11467TIP3    H155892   5.766  -0.013  14.849  1.1978 -0.2525 -0.0261
11467TIP3    H255893   5.733  -0.022  14.997 -2.2734  1.6499 -0.6475
11468TIP3   OH255894   3.713   5.735  15.095  0.5681  0.3204  0.5423
11468TIP3    H155895   3.663   5.663  15.132  0.2852  0.6584  0.8261
11468TIP3    H255896   3.762   5.771  15.168  1.6466 -0.3557  0.1470
11469TIP3   OH255897   5.103   6.283  12.819 -0.9002 -0.9190  0.5722
11469TIP3    H155898   5.030   6.280  12.758 -0.5087 -0.1260  0.0548
11469TIP3    H255899   5.113   6.376  12.840 -0.8932 -1.1618  1.6811
11470TIP3   OH255900   3.806   5.017   2.136 -0.6494 -0.0047 -0.7327
11470TIP3    H155901   3.850   4.935   2.114 -0.3224 -0.0254 -0.0343
11470TIP3    H255902   3.817   5.072   2.059  1.2782  0.2696 -0.2730
11471TIP3   OH255903   2.597   4.426   2.252  0.2680  0.9349  0.3488
11471TIP3    H155904   2.522   4.436   2.312 -0.4820 -0.9486 -0.2393
11471TIP3    H255905   2.569   4.471   2.172  0.4323  1.6597  0.6965
11472TIP3   OH255906   5.787   4.323  12.934 -0.3337  0.0629  0.0304
11472TIP3    H155907   5.721   4.258  12.910 -0.9958  1.3884 -1.8576
11472TIP3    H255908   5.742   4.407  12.924  0.8148  0.8738  1.4600
11473TIP3   OH255909   4.530   4.956   5.818  0.3072 -0.0925  0.5574
11473TIP3    H155910   4.518   5.043   5.856  0.4751 -0.0095  0.4229
11473TIP3    H255911   4.623   4.936   5.834  0.5440  0.2191 -0.3710
11474TIP3   OH255912   5.538   6.445   1.603 -0.0473 -0.2867  0.2038
11474TIP3    H155913   5.539   6.521   1.545  1.8772 -0.9576 -0.6749
11474TIP3    H255914   5.471   6.388   1.564 -0.0318  0.0475 -0.3224
11475TIP3   OH255915   5.565   0.229  11.185 -0.3676  0.0472 -0.2225
11475TIP3    H155916   5.604   0.314  11.208  0.5650  0.0022 -1.5557
11475TIP3    H255917   5.478   0.251  11.151  0.1321  0.5424 -1.2000
11476TIP3   OH255918   0.937   0.529  16.603  0.1524 -0.4598 -0.4046
11476TIP3    H155919   0.919   0.618  16.631  1.6602 -1.1464  3.0014
11476TIP3    H255920   1.033   0.523  16.603  0.0617 -2.0485 -0.6441
11477TIP3   OH255921   0.874   5.857   3.620 -0.4648  0.0345  0.2861
11477TIP3    H155922   0.801   5.900   3.664 -1.7098 -2.9888  1.3397
11477TIP3    H255923   0.833   5.798   3.557  1.1048 -0.5076 -0.2550
11478TIP3   OH255924   1.999   3.671  13.601 -0.1159 -0.0257 -0.6334
11478TIP3    H155925   2.080   3.720  13.589  0.9136 -1.5391  0.0156
11478TIP3    H255926   1.930   3.738  13.603  1.2055  1.3355 -0.2743
11479TIP3   OH255927   4.860   6.412   1.924  0.4102 -0.2037  0.2038
11479TIP3    H155928   4.764   6.411   1.928  0.2888  0.8181 -1.8060
11479TIP3    H255929   4.880   6.391   1.833  2.0811  0.2561  0.4574
11480TIP3   OH255930   4.524   4.778  11.708 -0.7065  0.8564 -0.1393
11480TIP3    H155931   4.589   4.776  11.637 -1.0900 -0.0040 -0.4690
11480TIP3    H255932   4.574   4.804  11.785 -0.6244  3.5786 -1.0713
11481TIP3   OH255933   1.572   3.612  14.443 -0.1187  0.4454  0.2527
11481TIP3    H155934   1.664   3.619  14.469  0.4091 -0.8018 -1.2076
11481TIP3    H255935   1.561   3.519  14.422 -1.4456  0.7918 -0.5816
11482TIP3   OH255936   6.081   5.676  15.278 -0.5428  0.0998 -0.2803
11482TIP3    H155937   6.150   5.727  15.319 -0.0346 -0.5404 -0.3372
11482TIP3    H255938   6.001   5.704  15.322 -0.4374  1.8297 -1.1390
11483TIP3   OH255939   5.645   4.135  12.803  0.0016  0.5500 -0.0892
11483TIP3    H155940   5.573   4.085  12.842  0.9627  0.4688  1.6722
11483TIP3    H255941   5.721   4.076  12.810  0.7977  1.6243  0.5340
11484TIP3   OH255942   4.513   3.585  17.029  0.0041  0.2992  0.4991
11484TIP3    H155943   4.575   3.551  16.965 -2.3429 -1.6997 -0.7834
11484TIP3    H255944   4.509   3.679  17.011  0.2759 -0.0585 -1.5044
11485TIP3   OH255945   5.319   4.237   3.223 -0.6046  0.0072  0.0632
11485TIP3    H155946   5.233   4.277   3.234  0.0225  1.1430  0.9644
11485TIP3    H255947   5.317   4.197   3.136 -3.0922 -2.6458  1.2490
11486TIP3   OH255948   2.254   4.869  11.079 -0.3804  0.2927 -0.2563
11486TIP3    H155949   2.349   4.860  11.071 -0.2719  0.4048  0.7624
11486TIP3    H255950   2.220   4.780  11.073 -0.1578  0.1938 -0.0677
11487TIP3   OH255951   2.076   6.779  12.918  0.4191 -0.0241  0.0037
11487TIP3    H155952   2.015   6.727  12.866 -0.4749  0.3038  0.7151
11487TIP3    H255953   2.021   6.825  12.981  1.5842 -1.2763  1.9883
11488TIP3   OH255954   2.560   3.231   3.623  0.3191  0.0301 -0.4867
11488TIP3    H155955   2.638   3.281   3.649  0.3759 -0.0400 -0.5203
11488TIP3    H255956   2.531   3.273   3.542 -0.2606  0.6755  0.0559
11489TIP3   OH255957   0.780   3.492   6.183 -0.1030  1.0962  0.1542
11489TIP3    H155958   0.828   3.458   6.259  1.0950  0.2545 -0.9471
11489TIP3    H255959   0.748   3.578   6.212  1.9824  1.6453  0.9899
11490TIP3   OH255960   1.430   6.576   2.924 -0.2308 -0.5187  0.0209
11490TIP3    H155961   1.386   6.606   3.004  0.5054 -0.9706  0.6042
11490TIP3    H255962   1.371   6.508   2.889 -0.2719 -0.7333  0.4998
11491TIP3   OH255963   4.494   4.306   4.125 -0.1067  0.0319  0.3319
11491TIP3    H155964   4.448   4.242   4.071  1.4137 -0.2229 -0.6738
11491TIP3    H255965   4.535   4.254   4.194 -2.1986  0.3751  1.8923
11492TIP3   OH255966   5.611   4.540  12.858 -0.2396  0.5490  0.4956
11492TIP3    H155967   5.522   4.574  12.846 -0.4700 -0.4335 -0.7178
11492TIP3    H255968   5.666   4.618  12.863 -0.9459  1.1542 -0.7134
11493TIP3   OH255969   0.222   4.758   1.746  0.3663 -0.2683  0.3968
11493TIP3    H155970   0.227   4.664   1.758 -2.3322 -0.7660 -1.7959
11493TIP3    H255971   0.271   4.775   1.665 -0.6372 -0.0656 -0.1835
11494TIP3   OH255972   4.120   3.542  10.875 -0.3905 -0.6510 -0.4688
11494TIP3    H155973   4.113   3.455  10.835  0.8100 -0.1726 -1.7804
11494TIP3    H255974   4.214   3.556  10.887 -0.5732  0.4064 -0.1625
11495TIP3   OH255975   6.599   5.603   2.732  0.1203 -0.2503  0.2929
11495TIP3    H155976   6.552   5.612   2.650 -0.4754  0.9196  0.7493
11495TIP3    H255977   6.574   5.516   2.764 -1.3444  0.1442  0.2813
11496TIP3   OH255978   5.752   6.561  14.656 -0.0813  1.5014 -0.6016
11496TIP3    H155979   5.685   6.493  14.646  0.3578  0.8657  0.6671
11496TIP3    H255980   5.703   6.639  14.681 -0.2891  0.7249  1.6226
11497TIP3   OH255981   4.364   2.517   3.601  0.3286  0.1021  0.0462
11497TIP3    H155982   4.287   2.512   3.658  0.1736 -3.7472 -0.3636
11497TIP3    H255983   4.328   2.523   3.512  0.5563  1.5461  0.0367
11498TIP3   OH255984   0.646   5.123  15.986  0.1618  0.5304  0.4693
11498TIP3    H155985   0.643   5.117  16.082  1.3148  0.8930  0.5370
11498TIP3    H255986   0.631   5.034  15.956  1.8464  0.0414  1.0424
11499TIP3   OH255987   1.251   4.859  17.133 -0.1226 -0.6968 -0.8971
11499TIP3    H155988   1.306   4.919  17.083  0.1169  0.1119  0.3051
11499TIP3    H255989   1.162   4.890  17.118 -0.1213 -0.9609 -1.4765
11500TIP3   OH255990   6.295   3.309   0.319  0.1068 -0.2172  0.4326
11500TIP3    H155991   6.229   3.329   0.386  0.9632 -0.3565  1.3359
11500TIP3    H255992   6.365   3.373   0.335  0.8311 -1.0023  0.4036
11501TIP3   OH255993   5.193   3.144   6.347  0.0053  0.1767  0.3067
11501TIP3    H155994   5.161   3.062   6.312 -1.3089  0.0969  1.6157
11501TIP3    H255995   5.225   3.122   6.435 -0.4105  1.0574  0.6913
11502TIP3   OH255996   4.254   3.560  16.652 -0.2977  0.3516 -0.2500
11502TIP3    H155997   4.223   3.520  16.570 -1.0738  1.0180 -0.2799
11502TIP3    H255998   4.296   3.488  16.699  0.7092  0.0985 -1.5166
11503TIP3   OH255999   5.486   0.164   4.519  0.1622  0.0018 -0.0999
11503TIP3    H156000   5.393   0.186   4.509  0.3246  0.7277  0.0031
11503TIP3    H256001   5.506   0.186   4.610  0.7106  0.8625 -0.4202
11504TIP3   OH256002   2.611   6.349   4.221  0.1631 -0.7793 -0.3937
11504TIP3    H156003   2.632   6.432   4.265 -5.4397  1.5193 -1.5792
11504TIP3    H256004   2.582   6.292   4.292 -0.1851 -0.1764 -0.0409
11505TIP3   OH256005   6.237   4.798  10.689  0.6667  0.2103 -0.4493
11505TIP3    H156006   6.295   4.736  10.646  0.8849  0.0847  0.0331
11505TIP3    H256007   6.236   4.874  10.630  2.9640  1.0604  0.5627
11506TIP3   OH256008   0.873   0.370   4.624 -0.5153 -0.5311  0.1022
11506TIP3    H156009   0.919   0.419   4.555  0.5351  0.8928  1.7425
11506TIP3    H256010   0.824   0.437   4.672 -0.9528 -1.4368  0.9395
11507TIP3   OH256011   4.203   2.097   5.564  0.7364  0.0494 -0.1845
11507TIP3    H156012   4.154   2.029   5.517  0.4480 -0.6159  1.0494
11507TIP3    H256013   4.295   2.077   5.546  0.6926 -1.2196  0.8659
11508TIP3   OH256014   0.565   4.336   3.411 -0.7296  0.2884  0.3778
11508TIP3    H156015   0.537   4.425   3.390 -1.6530  0.0495  0.5849
11508TIP3    H256016   0.589   4.297   3.326 -2.5714 -0.0308 -0.0054
11509TIP3   OH256017   3.225   6.025   5.858 -0.2296 -0.0528 -0.0590
11509TIP3    H156018   3.146   5.989   5.818 -1.5372  1.9189  0.6534
11509TIP3    H256019   3.233   5.978   5.941  0.3392 -1.4794 -0.9084
11510TIP3   OH256020   6.510   1.952   4.244 -0.4103  0.1989 -0.1151
11510TIP3    H156021   6.495   1.858   4.231 -0.9470  0.3741 -0.7594
11510TIP3    H256022   6.482   1.992   4.162  1.7995  0.7217 -0.6387
11511TIP3   OH256023   6.388   3.570  13.393  0.0720 -0.5163  0.0297
11511TIP3    H156024   6.409   3.577  13.300  0.6429 -0.7196  0.1405
11511TIP3    H256025   6.355   3.657  13.416 -1.3149 -0.8469 -0.6600
11512TIP3   OH256026   6.018   1.953  11.024  0.4414 -0.2791  0.3369
11512TIP3    H156027   6.102   1.976  10.985  1.6865  1.8284  4.0645
11512TIP3    H256028   5.953   1.996  10.968  2.0005  0.5323 -0.8781
11513TIP3   OH256029   6.268   3.476  12.546  0.1727 -0.8360 -0.1058
11513TIP3    H156030   6.265   3.555  12.493  0.4154 -0.7528  0.0048
11513TIP3    H256031   6.233   3.408  12.489 -1.1152 -0.4316  0.1857
11514TIP3   OH256032   6.072   2.913  15.961 -0.5198 -0.5862  0.0048
11514TIP3    H156033   6.106   2.951  16.041 -1.2456  0.6718 -0.2680
11514TIP3    H256034   6.005   2.851  15.990 -0.1831 -0.7525  0.4100
11515TIP3   OH256035   1.631   3.122  15.896  0.4065  0.1475 -0.0348
11515TIP3    H156036   1.699   3.067  15.933  1.2066  1.0201 -0.1902
11515TIP3    H256037   1.586   3.065  15.833 -0.7249 -1.2157  1.9687
11516TIP3   OH256038   6.363   0.239   3.025 -0.2841 -0.2287  0.0685
11516TIP3    H156039   6.446   0.194   3.043 -0.2663 -0.0716  0.3657
11516TIP3    H256040   6.303   0.206   3.092 -0.6810 -0.9447 -0.6210
11517TIP3   OH256041   0.298   6.694  16.099  0.1764  0.1369  0.1195
11517TIP3    H156042   0.293   6.710  16.005  0.9335 -0.5510 -0.0420
11517TIP3    H256043   0.229   6.630  16.116  0.0656  0.2319  0.0280
11518TIP3   OH256044   2.972   2.179  16.140 -0.1954 -0.1166  0.5777
11518TIP3    H156045   2.935   2.205  16.224 -1.8520  0.4402 -0.2990
11518TIP3    H256046   2.924   2.231  16.075 -0.7737 -2.4270 -0.9194
11519TIP3   OH256047   0.258   5.899  13.830 -0.5179  0.4685 -0.3870
11519TIP3    H156048   0.353   5.900  13.820 -0.3330  1.5220  1.1998
11519TIP3    H256049   0.225   5.866  13.747  1.2200  0.4448 -1.0837
11520TIP3   OH256050   3.406   2.949  11.193  0.2726  0.0659  0.0622
11520TIP3    H156051   3.487   2.977  11.235  0.4366  1.3036 -1.0346
11520TIP3    H256052   3.342   2.946  11.263  0.5831  1.9213  0.4427
11521TIP3   OH256053   1.910   6.130   1.195  0.0042 -0.1800 -0.1254
11521TIP3    H156054   1.842   6.084   1.244  0.3405  0.3011  0.7953
11521TIP3    H256055   1.974   6.062   1.173  0.0548 -0.3234  0.4571
11522TIP3   OH256056   2.087   0.823   5.255  0.6236 -0.2271 -0.0016
11522TIP3    H156057   2.084   0.821   5.159  0.1598 -0.8106  0.0274
11522TIP3    H256058   2.028   0.753   5.283 -0.4295  0.9326  0.7362
11523TIP3   OH256059   6.361   3.300   2.242 -0.1780  0.5038 -0.0462
11523TIP3    H156060   6.291   3.248   2.202 -1.0385  1.2007  0.5170
11523TIP3    H256061   6.404   3.344   2.169  0.1278 -0.4681 -0.4649
11524TIP3   OH256062   0.509   4.771  15.146  0.3691  0.3948  0.5405
11524TIP3    H156063   0.439   4.720  15.187  0.6301 -0.6491 -0.2822
11524TIP3    H256064   0.462   4.836  15.092  0.0054 -1.1809 -1.0857
11525TIP3   OH256065   1.208   4.182   6.076  0.1154 -0.0081 -0.2955
11525TIP3    H156066   1.205   4.153   5.985 -0.0413 -0.7807 -0.0473
11525TIP3    H256067   1.272   4.253   6.076  0.3345 -0.1978 -0.9529
11526TIP3   OH256068   1.424   2.025   6.087  0.1176  0.0706 -0.2057
11526TIP3    H156069   1.464   1.975   6.159  0.8529  0.5363 -0.2808
11526TIP3    H256070   1.477   2.105   6.082  1.4313 -0.9124 -2.6812
11527TIP3   OH256071   6.636   4.445  14.886  0.3989  0.0271  0.0946
11527TIP3    H156072   6.575   4.375  14.862  0.7646 -1.2236  2.6103
11527TIP3    H256073   6.719   4.418  14.846  0.1211 -0.0409 -0.4512
11528TIP3   OH256074   4.526   0.867  12.983 -0.0667  0.2977  0.1492
11528TIP3    H156075   4.540   0.889  13.075  1.0993  1.3574 -0.2736
11528TIP3    H256076   4.583   0.791  12.968  1.5839  1.6038 -0.3055
11529TIP3   OH256077   6.022   3.313   4.039  0.6738 -0.3447  0.0082
11529TIP3    H156078   6.029   3.372   4.114 -1.4638  1.1746 -0.9436
11529TIP3    H256079   5.930   3.319   4.011  0.7265 -3.0944 -0.9549
11530TIP3   OH256080   1.202   5.220  14.301  0.2248 -0.2859 -0.4797
11530TIP3    H156081   1.109   5.215  14.322 -0.2879  0.1115 -2.5900
11530TIP3    H256082   1.244   5.239  14.385 -1.4078 -2.2409  0.8182
11531TIP3   OH256083   2.174   5.673   4.073 -0.0998 -0.4336 -1.0321
11531TIP3    H156084   2.245   5.648   4.131  0.5662  2.5116 -0.4642
11531TIP3    H256085   2.102   5.614   4.095  0.4426 -0.0055  2.1266
11532TIP3   OH256086   1.107   1.063   3.051  0.2835  0.4655 -0.4832
11532TIP3    H156087   1.060   1.038   3.131 -0.5157  1.6861 -0.5541
11532TIP3    H256088   1.037   1.085   2.989  0.9358  1.3028 -0.9282
11533TIP3   OH256089   5.114   4.796  13.639  0.0728  0.3995  0.5591
11533TIP3    H156090   5.204   4.785  13.609 -0.0412 -1.1700  0.7672
11533TIP3    H256091   5.121   4.832  13.727  0.5111 -0.6166  0.9359
11534TIP3   OH256092   0.594   0.506  16.490 -0.0165 -0.0330  0.1099
11534TIP3    H156093   0.675   0.456  16.473 -1.4102 -2.7001  0.9182
11534TIP3    H256094   0.624   0.585  16.534  2.1138 -1.4772  1.3801
11535TIP3   OH256095   3.780   2.423  16.461  0.1934  0.1404  0.1716
11535TIP3    H156096   3.761   2.415  16.368 -2.1790 -0.8498  0.7081
11535TIP3    H256097   3.705   2.383  16.505  1.0048  1.0848  2.5290
11536TIP3   OH256098   3.581   5.872   1.747 -0.0814 -0.5480  0.2275
11536TIP3    H156099   3.641   5.798   1.736  1.9921  0.6658  2.6710
11536TIP3    H256100   3.544   5.860   1.835 -0.6449  0.6470  0.1670
11537TIP3   OH256101   3.815   1.191   3.717  0.2653  0.0140  0.2452
11537TIP3    H156102   3.865   1.197   3.798 -1.0693  3.3418  0.8934
11537TIP3    H256103   3.856   1.253   3.658 -0.6580 -0.1331 -0.5712
11538TIP3   OH256104   4.805   4.041  16.310 -0.1015  0.6311 -0.3019
11538TIP3    H156105   4.795   4.112  16.246 -2.9880  1.0880  0.5560
11538TIP3    H256106   4.833   4.084  16.390  0.2346  0.5187 -0.3620
11539TIP3   OH256107   3.453   1.027  15.761  0.4694  0.3413 -0.2755
11539TIP3    H156108   3.416   1.099  15.711 -3.1944 -0.8775  0.5147
11539TIP3    H256109   3.539   1.058  15.788 -0.8905  4.2999 -0.1630
11540TIP3   OH256110   3.019   1.042  11.139  0.2221  0.2302 -0.5112
11540TIP3    H156111   2.951   0.975  11.130 -0.9203  1.0065  1.8667
11540TIP3    H256112   2.986   1.116  11.089 -0.1249  0.2105 -0.3092
11541TIP3   OH256113   5.551   1.604   1.129 -0.0742  0.2241  0.1015
11541TIP3    H156114   5.574   1.589   1.037  1.0537 -1.1254  0.5883
11541TIP3    H256115   5.463   1.569   1.138 -0.2071  0.4014 -0.4756
11542TIP3   OH256116   2.906   1.616   5.426 -0.3425  0.0109  0.3060
11542TIP3    H156117   2.933   1.527   5.451  0.2331  0.2093  0.3915
11542TIP3    H256118   2.836   1.602   5.362 -0.4337 -0.5070  0.5195
11543TIP3   OH256119   2.488   2.320   5.915  0.2003  0.5392  0.6507
11543TIP3    H156120   2.435   2.286   5.987  1.5485 -0.4305  1.2169
11543TIP3    H256121   2.558   2.369   5.958  0.4499  0.7874 -0.0329
11544TIP3   OH256122   3.701   5.720  14.018 -0.0599 -0.1861 -0.5486
11544TIP3    H156123   3.657   5.755  14.096  0.8036  0.3656 -0.2947
11544TIP3    H256124   3.696   5.625  14.028  1.3840 -0.1339  0.9806
11545TIP3   OH256125   5.704   5.815  16.167  0.0165 -0.2398 -0.3931
11545TIP3    H156126   5.762   5.782  16.236  0.2874  0.9755 -0.0225
11545TIP3    H256127   5.756   5.881  16.121 -0.9178  0.5605 -0.3222
11546TIP3   OH256128   5.284   1.341  13.890 -0.0987 -0.2702  0.4525
11546TIP3    H156129   5.254   1.342  13.981 -1.1035  1.6991  0.1392
11546TIP3    H256130   5.283   1.434  13.864 -0.3374 -0.8610 -1.7333
11547TIP3   OH256131   3.420   3.584   5.522 -0.0117  0.1717 -0.3322
11547TIP3    H156132   3.451   3.575   5.431 -0.0555 -0.5849 -0.2753
11547TIP3    H256133   3.477   3.526   5.572 -1.0129 -0.6427 -0.1137
11548TIP3   OH256134   3.225   6.072   2.973 -0.3219  0.2912 -0.4414
11548TIP3    H156135   3.169   6.148   2.988 -1.6354 -0.6710 -0.4417
11548TIP3    H256136   3.312   6.101   3.002 -0.7108  1.9387 -0.8608
11549TIP3   OH256137   3.489   0.478   4.999 -0.6721 -0.1177  0.2884
11549TIP3    H156138   3.470   0.476   4.905 -0.1148  0.2434  0.1634
11549TIP3    H256139   3.410   0.443   5.040 -0.7018 -0.8039 -0.3454
11550TIP3   OH256140   4.091   1.417   0.906 -0.6304 -0.3211 -0.3559
11550TIP3    H156141   4.044   1.337   0.928 -0.8583  0.2993  1.5773
11550TIP3    H256142   4.145   1.394   0.831  1.0188 -2.9397  1.5325
11551TIP3   OH256143   4.406   0.536  15.701 -0.1110  0.3098 -0.0892
11551TIP3    H156144   4.498   0.560  15.689 -0.7745  3.6117  0.9082
11551TIP3    H256145   4.383   0.571  15.787 -1.9290 -1.8276  0.3535
11552TIP3   OH256146   4.831   0.571   3.404  0.3606  0.2629 -0.5207
11552TIP3    H156147   4.909   0.609   3.365  1.2016 -1.6101 -0.7118
11552TIP3    H256148   4.767   0.569   3.333 -0.9521  4.5383  0.3467
11553TIP3   OH256149   0.619   6.374   5.862  0.0931 -0.2068  0.7809
11553TIP3    H156150   0.579   6.300   5.818  0.1842  0.0598  0.2393
11553TIP3    H256151   0.667   6.420   5.793 -1.0416  1.0956  0.8316
11554TIP3   OH256152   2.911   2.716  13.242  0.0920 -0.5622  0.5554
11554TIP3    H156153   2.835   2.693  13.188  2.9490 -2.2178 -3.0114
11554TIP3    H256154   2.881   2.791  13.294 -3.9038 -1.0423 -0.8412
11555TIP3   OH256155   4.804   0.427   3.051 -0.5677  0.2810  0.1612
11555TIP3    H156156   4.767   0.515   3.059  0.6027  0.8466 -0.5649
11555TIP3    H256157   4.860   0.431   2.973 -2.0788 -1.6669 -1.0663
11556TIP3   OH256158   5.388   2.307   4.305 -0.1189 -0.0116  0.4033
11556TIP3    H156159   5.397   2.373   4.375 -0.3325  0.6028 -0.1431
11556TIP3    H256160   5.294   2.289   4.303 -0.4283  1.6981 -1.2935
11557TIP3   OH256161   6.017   4.277  12.175 -0.3816  0.1944 -0.1715
11557TIP3    H156162   6.021   4.264  12.270 -1.8683 -0.3175 -0.1700
11557TIP3    H256163   5.976   4.363  12.164 -0.4068  0.1596 -0.3579
11558TIP3   OH256164   3.780   1.894  12.371  0.1647  0.3625  0.0643
11558TIP3    H156165   3.870   1.886  12.339 -0.1508  1.9240 -1.2740
11558TIP3    H256166   3.752   1.981  12.343 -1.3409  0.3895  1.5630
11559TIP3   OH256167   3.804   6.676  15.836  0.5883 -0.5840 -0.5715
11559TIP3    H156168   3.887   6.675  15.789  0.5725  0.3449 -0.6395
11559TIP3    H256169   3.805   6.759  15.884  0.3366 -1.2371  0.5834
11560TIP3   OH256170   4.057   0.668  11.121  0.1279 -0.3632 -0.0451
11560TIP3    H156171   4.042   0.740  11.059 -2.5607 -0.8595 -0.0553
11560TIP3    H256172   4.088   0.596  11.067  1.0683  0.2247 -0.3036
11561TIP3   OH256173   2.750   2.429  13.519  0.2199 -0.1839  0.0427
11561TIP3    H156174   2.815   2.491  13.485  1.1676 -0.7866  0.7146
11561TIP3    H256175   2.746   2.447  13.613 -0.2812 -0.4240  0.0674
11562TIP3   OH256176   5.591   4.786  11.720  0.2712  0.2694 -0.7500
11562TIP3    H156177   5.663   4.843  11.692  1.4620 -0.6546  0.4036
11562TIP3    H256178   5.521   4.847  11.744  1.1628  1.2247 -0.5120
11563TIP3   OH256179   4.670   1.885  13.235 -0.5645  0.0592 -0.3454
11563TIP3    H156180   4.600   1.821  13.246  0.5350 -1.2182 -0.6176
11563TIP3    H256181   4.662   1.943  13.310 -0.3198 -1.6285  1.0079
11564TIP3   OH256182   2.859   6.235  17.267  0.4710 -0.0348 -0.8144
11564TIP3    H156183   2.777   6.277  17.294 -0.0112  1.0037 -3.6717
11564TIP3    H256184   2.916   6.241  17.344 -0.5092  3.5157 -0.2696
11565TIP3   OH256185   6.082   4.961   0.467 -0.3574  0.8555 -0.9375
11565TIP3    H156186   6.178   4.961   0.460 -0.3194  2.2857 -0.6808
11565TIP3    H256187   6.056   4.872   0.443  1.0944  0.2111 -0.1715
11566TIP3   OH256188   0.569   2.676  15.850 -0.0651 -0.3967 -0.6338
11566TIP3    H156189   0.484   2.707  15.818  1.5480  3.1900 -1.6737
11566TIP3    H256190   0.624   2.671  15.773  1.8603  1.5485  0.5383
11567TIP3   OH256191   1.130   4.104   3.054  0.3015 -0.2262  0.0872
11567TIP3    H156192   1.161   4.163   3.123 -1.6742  1.5523 -0.4695
11567TIP3    H256193   1.055   4.059   3.092  1.3598 -1.8668  0.2561
11568TIP3   OH256194   2.755   0.315  16.433 -0.1303  0.4177 -0.3637
11568TIP3    H156195   2.844   0.331  16.403 -0.8537  2.1885 -1.6787
11568TIP3    H256196   2.720   0.251  16.370  0.3871 -0.7126  0.4922
11569TIP3   OH256197   2.706   2.889   1.763 -0.1850 -0.0865 -0.3595
11569TIP3    H156198   2.744   2.854   1.683 -0.6519 -0.7190 -0.3041
11569TIP3    H256199   2.648   2.820   1.795 -0.5454  0.4415  0.1412
11570TIP3   OH256200   4.986   2.966   6.248 -0.1300  0.3868  0.5140
11570TIP3    H156201   5.029   2.905   6.308 -1.1776  0.4259  1.3256
11570TIP3    H256202   4.896   2.971   6.280  0.1120  2.8849  0.8776
11571TIP3   OH256203   0.089   5.223   3.091  0.1576 -0.1057 -0.3515
11571TIP3    H156204   0.055   5.155   3.150 -0.1548  1.3625  1.2114
11571TIP3    H256205   0.010   5.267   3.059  0.3087 -1.1801 -2.2476
11572TIP3   OH256206   6.758   0.827  15.837 -0.2916 -0.6363  0.7467
11572TIP3    H156207   6.672   0.821  15.879  0.2957 -0.2098  2.0398
11572TIP3    H256208   6.819   0.845  15.909  0.6494  0.8853 -0.4008
11573TIP3   OH256209   1.274   1.855   5.907  0.0005  0.2600  0.1361
11573TIP3    H156210   1.300   1.797   5.836  0.9442  0.0129  0.6806
11573TIP3    H256211   1.224   1.925   5.864 -0.4566 -0.5249 -0.6133
11574TIP3   OH256212   5.579   2.163   1.934 -0.1901  0.4014 -0.2196
11574TIP3    H156213   5.541   2.245   1.901  0.6704  0.1308 -1.9230
11574TIP3    H256214   5.672   2.183   1.946 -0.1845 -0.0095  0.4298
11575TIP3   OH256215   5.231   6.527  11.895  0.0561 -0.4832  0.0397
11575TIP3    H156216   5.298   6.587  11.862  0.8402 -1.3387  0.0536
11575TIP3    H256217   5.242   6.529  11.991  0.6827 -1.3237 -0.0086
11576TIP3   OH256218   0.177   3.440   4.349  0.1546  0.1440 -0.2718
11576TIP3    H156219   0.151   3.399   4.266  0.4193  0.4698 -0.5190
11576TIP3    H256220   0.125   3.394   4.415  2.0676 -2.0815 -0.2758
11577TIP3   OH256221   3.133   1.393  16.671  0.3166  0.2629  0.6348
11577TIP3    H156222   3.063   1.336  16.704  0.6695 -0.7604 -0.3572
11577TIP3    H256223   3.181   1.420  16.749 -0.9734  0.7114  1.3061
11578TIP3   OH256224   0.039   4.954   2.702 -0.1089  0.5152  0.1916
11578TIP3    H156225   0.092   4.890   2.655 -1.0812 -0.2030  0.0501
11578TIP3    H256226   0.087   4.971   2.783  0.1494 -0.3998  0.2286
11579TIP3   OH256227   3.379   3.065   4.867  0.0481  0.7473 -0.0378
11579TIP3    H156228   3.396   3.087   4.959 -0.1376  1.0068 -0.0659
11579TIP3    H256229   3.454   3.099   4.820 -0.9777  2.7495 -0.2865
11580TIP3   OH256230   5.644   3.330  15.822 -0.3926  0.4683  0.1438
11580TIP3    H156231   5.659   3.236  15.830  0.8706  0.7955  1.8755
11580TIP3    H256232   5.554   3.338  15.788  0.3044 -1.3827 -2.2896
11581TIP3   OH256233   6.581   6.526   4.234 -0.0031  0.1996  0.2162
11581TIP3    H156234   6.512   6.471   4.270 -0.7208  0.2881 -1.0007
11581TIP3    H256235   6.591   6.596   4.299 -2.5178  1.3448 -0.5755
11582TIP3   OH256236   1.317   3.855  11.326  0.4978  0.4119 -0.2412
11582TIP3    H156237   1.344   3.802  11.251  0.1921 -3.3203  2.1527
11582TIP3    H256238   1.398   3.871  11.374  0.2492 -0.0346  0.3377
11583TIP3   OH256239   0.281   3.737   6.175 -0.0000  0.1965  0.3802
11583TIP3    H156240   0.350   3.672   6.185 -0.8995 -1.1382 -1.7444
11583TIP3    H256241   0.274   3.750   6.080 -1.3960  1.7140  0.6673
11584TIP3   OH256242   5.532   0.121   2.803  0.0078  0.1008 -0.2688
11584TIP3    H156243   5.439   0.142   2.813 -0.1359 -1.4478  1.7772
11584TIP3    H256244   5.569   0.199   2.760 -1.8920  1.4792  0.5097
11585TIP3   OH256245   5.212   5.907   3.354 -0.1430  0.2654  0.3045
11585TIP3    H156246   5.154   5.917   3.429 -0.0640 -1.0822  0.5480
11585TIP3    H256247   5.241   5.997   3.335 -1.3705  0.8039  0.9027
11586TIP3   OH256248   2.771   6.385   1.446 -0.8344 -0.2170 -0.0994
11586TIP3    H156249   2.838   6.317   1.436 -1.2068 -0.6281  0.2067
11586TIP3    H256250   2.814   6.454   1.497 -0.1769  0.1701 -1.1613
11587TIP3   OH256251   2.090   0.378   4.745  0.2097  0.5649  0.3352
11587TIP3    H156252   2.158   0.341   4.801 -0.1419 -0.4277  0.1216
11587TIP3    H256253   2.132   0.392   4.661 -0.7014 -3.3508 -0.8703
11588TIP3   OH256254   0.948   5.221  14.402 -0.1307 -0.6749 -0.0850
11588TIP3    H156255   0.903   5.138  14.392 -1.4969  0.2247 -1.4959
11588TIP3    H256256   0.893   5.271  14.462  1.9269 -1.6385  2.7175
11589TIP3   OH256257   1.977   5.502   4.139  0.1731  0.3428 -0.1535
11589TIP3    H156258   1.973   5.429   4.200 -0.9986 -0.1655 -0.8112
11589TIP3    H256259   1.914   5.566   4.174 -0.9449 -0.2022 -1.1223
11590TIP3   OH256260   1.884   0.362  14.937  0.0188 -0.1692  0.3034
11590TIP3    H156261   1.930   0.281  14.915 -1.3608 -1.0965  0.7583
11590TIP3    H256262   1.857   0.397  14.853 -0.2760 -0.7209  0.1675
11591TIP3   OH256263   4.738   5.322  14.299  0.3716  0.8229 -0.3831
11591TIP3    H156264   4.739   5.257  14.228 -0.6501  1.0706 -0.6323
11591TIP3    H256265   4.755   5.271  14.378 -0.3580  0.2470 -0.5854
11592TIP3   OH256266   3.628   0.152   0.455  0.5806  0.1081 -0.2555
11592TIP3    H156267   3.714   0.123   0.485  1.0094 -0.9218 -2.3666
11592TIP3    H256268   3.569   0.080   0.476  0.5952  0.0096 -0.5579
11593TIP3   OH256269   0.311   5.045  13.133  0.3122  0.5088 -0.8392
11593TIP3    H156270   0.332   5.062  13.225  0.8635  0.0007 -0.8732
11593TIP3    H256271   0.246   4.975  13.136  0.0242  0.7765 -0.8201
11594TIP3   OH256272   1.498   6.149  14.634  1.1065  0.2308  0.0062
11594TIP3    H156273   1.526   6.134  14.544  0.7549  1.0865 -0.2461
11594TIP3    H256274   1.403   6.140  14.631  1.0167  1.1213  0.1203
11595TIP3   OH256275   0.148   6.381  16.931 -0.5994  0.3899  0.6480
11595TIP3    H156276   0.222   6.336  16.971  0.5852  2.2761  0.6271
11595TIP3    H256277   0.087   6.310  16.907  1.0541 -1.1562  0.8995
11596TIP3   OH256278   1.678   2.672  12.048 -0.2911 -0.1567 -0.4870
11596TIP3    H156279   1.730   2.659  11.969 -0.7446  0.6762 -0.9280
11596TIP3    H256280   1.628   2.591  12.057  3.5015 -2.3851  1.8044
11597TIP3   OH256281   1.269   2.393   1.771  0.2684  0.1241  0.2223
11597TIP3    H156282   1.241   2.305   1.744  0.9876 -0.1877  0.4913
11597TIP3    H256283   1.329   2.421   1.702  0.2449  0.3021  0.2733
11598TIP3   OH256284   0.087   3.071  16.561 -0.8631  0.1581  0.6308
11598TIP3    H156285   0.109   3.147  16.508 -1.2611  0.8480  1.4329
11598TIP3    H256286   0.159   3.010  16.547 -0.4438  0.7643  0.1269
11599TIP3   OH256287   3.133   3.634  10.560  0.7237 -0.2982  0.0667
11599TIP3    H156288   3.122   3.655  10.652  1.6149 -1.1919  0.3808
11599TIP3    H256289   3.182   3.552  10.559  0.2500 -0.5873 -1.1870
11600TIP3   OH256290   3.104   1.950  13.810  0.1235 -0.3686 -0.2788
11600TIP3    H156291   3.172   1.984  13.752 -1.0476  0.9512 -0.8960
11600TIP3    H256292   3.034   1.921  13.751 -0.5062 -0.2879  0.4194
11601TIP3   OH256293   4.884   3.708   3.851 -0.8245  0.4627 -1.1504
11601TIP3    H156294   4.824   3.710   3.926  0.4086  1.1417 -0.1629
11601TIP3    H256295   4.839   3.653   3.786 -1.3331 -1.2376  0.5853
11602TIP3   OH256296   2.622   5.610  13.365  0.0159 -0.4317  0.1006
11602TIP3    H156297   2.706   5.613  13.411  0.5549 -0.2814 -0.8843
11602TIP3    H256298   2.639   5.557  13.287 -1.1681 -1.6195  0.6149
11603TIP3   OH256299   3.928   1.691  12.860  0.4703 -0.6280 -0.3145
11603TIP3    H156300   3.928   1.706  12.766 -0.3336  0.1745 -0.1950
11603TIP3    H256301   3.865   1.621  12.874  1.2045 -1.3256 -0.4487
11604TIP3   OH256302   6.466   5.678   5.275  0.1413 -0.0717 -0.2435
11604TIP3    H156303   6.432   5.746   5.217 -1.5616  2.2682  3.3280
11604TIP3    H256304   6.536   5.720   5.325 -0.7928 -0.9075  1.8708
11605TIP3   OH256305   1.152   2.621   5.052 -0.4456  0.4645  0.3811
11605TIP3    H156306   1.142   2.707   5.093 -2.5362 -1.1711  3.4930
11605TIP3    H256307   1.239   2.592   5.080  0.3611  1.6522 -0.8692
11606TIP3   OH256308   6.059   1.461  12.606  0.2646 -0.4231 -0.4081
11606TIP3    H156309   5.997   1.397  12.571 -0.0909 -0.7608  0.7949
11606TIP3    H256310   6.016   1.546  12.594 -0.8514 -0.7296  1.2284
11607TIP3   OH256311   0.082   3.713   4.757 -0.4410 -0.0873  0.1425
11607TIP3    H156312   0.159   3.677   4.713 -0.0761  1.0070 -0.1314
11607TIP3    H256313   0.016   3.645   4.750  0.1963 -0.6426 -0.5009
11608TIP3   OH256314   4.328   1.377  14.816  0.2296 -0.1270  0.0431
11608TIP3    H156315   4.270   1.302  14.802 -0.6147  0.4189  0.6096
11608TIP3    H256316   4.326   1.425  14.734  1.6181 -1.2887 -0.7046
11609TIP3   OH256317   5.782   5.932  16.792  0.3056  1.0596 -0.5894
11609TIP3    H156318   5.839   5.884  16.852 -1.2889 -1.2948 -0.8800
11609TIP3    H256319   5.725   5.982  16.850 -2.1389 -2.2495  0.0488
11610TIP3   OH256320   6.519   3.981  16.780  0.5416 -0.0216  0.2501
11610TIP3    H156321   6.583   3.916  16.750  1.4974  0.3243  1.4674
11610TIP3    H256322   6.434   3.946  16.755  1.1702 -0.8301 -0.7717
11611TIP3   OH256323   5.575   2.450  11.027  0.3001  0.3416  0.0646
11611TIP3    H156324   5.532   2.392  11.089 -0.4686 -0.4563 -1.2101
11611TIP3    H256325   5.647   2.399  10.991 -1.5243 -0.5188 -2.4696
11612TIP3   OH256326   0.679   3.992  11.585  0.2585 -0.3886  0.6665
11612TIP3    H156327   0.636   3.930  11.526  0.1853 -0.5345  0.8727
11612TIP3    H256328   0.707   3.938  11.660  2.4554 -0.6556 -0.3080
11613TIP3   OH256329   4.117   0.692   6.246  0.3918 -0.4146  0.3295
11613TIP3    H156330   4.199   0.644   6.239 -0.8801 -2.8666  1.4789
11613TIP3    H256331   4.052   0.626   6.269 -1.8933  1.4925 -0.3597
11614TIP3   OH256332   4.245   1.960  16.389  0.1179  0.1761 -0.4826
11614TIP3    H156333   4.205   1.910  16.318 -0.0398 -1.0220  0.4266
11614TIP3    H256334   4.313   1.902  16.423  0.4641  0.9074  0.0730
11615TIP3   OH256335   2.115   0.555  15.304  0.1729  0.2046  0.1065
11615TIP3    H156336   2.107   0.537  15.398  2.0256  0.2647  0.2946
11615TIP3    H256337   2.048   0.500  15.263  0.1010 -0.6731  1.3749
11616TIP3   OH256338   5.976   1.993  11.312 -1.0855 -0.6164 -0.2604
11616TIP3    H156339   5.886   2.025  11.319 -1.1800 -0.9891  0.2954
11616TIP3    H256340   5.994   1.994  11.218 -1.1578  0.8397 -0.2766
11617TIP3   OH256341   6.557   0.666   4.820  0.0251 -0.2519 -0.1202
11617TIP3    H156342   6.630   0.647   4.879 -0.6664 -0.2525  0.7575
11617TIP3    H256343   6.549   0.762   4.823 -1.1758 -0.3807  1.2369
11618TIP3   OH256344   5.655   3.003   0.924  0.3522  0.0297  0.1716
11618TIP3    H156345   5.746   3.028   0.940 -0.4183  1.4599  2.5816
11618TIP3    H256346   5.645   2.919   0.969  0.3106  0.1796  0.4420
11619TIP3   OH256347   0.611   6.700  12.564  0.0178 -0.0908 -0.6638
11619TIP3    H156348   0.575   6.773  12.515  0.4468  1.4508  1.2771
11619TIP3    H256349   0.565   6.701  12.648  0.6330 -1.5094 -0.2862
11620TIP3   OH256350   2.725   2.000   2.097  0.1260  0.5070 -0.0213
11620TIP3    H156351   2.694   2.051   2.022 -2.3635  1.4311  1.5637
11620TIP3    H256352   2.775   1.928   2.058  0.4707  2.0259 -2.4633
11621TIP3   OH256353   3.164   6.309   4.261 -0.0167 -0.0026 -0.3671
11621TIP3    H156354   3.223   6.346   4.327 -3.1474  1.8499  1.4985
11621TIP3    H256355   3.149   6.379   4.199 -2.0461  0.3653  0.4713
11622TIP3   OH256356   3.048   3.633  14.409  0.2687  0.1018 -0.7494
11622TIP3    H156357   3.046   3.621  14.504 -0.0094 -2.6159 -1.0312
11622TIP3    H256358   3.023   3.724  14.395  2.0623  1.0493  1.8538
11623TIP3   OH256359   1.141   2.094  16.906  0.1379 -0.4902  0.1773
11623TIP3    H156360   1.100   2.171  16.866 -1.2857 -2.2472 -1.7911
11623TIP3    H256361   1.207   2.131  16.965  0.0794  2.2157 -1.3734
11624TIP3   OH256362   3.549   1.479   1.193 -0.5074 -0.1529  0.0232
11624TIP3    H156363   3.499   1.517   1.120  0.3021  2.2822  0.6835
11624TIP3    H256364   3.623   1.538   1.205  0.5721 -1.7370  1.4186
11625TIP3   OH256365   4.089   3.412   0.703 -0.3084  0.4680 -0.0452
11625TIP3    H156366   4.009   3.457   0.731 -1.1716  0.3178 -2.2072
11625TIP3    H256367   4.106   3.446   0.616 -0.0944 -2.2653 -1.1055
11626TIP3   OH256368   2.657   6.776  13.683 -0.2866 -0.0490 -0.2247
11626TIP3    H156369   2.698   6.723  13.615  0.7838  0.9496 -0.3759
11626TIP3    H256370   2.697   6.744  13.765 -0.6262 -0.3748 -0.1831
11627TIP3   OH256371   3.210   4.828   4.815 -0.1465  0.6653 -0.5175
11627TIP3    H156372   3.196   4.859   4.904 -0.5027 -1.7226  0.2883
11627TIP3    H256373   3.306   4.825   4.805 -0.0977  0.3129  0.0236
11628TIP3   OH256374   3.497   3.606  11.951  0.2172 -0.1619 -0.2643
11628TIP3    H156375   3.491   3.696  11.917 -1.0970  0.2756  1.1035
11628TIP3    H256376   3.572   3.608  12.010  1.5334 -0.5268 -1.8970
11629TIP3   OH256377   4.989   3.421  10.639 -0.1413  0.2181 -0.0340
11629TIP3    H156378   5.006   3.457  10.552  0.9417 -0.7186 -0.2139
11629TIP3    H256379   4.968   3.498  10.692  0.5615  0.9501 -0.7975
11630TIP3   OH256380   5.543   1.746   0.348  0.5967  0.2131 -0.0461
11630TIP3    H156381   5.611   1.686   0.317  0.2673 -0.9531  1.4604
11630TIP3    H256382   5.490   1.693   0.407 -1.9371  0.9654 -1.5784
11631TIP3   OH256383   4.012   5.949   4.936  0.1767 -0.0763 -0.1986
11631TIP3    H156384   4.003   5.917   5.025 -1.6201 -2.0564 -1.0596
11631TIP3    H256385   4.052   5.876   4.888 -0.1024  0.4757 -1.2905
11632TIP3   OH256386   2.281   0.174   4.288  0.5515 -0.7752 -0.0507
11632TIP3    H156387   2.212   0.125   4.333 -1.1531  0.8999 -0.7496
11632TIP3    H256388   2.289   0.255   4.337  0.4284 -0.0051 -1.2796
11633TIP3   OH256389   5.255   5.392  12.919  0.0852 -0.5107 -0.2508
11633TIP3    H156390   5.196   5.450  12.967  2.4386  0.7236  1.2354
11633TIP3    H256391   5.272   5.438  12.837  1.0999  0.4305  0.4743
11634TIP3   OH256392   3.508   4.604   1.637 -0.6152  0.3849  0.2332
11634TIP3    H156393   3.592   4.560   1.631 -1.7039 -1.5420 -1.4768
11634TIP3    H256394   3.527   4.685   1.685  1.8127 -0.9215  1.5672
11635TIP3   OH256395   5.155   5.029  15.955  0.5455  0.5973 -0.0994
11635TIP3    H156396   5.197   5.110  15.925  1.1341  0.1965 -0.3609
11635TIP3    H256397   5.113   4.993  15.877  1.9833 -0.3877 -0.4452
11636TIP3   OH256398   5.249   3.430   4.349  0.1069  0.3366  0.3343
11636TIP3    H156399   5.339   3.435   4.381  0.7799  0.3867 -1.4822
11636TIP3    H256400   5.199   3.391   4.421  1.9620 -1.6361  0.5928
11637TIP3   OH256401   0.754   6.737   3.694 -0.0358  0.0442  0.3458
11637TIP3    H156402   0.738   6.814   3.639  0.0582  0.7383  1.2722
11637TIP3    H256403   0.794   6.773   3.774  1.3307 -1.1103  0.2004
11638TIP3   OH256404   0.417   3.842  13.822  0.6946  0.4230  0.0039
11638TIP3    H156405   0.488   3.893  13.783  1.0086 -0.9258 -1.2475
11638TIP3    H256406   0.341   3.901  13.818  1.1656  0.9815 -0.9541
11639TIP3   OH256407   3.439   2.347   5.817 -0.1526  0.3357  0.0823
11639TIP3    H156408   3.387   2.280   5.861 -0.7221 -0.7344 -2.0965
11639TIP3    H256409   3.379   2.383   5.751  0.1456  3.0261  1.2285
11640TIP3   OH256410   4.194   5.128   2.295 -0.1935 -0.3570  0.1962
11640TIP3    H156411   4.221   5.064   2.361  1.6251  1.0198  0.8300
11640TIP3    H256412   4.172   5.075   2.219  1.0968 -1.7677  0.7705
11641TIP3   OH256413   6.560   2.239   4.977 -0.7455  0.0176 -0.1150
11641TIP3    H156414   6.533   2.160   4.931 -0.2718  0.3660 -0.9994
11641TIP3    H256415   6.653   2.228   4.993 -1.0615 -0.4720  1.5271
11642TIP3   OH256416   0.710   4.258   5.030  0.0339  0.1932  0.1801
11642TIP3    H156417   0.739   4.169   5.008  1.1361  0.8782 -1.1902
11642TIP3    H256418   0.728   4.309   4.951  0.1717  1.8116  1.2417
11643TIP3   OH256419   3.933   0.729   0.623  0.4574  0.6464 -0.4089
11643TIP3    H156420   3.942   0.824   0.636  0.7607  0.6291 -0.4875
11643TIP3    H256421   4.011   0.704   0.574  1.1861  0.0899  0.9925
11644TIP3   OH256422   4.098   5.671  10.815 -0.3556 -0.2349 -0.1597
11644TIP3    H156423   4.022   5.715  10.777 -1.2938 -0.2243  1.6964
11644TIP3    H256424   4.126   5.610  10.747  0.3002  2.4231 -2.3415
11645TIP3   OH256425   2.102   6.768   5.298 -0.4352 -0.2001  0.0588
11645TIP3    H156426   2.056   6.794   5.217 -0.4458 -0.3602  0.0137
11645TIP3    H256427   2.135   6.850   5.334 -0.2988 -0.1463 -0.1889
11646TIP3   OH256428   2.722   1.799   2.708  0.3353  0.0192 -1.3085
11646TIP3    H156429   2.735   1.720   2.657  1.5540  0.2272 -1.3359
11646TIP3    H256430   2.785   1.862   2.673  1.4988  0.0290  0.7214
11647TIP3   OH256431   0.788   0.856   3.032 -0.9018 -0.2504  0.2093
11647TIP3    H156432   0.728   0.842   3.106 -1.4392 -2.8746 -0.6971
11647TIP3    H256433   0.861   0.797   3.049  0.1779  0.9626 -0.1092
11648TIP3   OH256434   4.104   6.714   4.501  0.0144  0.9709  0.2475
11648TIP3    H156435   4.025   6.761   4.529 -1.0621 -0.1139 -0.8695
11648TIP3    H256436   4.090   6.698   4.407  0.8156 -0.6509  0.3762
11649TIP3   OH256437   3.121   3.562   2.394 -0.2343 -0.4136  0.0362
11649TIP3    H156438   3.142   3.640   2.447  0.5151  0.0393 -0.9145
11649TIP3    H256439   3.202   3.543   2.347 -0.7950 -1.0313 -0.6800
11650TIP3   OH256440   1.418   3.160  16.719 -0.0119 -0.0088  0.1203
11650TIP3    H156441   1.477   3.159  16.644  0.1193 -2.2437  0.2327
11650TIP3    H256442   1.363   3.238  16.706  1.1535  0.5666 -1.3826
11651TIP3   OH256443   5.285   6.617   4.650  0.1746 -0.2548 -0.1140
11651TIP3    H156444   5.278   6.537   4.701 -0.4669 -1.2492 -1.7144
11651TIP3    H256445   5.261   6.591   4.561 -0.4642  1.7917 -0.5772
11652TIP3   OH256446   5.041   1.858   3.151  0.1628  0.1967 -0.0041
11652TIP3    H156447   5.009   1.921   3.086  0.0184 -1.8139 -1.9732
11652TIP3    H256448   5.119   1.899   3.189  0.8281  1.0329 -2.2014
11653TIP3   OH256449   1.205   1.190   3.452 -0.6055  0.0061 -0.3570
11653TIP3    H156450   1.223   1.235   3.370  0.6638  0.9287  0.3971
11653TIP3    H256451   1.188   1.260   3.515 -0.0625 -0.6164  0.4996
11654TIP3   OH256452   0.636   0.469  12.095 -0.1680 -0.5798 -0.2857
11654TIP3    H156453   0.637   0.477  11.999 -2.7627 -0.9154 -0.3619
11654TIP3    H256454   0.590   0.387  12.112 -1.1847  0.3026  1.3062
11655TIP3   OH256455   4.666   0.121   2.475  0.7405 -0.0695  0.5785
11655TIP3    H156456   4.668   0.207   2.518  2.8560 -0.6144  1.6710
11655TIP3    H256457   4.615   0.066   2.534  0.1686  0.1998  0.3394
11656TIP3   OH256458   0.485   6.781  10.859  0.2136 -0.0575  0.2074
11656TIP3    H156459   0.491   6.750  10.769 -1.3316  1.5174 -0.4638
11656TIP3    H256460   0.573   6.816  10.878  0.3168  0.3441 -0.9729
11657TIP3   OH256461   6.011   1.070   4.291  0.3863 -0.1549 -0.1729
11657TIP3    H156462   5.939   1.044   4.347  0.2095 -1.2454 -0.8897
11657TIP3    H256463   5.991   1.031   4.206  1.8204 -0.4871 -0.3823
11658TIP3   OH256464   1.504   0.960   4.741 -0.1698  0.0201  0.4413
11658TIP3    H156465   1.423   1.009   4.745 -0.2800  0.0843 -2.1715
11658TIP3    H256466   1.564   1.008   4.799 -1.0978  1.6194  0.1014
11659TIP3   OH256467   5.128   4.461   1.667 -0.0892  0.5978 -0.0238
11659TIP3    H156468   5.043   4.497   1.692 -1.0506 -0.9394 -0.9970
11659TIP3    H256469   5.170   4.439   1.751 -0.4790  1.7024  0.4701
11660TIP3   OH256470   0.667   1.665  11.776 -0.0670  0.0979 -0.1639
11660TIP3    H156471   0.578   1.681  11.744 -0.1987 -0.4996 -0.0932
11660TIP3    H256472   0.680   1.734  11.841 -0.0389  0.9126 -1.0109
11661TIP3   OH256473   1.435   2.237  13.748 -0.1281 -0.1581  0.0607
11661TIP3    H156474   1.504   2.274  13.693 -0.5189 -0.8330 -0.9079
11661TIP3    H256475   1.358   2.233  13.690 -0.4756 -1.1207  0.5756
11662TIP3   OH256476   6.151   6.655  15.678  0.0754 -0.1936 -0.5563
11662TIP3    H156477   6.225   6.699  15.720 -0.8432  1.7525 -0.9524
11662TIP3    H256478   6.182   6.635  15.590  1.0410 -1.8157  0.1167
11663TIP3   OH256479   0.246   2.681  15.383 -0.2942 -0.1845  0.7090
11663TIP3    H156480   0.218   2.757  15.433  1.1699  2.2655 -2.0257
11663TIP3    H256481   0.168   2.626  15.377 -1.3927  1.1019  2.6689
11664TIP3   OH256482   3.170   3.001  16.430  0.4315  0.1564  0.1137
11664TIP3    H156483   3.253   3.044  16.410  0.7338  0.0535  1.1068
11664TIP3    H256484   3.174   2.918  16.382  0.1184  0.9384 -1.2916
11665TIP3   OH256485   2.966   3.428  11.135  0.7530  0.3192  0.4430
11665TIP3    H156486   2.975   3.427  11.230  1.5729 -0.5049  0.3593
11665TIP3    H256487   2.984   3.518  11.110  1.7767  0.2597  0.9544
11666TIP3   OH256488   3.681   5.579  11.842  0.1302 -0.1421  0.3123
11666TIP3    H156489   3.742   5.541  11.905  0.4262 -0.3533 -0.1038
11666TIP3    H256490   3.737   5.624  11.778 -0.2403  1.7724  1.2899
11667TIP3   OH256491   1.426   5.526  13.586 -0.2051 -0.4545  0.2635
11667TIP3    H156492   1.435   5.485  13.672 -0.6322 -0.2317  0.4152
11667TIP3    H256493   1.426   5.620  13.604 -0.0146 -0.4016 -0.0096
11668TIP3   OH256494   6.568   5.704   0.242 -0.3452 -0.2042 -0.4203
11668TIP3    H156495   6.530   5.668   0.322  1.0658  1.9883  1.2680
11668TIP3    H256496   6.546   5.639   0.175 -1.2762 -2.2416  1.7719
11669TIP3   OH256497   1.050   3.526  14.817  0.5390  0.1358  0.1099
11669TIP3    H156498   1.015   3.546  14.731 -1.4972  1.1887  1.1554
11669TIP3    H256499   1.079   3.610  14.852 -0.2803 -0.0019  1.1514
11670TIP3   OH256500   0.278   1.139   5.314 -0.5067 -0.0300 -0.4650
11670TIP3    H156501   0.184   1.133   5.334 -0.4085 -0.9677 -0.2445
11670TIP3    H256502   0.311   1.204   5.376 -0.5665 -1.5219  1.1700
11671TIP3   OH256503   3.253   4.188  11.815 -0.5366 -0.2370  0.5669
11671TIP3    H156504   3.313   4.147  11.877 -1.4477 -0.9291  1.0044
11671TIP3    H256505   3.266   4.140  11.734 -1.1483 -1.0064  0.9111
11672TIP3   OH256506   5.348   1.942   5.244 -0.0636 -0.0412 -0.2054
11672TIP3    H156507   5.341   1.854   5.207  1.9733  0.6497 -2.3998
11672TIP3    H256508   5.440   1.950   5.269  0.0973  1.9330 -1.3062
11673TIP3   OH256509   4.011   4.918   5.482  0.2506  0.6641  0.0369
11673TIP3    H156510   3.934   4.915   5.426 -0.8209 -2.0673  1.5528
11673TIP3    H256511   4.031   4.826   5.500  2.7120  1.3873  1.2272
11674TIP3   OH256512   1.747   0.941  12.674  0.1355  0.1793 -0.1296
11674TIP3    H156513   1.677   0.878  12.693  0.8716 -0.4628  0.5111
11674TIP3    H256514   1.809   0.892  12.620  1.5864 -0.2396  1.8083
11675TIP3   OH256515   6.624   4.414   4.300  0.2798  0.3406 -0.3378
11675TIP3    H156516   6.670   4.349   4.353 -2.0573 -0.9569  0.1776
11675TIP3    H256517   6.683   4.431   4.227  0.4001 -3.4642 -1.2766
11676TIP3   OH256518   1.586   1.647  15.426  0.3408 -0.4124 -0.3476
11676TIP3    H156519   1.499   1.623  15.394 -0.1504  0.0882  0.6128
11676TIP3    H256520   1.629   1.685  15.349 -0.4023 -0.3455 -0.7362
11677TIP3   OH256521   6.615   1.023   0.923 -0.1313 -0.0013 -0.1000
11677TIP3    H156522   6.580   0.934   0.918  0.9515 -0.3659 -1.6635
11677TIP3    H256523   6.553   1.070   0.978 -0.9598 -1.6142  0.3773
11678TIP3   OH256524   4.987   1.263  14.345  0.9505 -0.1040  0.3017
11678TIP3    H156525   4.900   1.227  14.363  1.0367  0.1223  1.1916
11678TIP3    H256526   5.008   1.315  14.422  2.2877 -0.9361  0.5190
11679TIP3   OH256527   0.495   5.392  11.443 -0.0535  0.1618  0.1716
11679TIP3    H156528   0.516   5.479  11.410  1.5033 -0.1014  0.4323
11679TIP3    H256529   0.499   5.335  11.366 -0.3942  0.2091  0.1188
11680TIP3   OH256530   3.659   6.082   1.595  0.0613  0.1961 -0.3506
11680TIP3    H156531   3.605   6.152   1.633  0.0428  0.1451 -0.2834
11680TIP3    H256532   3.634   6.003   1.643 -0.7061 -0.0679 -1.1667
11681TIP3   OH256533   6.062   1.362  15.073  1.0383  0.1814 -0.4142
11681TIP3    H156534   6.098   1.418  15.003  1.6040 -0.1693 -0.4023
11681TIP3    H256535   6.039   1.280  15.028 -0.6652  0.7427 -0.6185
11682TIP3   OH256536   1.613   1.911   0.389 -0.4020 -0.3834  0.1342
11682TIP3    H156537   1.568   1.828   0.383  0.0901 -0.4287 -4.1991
11682TIP3    H256538   1.562   1.962   0.453 -1.1174 -3.6524  2.2708
11683TIP3   OH256539   4.860   3.246  14.983 -0.0478  0.1801 -0.0664
11683TIP3    H156540   4.838   3.300  14.907 -0.1366  0.2838  0.0345
11683TIP3    H256541   4.807   3.281  15.054 -1.7345 -1.3717 -0.5045
11684TIP3   OH256542   4.535   2.213  12.847 -0.0401 -0.7310 -0.4281
11684TIP3    H156543   4.624   2.232  12.878  0.2390 -0.4020 -1.4024
11684TIP3    H256544   4.503   2.145  12.906  1.2057 -1.5181 -0.6454
11685TIP3   OH256545   5.648   0.785  16.732  0.3280  0.0914 -0.4233
11685TIP3    H156546   5.598   0.866  16.730  0.8893  0.4583  0.2930
11685TIP3    H256547   5.610   0.735  16.805  0.1931 -0.1503 -0.6595
11686TIP3   OH256548   6.436   0.936   6.413  0.2726 -0.5752 -0.3421
11686TIP3    H156549   6.514   0.915   6.361  2.4263  0.6748  2.2810
11686TIP3    H256550   6.470   0.950   6.501 -2.7776  1.3269  0.5610
11687TIP3   OH256551   5.947   0.444  15.112 -0.0819  0.2112  0.0001
11687TIP3    H156552   6.027   0.476  15.070  0.4048  0.0976  0.8246
11687TIP3    H256553   5.965   0.450  15.206 -1.5775  1.5405  0.2295
11688TIP3   OH256554   2.651   1.176   4.754  0.0447  0.0169 -0.1671
11688TIP3    H156555   2.627   1.086   4.734 -0.3470 -0.1725  1.1432
11688TIP3    H256556   2.732   1.169   4.805 -0.1974  0.3782  0.2736
11689TIP3   OH256557   4.682   4.143   4.252  0.2843 -0.4067 -0.4934
11689TIP3    H156558   4.721   4.103   4.174  1.2063 -2.4244  0.9647
11689TIP3    H256559   4.756   4.154   4.312 -0.8826 -1.5612  1.1881
11690TIP3   OH256560   1.061   1.229  12.452  0.3495  0.0161  0.6339
11690TIP3    H156561   0.986   1.288  12.455  0.0361 -0.3407 -0.1061
11690TIP3    H256562   1.031   1.149  12.494  0.1194 -0.3382 -0.1946
11691TIP3   OH256563   2.589   5.003   4.787 -0.2162  0.2025 -0.6809
11691TIP3    H156564   2.660   5.052   4.746 -0.0507 -0.1546 -0.8294
11691TIP3    H256565   2.510   5.055   4.769 -0.1069  0.1811 -1.2330
11692TIP3   OH256566   3.134   1.307   0.003 -0.6249 -0.3083  0.0081
11692TIP3    H156567   3.122   1.221   0.042  0.0665 -0.9107 -1.0719
11692TIP3    H256568   3.220   1.302  -0.040 -0.1185  1.2540  0.8019
11693TIP3   OH256569   1.128   4.404  13.231  0.1465 -0.3716  0.2266
11693TIP3    H156570   1.079   4.445  13.160 -0.9530 -3.0428 -0.5915
11693TIP3    H256571   1.173   4.477  13.274  0.1655  1.3810 -2.6723
11694TIP3   OH256572   1.433   4.739   0.607 -0.4472 -0.2651  0.1621
11694TIP3    H156573   1.503   4.800   0.627 -0.7924 -0.4611  2.0448
11694TIP3    H256574   1.374   4.788   0.550  0.5331  0.3270 -0.3495
11695TIP3   OH256575   3.703   0.200   0.785 -0.3425  0.1817 -0.5385
11695TIP3    H156576   3.644   0.196   0.709  1.2840 -0.4784 -1.8213
11695TIP3    H256577   3.736   0.290   0.785 -0.2831  0.1602 -0.6656
11696TIP3   OH256578   1.319   4.113   5.395  0.0532  0.2405  0.0201
11696TIP3    H156579   1.322   4.057   5.317  1.6934 -0.5139  0.6080
11696TIP3    H256580   1.318   4.202   5.360 -0.9868 -0.1247 -0.8976
11697TIP3   OH256581   4.727   4.121  12.994  0.3539  0.3253  0.0589
11697TIP3    H156582   4.738   4.049  13.055  1.8072 -0.7681 -1.4528
11697TIP3    H256583   4.815   4.139  12.960 -0.3417  1.2035 -1.3637
11698TIP3   OH256584   2.308   4.017  17.244 -0.5708 -0.3772  0.1890
11698TIP3    H156585   2.239   3.997  17.181 -0.3086  0.5756 -0.4280
11698TIP3    H256586   2.310   3.942  17.303 -3.0227  0.1638  1.0194
11699TIP3   OH256587   5.030   2.195   5.084  0.5362  0.8936 -0.7126
11699TIP3    H156588   5.106   2.146   5.053  0.0203 -2.4019  2.9555
11699TIP3    H256589   4.955   2.144   5.053 -0.0268 -0.0704  2.1504
11700TIP3   OH256590   4.025   4.168   1.592 -0.0970  0.2023 -0.5421
11700TIP3    H156591   3.995   4.210   1.673  0.8073  0.6877 -0.4496
11700TIP3    H256592   4.092   4.106   1.620 -2.3350 -2.2649 -0.5440
11701TIP3   OH256593   3.400   4.800  12.837 -0.2413  0.9246  0.7097
11701TIP3    H156594   3.479   4.839  12.873  1.5199  0.8367 -2.8142
11701TIP3    H256595   3.346   4.875  12.810  0.1005  0.9709  0.1500
11702TIP3   OH256596   4.194   2.038  11.110  0.3043 -0.0701 -0.0212
11702TIP3    H156597   4.274   2.075  11.074 -0.0549  0.3594 -0.3784
11702TIP3    H256598   4.173   1.964  11.052 -0.1310  0.4622 -0.5591
11703TIP3   OH256599   1.753   1.767  14.756 -0.3437  0.0582  0.4331
11703TIP3    H156600   1.678   1.741  14.702  0.2794 -1.0241  0.0774
11703TIP3    H256601   1.775   1.688  14.805  0.4148  0.4476  0.7209
11704TIP3   OH256602   4.373   1.338  15.266  0.5872 -0.0030  0.3332
11704TIP3    H156603   4.410   1.403  15.207  2.5705 -0.4496  1.0273
11704TIP3    H256604   4.437   1.333  15.338 -0.1806 -1.7639  0.9174
11705TIP3   OH256605   0.417   2.766   1.715 -0.4042 -0.2102  0.1621
11705TIP3    H156606   0.439   2.764   1.809  1.3734  1.0389 -0.1981
11705TIP3    H256607   0.332   2.810   1.711 -0.1928  0.3182  1.1397
11706TIP3   OH256608   0.827   2.775   1.136  0.4694  0.5127  0.0980
11706TIP3    H156609   0.840   2.686   1.170 -2.9177 -1.0880 -2.3922
11706TIP3    H256610   0.767   2.816   1.198  1.1000  0.6552  0.6184
11707TIP3   OH256611   4.218   1.002   4.063 -0.3134  0.5330  0.1174
11707TIP3    H156612   4.137   0.994   4.013  0.9866 -1.0760 -1.8355
11707TIP3    H256613   4.280   1.041   4.001  0.1143  2.9894  1.9838
11708TIP3   OH256614   3.878   0.741   3.621 -0.0540  0.2770  0.7693
11708TIP3    H156615   3.825   0.696   3.555 -1.1990  1.0719  1.1202
11708TIP3    H256616   3.955   0.686   3.632 -0.0974 -0.1320 -0.8520
11709TIP3   OH256617   4.528   0.141  11.243 -0.5383  0.2288  0.2145
11709TIP3    H156618   4.459   0.149  11.309 -1.1376  0.7421 -0.4549
11709TIP3    H256619   4.609   0.155  11.291 -1.0038  1.1762  0.7441
11710TIP3   OH256620   6.569   4.498  14.463  0.1893 -0.5099 -0.4416
11710TIP3    H156621   6.482   4.470  14.492 -0.9164  0.1281 -3.0312
11710TIP3    H256622   6.613   4.417  14.436 -1.0088 -0.4246 -2.7297
11711TIP3   OH256623   2.635   3.279  13.193 -0.3467 -0.0667  0.0380
11711TIP3    H156624   2.703   3.282  13.125  1.6479  1.2044  2.0393
11711TIP3    H256625   2.582   3.358  13.177 -0.3813 -0.2022 -0.5311
11712TIP3   OH256626   1.980   5.045  15.028 -0.0483  0.1835  0.3869
11712TIP3    H156627   2.043   4.973  15.035  0.8293  0.6249 -2.2358
11712TIP3    H256628   1.895   5.003  15.039  0.4369 -1.3204 -1.2022
11713TIP3   OH256629   3.810   1.331  11.384 -0.1061  0.2628 -0.0052
11713TIP3    H156630   3.802   1.346  11.478  0.2792 -0.2197  0.1074
11713TIP3    H256631   3.818   1.236  11.376  1.5517  0.4202 -0.3906
11714TIP3   OH256632   0.291   6.798  11.549  0.0369  0.4643  0.0845
11714TIP3    H156633   0.336   6.760  11.625  0.9772 -1.1998 -1.2537
11714TIP3    H256634   0.337   6.761  11.473 -2.9776 -0.5833 -1.3377
11715TIP3   OH256635   2.433   4.971   5.287  0.2555  0.2415  0.6661
11715TIP3    H156636   2.391   4.890   5.260 -1.3252  0.9840  0.8733
11715TIP3    H256637   2.492   4.993   5.214  0.2347 -0.7604  0.3482
11716TIP3   OH256638   4.551   4.969  16.867 -0.0450  0.4224 -0.1887
11716TIP3    H156639   4.505   4.901  16.820 -0.5186 -0.1801  1.1218
11716TIP3    H256640   4.487   5.040  16.878  0.0452  0.5370 -0.4044
11717TIP3   OH256641   4.693   0.806  13.282  0.5102 -0.1669  0.1321
11717TIP3    H156642   4.612   0.857  13.279  1.3336  1.0920 -1.5531
11717TIP3    H256643   4.762   0.872  13.295  1.4081 -1.0395 -0.1657
11718TIP3   OH256644   0.751   2.868  16.867  0.0950 -0.0122 -0.2630
11718TIP3    H156645   0.768   2.959  16.893 -1.4488 -0.2780  1.7346
11718TIP3    H256646   0.825   2.846  16.810 -0.0543  2.8378 -1.6728
11719TIP3   OH256647   6.455   5.690   6.371 -0.1914  0.4789  0.0497
11719TIP3    H156648   6.482   5.627   6.305 -2.6641 -1.1432  0.5261
11719TIP3    H256649   6.423   5.765   6.320  1.9607  1.0562 -0.5184
11720TIP3   OH256650   0.912   1.428   3.148  0.4079 -0.3622  0.2113
11720TIP3    H156651   0.892   1.515   3.181  0.8620 -0.7195  1.4474
11720TIP3    H256652   0.924   1.440   3.053 -0.9318  0.6646  0.1531
11721TIP3   OH256653   4.652   4.935  14.380 -0.6506  0.0605  0.1667
11721TIP3    H156654   4.642   4.877  14.455 -2.4534  0.2043  0.0572
11721TIP3    H256655   4.594   5.009  14.399 -2.2703 -0.5896 -2.0162
11722TIP3   OH256656   0.394   2.569  13.267 -0.4695 -0.1842 -0.4064
11722TIP3    H156657   0.478   2.615  13.256  0.2576 -1.2476  0.6003
11722TIP3    H256658   0.365   2.594  13.355 -0.9290 -0.2761 -0.5339
11723TIP3   OH256659   0.309   5.590   5.267  0.1414  0.7349 -0.0359
11723TIP3    H156660   0.345   5.508   5.233 -2.1419 -1.4244  2.4934
11723TIP3    H256661   0.231   5.606   5.213 -1.1045 -0.4258  1.3746
11724TIP3   OH256662   5.682   4.138  13.982 -0.4417  0.1951 -0.9804
11724TIP3    H156663   5.736   4.185  13.918  3.3286 -2.4728  0.0352
11724TIP3    H256664   5.700   4.045  13.964 -2.0388 -0.6668  1.7018
11725TIP3   OH256665   1.479   5.865  15.725  0.1991  0.0463  0.1602
11725TIP3    H156666   1.411   5.869  15.658  0.7023  1.2056 -0.2785
11725TIP3    H256667   1.436   5.821  15.799 -0.5328 -0.6929 -0.6854
11726TIP3   OH256668   6.403   6.258  14.964  0.4462 -0.3821  0.0610
11726TIP3    H156669   6.468   6.326  14.944 -0.1692 -0.0786 -0.9390
11726TIP3    H256670   6.319   6.299  14.943  0.0600 -1.3657 -0.3284
11727TIP3   OH256671   4.850   0.834  13.744  0.3479  0.4634  0.0675
11727TIP3    H156672   4.910   0.906  13.722  0.7136  0.1757  0.1103
11727TIP3    H256673   4.811   0.808  13.660 -0.6547  1.4714  0.2073
11728TIP3   OH256674   1.108   0.698  14.533  0.1791 -0.0585  0.3430
11728TIP3    H156675   1.070   0.743  14.609  0.4612  0.9556 -0.0976
11728TIP3    H256676   1.203   0.702  14.547  0.2218 -0.1053  0.0800
11729TIP3   OH256677   0.441   6.325  16.235  0.1433 -0.2697 -0.1332
11729TIP3    H156678   0.407   6.236  16.224  1.3553 -0.6871 -0.6909
11729TIP3    H256679   0.369   6.374  16.273 -0.5374 -1.5057  0.2145
11730TIP3   OH256680   0.546   5.585  16.572 -0.6287  0.1324  0.4777
11730TIP3    H156681   0.527   5.505  16.622 -1.7479 -0.5498 -1.0074
11730TIP3    H256682   0.589   5.642  16.635  0.6035 -1.8062  1.4678
11731TIP3   OH256683   1.529   2.590  13.762 -0.5003 -0.8786 -0.0628
11731TIP3    H156684   1.614   2.561  13.797 -0.5396 -0.4792  0.3689
11731TIP3    H256685   1.466   2.560  13.827 -0.4025  1.6018  1.2595
11732TIP3   OH256686   1.123   3.307   4.319  0.3458 -0.4943  0.1582
11732TIP3    H156687   1.187   3.364   4.277  0.5867  0.7029  2.1005
11732TIP3    H256688   1.038   3.347   4.299  0.4476 -0.0363  0.6276
11733TIP3   OH256689   6.562   4.727  15.554 -0.4845 -0.0247  0.0676
11733TIP3    H156690   6.646   4.764  15.527 -1.0626 -0.3519 -2.2894
11733TIP3    H256691   6.522   4.796  15.608  0.5369  0.8228 -0.2382
11734TIP3   OH256692   3.849   2.112   3.238 -0.1832 -0.3578  0.5200
11734TIP3    H156693   3.797   2.143   3.312  1.1582  3.0852  0.0753
11734TIP3    H256694   3.940   2.121   3.267  0.3671  1.1239 -1.5530
11735TIP3   OH256695   5.411   2.162  12.870 -0.2324 -0.1031  0.1783
11735TIP3    H156696   5.468   2.226  12.913  0.9602 -1.2618  0.3288
11735TIP3    H256697   5.373   2.210  12.796  1.4030  0.5085 -0.2925
11736TIP3   OH256698   6.273   2.610   1.711  0.1120 -0.3107 -0.5419
11736TIP3    H156699   6.244   2.701   1.723  1.2292 -0.1483  0.9986
11736TIP3    H256700   6.194   2.558   1.729 -0.5294  0.3399 -1.4143
11737TIP3   OH256701   4.278   4.403   3.894 -0.2790 -0.0311 -0.2823
11737TIP3    H156702   4.346   4.337   3.904  1.3003  1.4972 -0.6164
11737TIP3    H256703   4.322   4.476   3.851 -1.7960  1.5062  0.6981
11738TIP3   OH256704   1.253   3.904   1.144  0.2827 -0.0700  0.4970
11738TIP3    H156705   1.335   3.859   1.124 -1.0559 -2.5043  0.2897
11738TIP3    H256706   1.225   3.868   1.228 -0.9777  0.1051  0.1762
11739TIP3   OH256707   5.107   4.406   0.099  0.2006  0.3284  0.0941
11739TIP3    H156708   5.104   4.475   0.032  1.6616  3.3570  3.0159
11739TIP3    H256709   5.031   4.424   0.155 -0.3092 -1.4421  0.0081
11740TIP3   OH256710   6.753   2.134   2.230  0.0516 -0.2036 -0.7542
11740TIP3    H156711   6.664   2.133   2.266  0.7595  1.1920  1.1393
11740TIP3    H256712   6.751   2.204   2.165 -0.1394  0.1206 -0.4075
11741TIP3   OH256713   0.688   6.581   2.278  0.6155  0.0700  0.3926
11741TIP3    H156714   0.687   6.593   2.373 -0.8012 -1.0806  0.5432
11741TIP3    H256715   0.684   6.486   2.266  0.6492  0.2172 -0.8148
11742TIP3   OH256716   6.403   6.530   2.202  0.4512  0.6687  0.0852
11742TIP3    H156717   6.453   6.607   2.230 -0.0275  0.4870  1.5141
11742TIP3    H256718   6.466   6.458   2.207 -0.0433  0.3394  2.4403
11743TIP3   OH256719   0.855   1.497   0.716  0.6322 -0.2823  0.5230
11743TIP3    H156720   0.868   1.419   0.661 -0.2269  0.2684 -0.4614
11743TIP3    H256721   0.913   1.563   0.679 -0.6299  0.3809 -0.3309
11744TIP3   OH256722   5.061   2.437   6.050  0.1785  0.1709  0.1086
11744TIP3    H156723   5.130   2.449   6.115  1.4490 -2.1103 -0.7257
11744TIP3    H256724   5.033   2.346   6.062 -0.5651  0.1531 -1.5625
11745TIP3   OH256725   2.276   1.698   1.825  0.4182 -0.7037  0.1169
11745TIP3    H156726   2.263   1.792   1.836  0.4997 -0.4378 -1.8840
11745TIP3    H256727   2.271   1.663   1.914 -0.6537  1.0531  0.7843
11746TIP3   OH256728   2.348   3.846   2.189  0.3598  0.6165 -0.3111
11746TIP3    H156729   2.357   3.931   2.148  2.7428 -0.7277 -2.7000
11746TIP3    H256730   2.404   3.851   2.267  1.3692  0.8841 -1.0435
11747TIP3   OH256731   3.283   2.681   6.366 -0.2588 -0.6247 -0.6124
11747TIP3    H156732   3.286   2.662   6.460 -1.1093  0.1508 -0.4135
11747TIP3    H256733   3.374   2.694   6.341 -0.2184  1.9485  0.7117
11748TIP3   OH256734   1.235   6.185  15.163 -0.6402  0.2069  0.6501
11748TIP3    H156735   1.274   6.271  15.179 -0.4350 -0.0880  1.8226
11748TIP3    H256736   1.156   6.185  15.217  0.3778 -1.0573  2.1683
11749TIP3   OH256737   3.765   3.983  12.391 -0.2659 -0.2893 -0.1815
11749TIP3    H156738   3.858   3.989  12.370 -0.3823  2.8022 -0.1048
11749TIP3    H256739   3.721   3.978  12.305 -0.0685 -1.3911 -0.2249
11750TIP3   OH256740   0.849   2.366  17.176 -0.0711 -0.1519  0.6626
11750TIP3    H156741   0.869   2.276  17.200 -1.1972 -0.4309  0.5837
11750TIP3    H256742   0.777   2.391  17.234 -0.3678  0.3895  0.0674
11751TIP3   OH256743   4.340   6.678  16.698  0.1825  0.0548 -0.0504
11751TIP3    H156744   4.392   6.746  16.741 -3.1551  1.6749  1.6083
11751TIP3    H256745   4.404   6.625  16.651  3.3007  1.9423  1.9009
11752TIP3   OH256746   2.380   5.907   3.727 -0.2954  0.1155 -0.0985
11752TIP3    H156747   2.289   5.917   3.755 -0.4181 -1.6295  0.2038
11752TIP3    H256748   2.376   5.848   3.652  0.6486 -0.5807  0.3923
11753TIP3   OH256749   3.220   4.163   3.931  0.1513  0.0179 -0.2022
11753TIP3    H156750   3.125   4.167   3.942  0.2384 -1.0156  1.0374
11753TIP3    H256751   3.240   4.236   3.873 -1.2835  0.8542  0.3183
11754TIP3   OH256752   5.490   2.299  17.102 -0.2421 -0.2286  0.0767
11754TIP3    H156753   5.573   2.254  17.114  0.3187 -0.0895 -2.8948
11754TIP3    H256754   5.429   2.253  17.159  1.6911 -0.8085  1.7075
11755TIP3   OH256755   1.377   1.512  12.440 -0.2544  0.0562  0.2385
11755TIP3    H156756   1.426   1.458  12.503  1.0260 -0.3884 -1.1163
11755TIP3    H256757   1.428   1.593  12.433 -0.8105  0.4186  0.3383
11756TIP3   OH256758   0.620   6.795  16.718 -0.1969  0.2659 -0.2529
11756TIP3    H156759   0.575   6.838  16.790 -0.7882 -0.7288 -0.0120
11756TIP3    H256760   0.712   6.822  16.728  0.3188 -2.1688  2.7142
11757TIP3   OH256761   5.876   1.338  12.872  0.0158 -0.0860  0.3337
11757TIP3    H156762   5.937   1.408  12.895  0.8065 -0.3849 -0.8061
11757TIP3    H256763   5.794   1.383  12.854  0.3569  0.4829  0.1969
11758TIP3   OH256764   3.524   5.518  15.456 -0.0925 -0.1004 -0.1134
11758TIP3    H156765   3.518   5.523  15.360  2.2075  2.1068 -0.2024
11758TIP3    H256766   3.535   5.609  15.483 -3.2329 -0.4408  2.4885
11759TIP3   OH256767   5.077   5.434   1.058 -0.1112 -0.4298  0.3607
11759TIP3    H156768   5.057   5.526   1.071 -1.1443 -0.8845  2.1643
11759TIP3    H256769   5.170   5.426   1.079  0.8317  0.7471 -2.9864
11760TIP3   OH256770   2.016   3.588   0.021 -0.3623  0.4794  0.1855
11760TIP3    H156771   1.959   3.511   0.015 -0.3278  0.5126 -0.5470
11760TIP3    H256772   2.097   3.555   0.060 -0.0632 -0.0147 -0.8350
11761TIP3   OH256773   5.626   4.741  17.290 -0.6004 -0.4540 -0.4778
11761TIP3    H156774   5.541   4.715  17.328  0.0043  2.3063  3.0489
11761TIP3    H256775   5.617   4.835  17.274  2.8240  0.6028  3.1143
11762TIP3   OH256776   6.162   3.771   5.471 -0.1363 -0.7269  0.2756
11762TIP3    H156777   6.205   3.782   5.387 -0.6937  2.5816  0.3321
11762TIP3    H256778   6.166   3.677   5.489  3.8703 -0.9324 -1.3315
11763TIP3   OH256779   3.570   5.245   3.842  0.5501  0.3566  0.1432
11763TIP3    H156780   3.638   5.186   3.810  0.9858  1.6671 -1.3550
11763TIP3    H256781   3.615   5.302   3.905  0.4293  0.0530  0.5126
11764TIP3   OH256782   5.542   3.548   3.881  0.0269  0.1893 -0.2047
11764TIP3    H156783   5.561   3.600   3.803 -0.0568  0.5713  0.0276
11764TIP3    H256784   5.450   3.522   3.871 -0.0296  0.3747 -0.1492
11765TIP3   OH256785   4.987   5.088   0.546 -0.2057 -1.0337 -0.0624
11765TIP3    H156786   5.021   5.162   0.496  1.2698  0.1980  2.6626
11765TIP3    H256787   4.901   5.071   0.507 -0.5477  2.0603 -0.8033
11766TIP3   OH256788   3.160   0.166   6.098 -0.4299 -0.3507  0.4851
11766TIP3    H156789   3.097   0.167   6.170 -0.2066  2.3841  0.6789
11766TIP3    H256790   3.113   0.203   6.023 -0.8938 -3.8192 -1.0587
11767TIP3   OH256791   2.820   3.477   3.945  0.1959 -0.1803  0.3360
11767TIP3    H156792   2.855   3.498   4.032  0.2041  0.7464  0.1203
11767TIP3    H256793   2.890   3.428   3.903  1.1070  1.3173  0.0548
11768TIP3   OH256794   5.992   6.070  12.147  0.6583 -0.2655 -0.3849
11768TIP3    H156795   5.945   6.024  12.077 -1.1421 -0.1810  0.7298
11768TIP3    H256796   6.052   6.005  12.183 -1.8735 -1.7989  1.1937
11769TIP3   OH256797   3.839   0.501   1.313  0.1587  0.4468  0.3518
11769TIP3    H156798   3.855   0.464   1.226  0.9531  0.8410  0.3245
11769TIP3    H256799   3.806   0.589   1.296 -1.8344 -0.2611  0.4151
11770TIP3   OH256800   1.012   0.406  15.582  0.5143  0.6433  0.2921
11770TIP3    H156801   1.068   0.452  15.644  0.4846  0.2795  0.5898
11770TIP3    H256802   0.946   0.471  15.557  1.5208  1.3103 -0.6638
11771TIP3   OH256803   2.656   2.904   4.004 -0.0868  0.4673 -0.0936
11771TIP3    H156804   2.648   2.998   3.989  1.1409  0.3039 -1.9221
11771TIP3    H256805   2.657   2.865   3.917 -0.9938 -1.2950  0.6497
11772TIP3   OH256806   5.565   6.211  15.783  0.7424  0.0226 -0.5294
11772TIP3    H156807   5.488   6.168  15.821  0.9620  0.8272  0.8784
11772TIP3    H256808   5.532   6.293  15.746  1.0661  0.8698  1.0100
11773TIP3   OH256809   4.327   1.282   4.242 -0.2759  0.0119  0.4653
11773TIP3    H156810   4.338   1.349   4.310 -2.9873  0.9022  0.0917
11773TIP3    H256811   4.233   1.269   4.236  0.1389 -3.0309 -0.3166
11774TIP3   OH256812   2.697   1.966  11.509 -0.1856  0.1229 -0.5878
11774TIP3    H156813   2.778   1.992  11.551  0.4029 -0.5559 -1.2854
11774TIP3    H256814   2.649   2.048  11.497 -0.0565  0.3980  0.7478
11775TIP3   OH256815   1.427   5.352  12.293 -0.3847  0.3912  0.5038
11775TIP3    H156816   1.414   5.375  12.385  1.0307 -0.0345  0.8075
11775TIP3    H256817   1.428   5.436  12.248 -0.1925  0.6534  0.9877
11776TIP3   OH256818   2.111   5.994   4.470 -0.4929 -0.1779  0.5790
11776TIP3    H156819   2.147   6.076   4.504 -0.1203  1.0959 -2.7532
11776TIP3    H256820   2.180   5.930   4.487 -0.1295  0.5124  1.7775
11777TIP3   OH256821   3.835   6.673  12.983  0.1595 -0.1446 -0.0724
11777TIP3    H156822   3.902   6.609  12.960  0.8127  0.8165 -0.8753
11777TIP3    H256823   3.762   6.621  13.017  1.1248 -1.2260  0.3475
11778TIP3   OH256824   1.587   3.653   1.755 -0.2611  0.3839 -0.2525
11778TIP3    H156825   1.560   3.690   1.671  0.2533 -0.7291 -0.9184
11778TIP3    H256826   1.645   3.581   1.732 -0.0533  0.1181  1.0653
11779TIP3   OH256827   5.124   4.838  11.740  0.4066  0.1489 -0.4034
11779TIP3    H156828   5.114   4.763  11.681  1.0763 -0.5503  0.3637
11779TIP3    H256829   5.034   4.858  11.767  0.0852  0.5238 -1.7059
11780TIP3   OH256830   5.561   4.647   4.929 -0.0244  0.4133  0.6089
11780TIP3    H156831   5.636   4.588   4.939 -0.2381  0.2192  1.0677
11780TIP3    H256832   5.565   4.676   4.838 -0.3416 -0.8716  0.1766
11781TIP3   OH256833   2.485   6.344   3.572 -0.0250 -0.3991  0.0911
11781TIP3    H156834   2.416   6.291   3.532 -0.6186 -0.2559  0.9190
11781TIP3    H256835   2.516   6.293   3.647  0.9500 -0.5772 -0.4240
11782TIP3   OH256836   4.961   1.197   3.764 -0.7926 -0.2795  0.3037
11782TIP3    H156837   4.886   1.190   3.823 -0.2783 -1.0544  0.8675
11782TIP3    H256838   4.972   1.292   3.751 -1.4271 -0.1398  0.7822
11783TIP3   OH256839   0.571   4.989   2.095 -0.1508 -0.0137  0.3768
11783TIP3    H156840   0.491   4.962   2.140  1.0331 -0.5863  2.2122
11783TIP3    H256841   0.640   4.938   2.137  1.3470  1.4251 -0.2760
11784TIP3   OH256842   4.757   4.300  17.003  0.7820 -0.3396 -0.0883
11784TIP3    H156843   4.831   4.352  16.970  1.6875 -1.0474  0.7928
11784TIP3    H256844   4.749   4.228  16.941  1.1166 -0.4983  0.0487
11785TIP3   OH256845   2.734   5.830  14.200  0.0182 -0.2616  0.4769
11785TIP3    H156846   2.787   5.906  14.224 -1.4390  0.7997  0.3859
11785TIP3    H256847   2.704   5.794  14.283 -0.0171 -0.2065  0.4884
11786TIP3   OH256848   4.445   1.642   0.108  0.6069 -0.3322  0.0078
11786TIP3    H156849   4.480   1.554   0.094 -0.2359 -0.6966  0.1710
11786TIP3    H256850   4.433   1.678   0.020  0.3553 -0.6205 -0.0761
11787TIP3   OH256851   0.182   3.096  13.995  0.2295 -0.0308  0.5055
11787TIP3    H156852   0.273   3.094  14.023  0.7988 -1.5200 -1.2931
11787TIP3    H256853   0.138   3.154  14.058  2.7444  2.1729  0.3142
11788TIP3   OH256854   0.196   3.814  11.205  0.6889 -1.0968  0.3336
11788TIP3    H156855   0.149   3.730  11.203  1.8524 -1.7523 -0.6514
11788TIP3    H256856   0.275   3.796  11.255 -0.3737  0.1713  2.5361
11789TIP3   OH256857   5.165   3.477  14.506 -0.3207  0.1753 -0.5454
11789TIP3    H156858   5.254   3.442  14.500 -0.1904  0.3609  0.3031
11789TIP3    H256859   5.126   3.433  14.582 -0.8036  0.4258 -0.6429
11790TIP3   OH256860   2.648   3.912   4.983 -0.0408 -0.1558  1.0117
11790TIP3    H156861   2.688   3.978   5.040 -0.9099  1.5733 -0.3555
11790TIP3    H256862   2.568   3.885   5.030 -0.4394  0.8178  0.8999
11791TIP3   OH256863   3.831   6.597  14.274  0.6459 -0.1762  0.2123
11791TIP3    H156864   3.754   6.551  14.307  0.0658  0.1713 -0.6233
11791TIP3    H256865   3.853   6.659  14.343  0.9759 -1.1755  1.0174
11792TIP3   OH256866   1.666   3.144   0.203 -0.0610 -0.1840 -0.4340
11792TIP3    H156867   1.594   3.151   0.140  0.8756 -1.5081 -1.6905
11792TIP3    H256868   1.631   3.183   0.283 -1.4057  1.2081 -1.6468
11793TIP3   OH256869   2.768   0.782   2.565 -0.7062 -0.4044  0.0082
11793TIP3    H156870   2.737   0.754   2.479 -1.3955 -1.8639  0.6955
11793TIP3    H256871   2.857   0.749   2.570  0.1725  1.7597 -1.0628
11794TIP3   OH256872   5.335   3.574  15.091  0.1082 -0.9471 -0.0998
11794TIP3    H156873   5.419   3.545  15.055  0.0638 -0.9821 -0.1769
11794TIP3    H256874   5.291   3.493  15.117 -0.2342 -0.9915 -0.8048
11795TIP3   OH256875   5.024   4.400   4.948 -0.7564 -0.3849  0.5333
11795TIP3    H156876   4.960   4.445   5.003 -0.9742  0.0243 -0.0517
11795TIP3    H256877   4.994   4.415   4.859  1.1214  1.2994  0.1607
11796TIP3   OH256878   1.730   4.798   2.300 -0.4105  0.0505 -0.4548
11796TIP3    H156879   1.774   4.730   2.248 -0.7462 -1.4979  1.2455
11796TIP3    H256880   1.697   4.860   2.235  1.0735 -0.7052 -1.9669
11797TIP3   OH256881   4.456   0.732   2.933 -0.3299  0.2412  0.0032
11797TIP3    H156882   4.419   0.670   2.870 -0.9698  0.6435 -0.0153
11797TIP3    H256883   4.381   0.764   2.983  0.2505 -0.4844  1.3390
11798TIP3   OH256884   6.397   2.233  15.709 -0.4325 -0.1833 -0.0239
11798TIP3    H156885   6.396   2.169  15.637 -1.9027  0.0662 -0.2566
11798TIP3    H256886   6.336   2.198  15.773  0.3490 -0.0516  0.7968
11799TIP3   OH256887   4.629   5.140   1.561 -0.0324 -0.2973 -0.1419
11799TIP3    H156888   4.553   5.150   1.618 -0.7334  1.0190 -1.2591
11799TIP3    H256889   4.613   5.203   1.490  1.0449 -1.5623 -1.5177
11800TIP3   OH256890   1.744   2.191   3.528  0.5869  0.5760 -0.5166
11800TIP3    H156891   1.712   2.280   3.510 -2.7230 -0.5488 -0.6729
11800TIP3    H256892   1.727   2.178   3.622  0.3098 -0.1533 -0.6627
11801TIP3   OH256893   2.258   0.514   5.558 -0.5275  0.0503 -0.1147
11801TIP3    H156894   2.184   0.476   5.605 -0.5559  1.4737  1.0224
11801TIP3    H256895   2.335   0.487   5.609 -0.6159  2.2606  1.2499
11802TIP3   OH256896   6.237   3.758   2.769  0.0016  0.0369  0.5175
11802TIP3    H156897   6.227   3.688   2.704  1.1515  1.5326 -1.2956
11802TIP3    H256898   6.147   3.786   2.788 -0.4574 -1.7173  1.0545
11803TIP3   OH256899   5.208   2.745  13.072 -0.6938 -0.7287 -0.0317
11803TIP3    H156900   5.178   2.836  13.072 -1.5079 -1.0009 -0.2598
11803TIP3    H256901   5.234   2.728  12.982  0.3027 -0.4521  0.1899
11804TIP3   OH256902   2.770   4.226   0.713 -0.6242 -0.0143 -0.0390
11804TIP3    H156903   2.833   4.189   0.652 -0.3480 -0.1628  0.3359
11804TIP3    H256904   2.820   4.288   0.765 -1.1591  1.1684 -0.9087
11805TIP3   OH256905   6.467   4.046  15.749  1.3929  0.8234 -0.3353
11805TIP3    H156906   6.478   3.972  15.689  0.2404  0.6763 -0.3587
11805TIP3    H256907   6.386   4.028  15.796  2.2005  1.0044  1.1830
11806TIP3   OH256908   3.165   1.668  12.183 -0.1299 -0.5340 -0.2020
11806TIP3    H156909   3.079   1.636  12.155 -0.4860 -0.3138  0.6321
11806TIP3    H256910   3.148   1.753  12.222  0.6240  0.0133 -1.0368
11807TIP3   OH256911   2.512   0.875   1.923  0.1915 -0.6575 -0.4726
11807TIP3    H156912   2.583   0.814   1.902  0.6267  0.0303 -1.0151
11807TIP3    H256913   2.438   0.846   1.870  0.4839 -0.5443 -0.9432
11808TIP3   OH256914   2.352   4.108  15.896 -0.4519  0.3967  0.0504
11808TIP3    H156915   2.434   4.119  15.849  1.1978  0.8162  2.9356
11808TIP3    H256916   2.308   4.193  15.887 -0.1414  0.4825 -0.6954
11809TIP3   OH256917   5.496   3.134   1.122  0.1134  0.1529  0.6450
11809TIP3    H156918   5.542   3.053   1.102  0.5407  0.6219 -0.2892
11809TIP3    H256919   5.467   3.167   1.037 -1.0403  0.4051  1.1221
11810TIP3   OH256920   2.341   1.023   2.639 -0.2206  0.7578 -0.0755
11810TIP3    H156921   2.296   0.943   2.666 -1.8553  1.0994 -1.6776
11810TIP3    H256922   2.406   0.993   2.575  3.2156  0.0324  3.5072
11811TIP3   OH256923   4.932   2.918  16.852 -0.1157 -0.6027 -0.0022
11811TIP3    H156924   4.862   2.982  16.843 -0.6993 -1.0475  1.3025
11811TIP3    H256925   5.000   2.948  16.791 -1.1325  0.2288 -0.7318
11812TIP3   OH256926   0.856   0.142   5.541  0.7898 -0.1177 -0.1574
11812TIP3    H156927   0.827   0.233   5.549 -0.7405 -0.5573 -0.4264
11812TIP3    H256928   0.916   0.129   5.614  0.1725  0.8014  0.5335
11813TIP3   OH256929   2.975   5.015   1.998 -0.3912  0.3468 -0.3418
11813TIP3    H156930   3.008   4.931   1.967  0.0229  1.1092 -2.0031
11813TIP3    H256931   3.014   5.026   2.085  1.6303  0.0155 -1.1826
11814TIP3   OH256932   3.483   6.573   4.037  0.4210 -0.0346  0.4898
11814TIP3    H156933   3.436   6.628   3.975  0.1859  0.5955  1.2178
11814TIP3    H256934   3.462   6.484   4.011 -0.4094  0.2351  0.2247
11815TIP3   OH256935   4.718   4.477  15.464 -0.2973  0.2281 -0.2603
11815TIP3    H156936   4.765   4.493  15.546 -2.0220  1.1332  0.5737
11815TIP3    H256937   4.661   4.403  15.482 -0.7485  0.4846 -0.6199
11816TIP3   OH256938   1.749   1.587   2.760 -0.0215 -0.1394  0.4212
11816TIP3    H156939   1.712   1.504   2.728  0.2867 -0.3724  0.6679
11816TIP3    H256940   1.772   1.569   2.852 -0.5833  0.4210  0.6772
11817TIP3   OH256941   3.070   4.046  14.233 -0.0718 -0.0003 -0.3639
11817TIP3    H156942   3.123   4.123  14.254  2.2230 -1.4490 -0.7368
11817TIP3    H256943   2.983   4.082  14.214  0.7093  2.4023  0.3818
11818TIP3   OH256944   3.761   5.681   5.695 -1.0891  0.4790  0.2737
11818TIP3    H156945   3.684   5.669   5.750 -0.5786  1.0981  1.1347
11818TIP3    H256946   3.830   5.629   5.737 -1.1512 -0.4805 -0.7681
11819TIP3   OH256947   6.688   3.357  15.434 -0.1981 -0.0754 -0.7328
11819TIP3    H156948   6.771   3.320  15.465 -1.6720 -1.7684  1.3780
11819TIP3    H256949   6.714   3.424  15.371  2.8460  0.6249  1.1348
11820TIP3   OH256950   3.293   6.515   2.317 -0.1513 -0.0960  0.0386
11820TIP3    H156951   3.333   6.467   2.389  0.9553 -0.6298 -0.9168
11820TIP3    H256952   3.314   6.606   2.334  0.9933 -0.3156 -0.1498
11821TIP3   OH256953   0.101   5.256  11.061  0.6731  0.3756 -0.3202
11821TIP3    H156954   0.017   5.245  11.017  1.1708 -0.7233 -0.9982
11821TIP3    H256955   0.163   5.278  10.991  1.2456 -0.3141 -0.0420
11822TIP3   OH256956   3.881   3.974   5.978  0.3092  0.1158 -0.2820
11822TIP3    H156957   3.898   4.065   5.999 -1.0756  0.0799  1.0757
11822TIP3    H256958   3.786   3.965   5.984  0.5220 -1.6856  0.8210
11823TIP3   OH256959   5.237   2.559   0.816  0.3513 -0.2565  0.2965
11823TIP3    H156960   5.200   2.618   0.882  1.3605  1.2051 -0.4285
11823TIP3    H256961   5.170   2.552   0.749  0.9015  1.4120 -0.4288
11824TIP3   OH256962   5.755   0.314  14.967  0.2062 -0.5622  1.0667
11824TIP3    H156963   5.793   0.228  14.949 -1.1898 -0.8865 -0.4515
11824TIP3    H256964   5.824   0.361  15.014  1.7518 -1.7949  0.0931
11825TIP3   OH256965   4.037   1.706   6.251  0.7475  0.0754  0.2962
11825TIP3    H156966   4.025   1.794   6.287 -0.2119  0.8347 -1.8107
11825TIP3    H256967   3.991   1.648   6.312  3.0831  0.7580  2.7988
11826TIP3   OH256968   5.547   3.900   5.708 -0.0816 -0.1709 -0.4895
11826TIP3    H156969   5.498   3.848   5.771 -1.5081  1.3029 -0.3438
11826TIP3    H256970   5.496   3.894   5.627 -0.3884  1.1347 -0.4162
11827TIP3   OH256971   4.195   1.771   0.454 -0.5416 -0.1603 -0.1767
11827TIP3    H156972   4.256   1.700   0.473  1.5004  0.8314 -2.5937
11827TIP3    H256973   4.203   1.831   0.529 -1.1438 -1.7143  1.1443
11828TIP3   OH256974   5.759   5.663  11.271 -0.5192  0.6763  0.5178
11828TIP3    H156975   5.789   5.750  11.294  1.3983  0.2380 -0.1910
11828TIP3    H256976   5.833   5.606  11.291 -0.7228 -0.4056 -1.6261
11829TIP3   OH256977   4.037   4.976  11.842  0.8251 -0.2136 -0.5879
11829TIP3    H156978   4.099   4.907  11.867  0.9291 -0.3027 -1.0721
11829TIP3    H256979   4.077   5.057  11.872 -0.1940 -0.5228  1.6961
11830TIP3   OH256980   5.100   6.141  16.373  0.0634 -0.2461  0.5183
11830TIP3    H156981   5.136   6.075  16.433  1.3707  0.4351  0.5029
11830TIP3    H256982   5.052   6.201  16.430 -1.1533 -1.2174  0.5307
11831TIP3   OH256983   6.232   0.161   3.249  0.0308  0.1795 -0.5310
11831TIP3    H156984   6.306   0.171   3.309 -1.2166 -1.9799  1.4309
11831TIP3    H256985   6.215   0.067   3.246 -2.0866  0.5606 -1.6638
11832TIP3   OH256986   2.814   1.690  11.678  0.0974 -0.4539  0.1676
11832TIP3    H156987   2.754   1.617  11.667 -0.3097 -0.3164  1.3909
11832TIP3    H256988   2.810   1.737  11.595  0.5176 -1.9294 -0.6952
11833TIP3   OH256989   2.273   6.042  15.063 -0.3828 -0.2822  0.1028
11833TIP3    H156990   2.218   6.060  15.139  0.5250  1.8104  0.3211
11833TIP3    H256991   2.354   6.006  15.099 -0.0788  0.4021  0.1168
11834TIP3   OH256992   4.935   0.234  14.948 -0.6317  0.2520 -0.2904
11834TIP3    H156993   4.938   0.228  15.043 -3.1990  1.2070 -0.1057
11834TIP3    H256994   4.997   0.303  14.926  0.1423 -0.1308  0.6563
11835TIP3   OH256995   3.904   6.428  10.767  0.0558  1.0144 -0.4648
11835TIP3    H156996   3.941   6.430  10.679 -0.4439  1.4207 -0.6635
11835TIP3    H256997   3.817   6.389  10.756 -0.8703  3.0380 -0.4747
11836TIP3   OH256998   1.736   4.899  13.172  0.4293  0.6446  0.7611
11836TIP3    H156999   1.787   4.834  13.123 -0.1861  0.9822 -0.3415
11836TIP3    H257000   1.799   4.939  13.231  0.8690 -0.8019  1.2965
11837TIP3   OH257001   0.682   5.997  16.628  0.3891 -0.0661 -0.3086
11837TIP3    H157002   0.687   5.989  16.533  1.4294  1.0566 -0.3653
11837TIP3    H257003   0.767   5.965  16.660 -0.1662 -0.9709  0.2851
11838TIP3   OH257004   4.710   4.444   1.261 -0.5455  0.0368  0.2091
11838TIP3    H157005   4.693   4.405   1.347  0.0609 -1.4082 -0.3003
11838TIP3    H257006   4.635   4.419   1.208 -0.3475 -0.1037 -0.0082
11839TIP3   OH257007   6.124   2.191  14.278 -0.3428  0.1481 -0.5285
11839TIP3    H157008   6.052   2.198  14.216 -1.1902  0.7967  0.5037
11839TIP3    H257009   6.107   2.110  14.325  1.2115 -1.2165 -2.2459
11840TIP3   OH257010   3.048   1.138   3.757 -0.2836 -0.2307 -0.0497
11840TIP3    H157011   3.053   1.187   3.839  0.0993  1.7507 -1.2189
11840TIP3    H257012   3.139   1.121   3.734 -0.3894 -0.6971 -0.1194
11841TIP3   OH257013   4.975   2.310  11.346  0.2347  0.1379  0.5767
11841TIP3    H157014   4.883   2.315  11.318  0.2284  3.9058  1.0092
11841TIP3    H257015   4.971   2.314  11.442  0.8513  0.2005  0.6010
11842TIP3   OH257016   1.984   4.860   1.453 -0.2178  0.3893 -0.4383
11842TIP3    H157017   2.008   4.858   1.360 -0.3607  0.5866 -0.4811
11842TIP3    H257018   2.048   4.920   1.492 -0.4968  0.7420 -0.5123
11843TIP3   OH257019   4.683   3.320  15.199 -0.2049  0.3816 -0.2246
11843TIP3    H157020   4.650   3.271  15.275 -0.6103 -0.7730 -1.1171
11843TIP3    H257021   4.654   3.410  15.214  1.6764  0.6554  2.0972
11844TIP3   OH257022   1.711   3.516  11.745 -0.3276 -0.2688  0.9906
11844TIP3    H157023   1.749   3.433  11.718 -1.0941 -0.8966  1.7927
11844TIP3    H257024   1.784   3.566  11.781  0.3969 -0.0445 -0.7628
11845TIP3   OH257025   4.882   4.202   5.451 -0.4464  0.1435 -0.5199
11845TIP3    H157026   4.872   4.289   5.490  0.1363  0.2919 -0.6997
11845TIP3    H257027   4.890   4.143   5.526  1.5577  0.5308 -0.3978
11846TIP3   OH257028   3.548   5.527   1.338  0.1388 -0.4316  0.5094
11846TIP3    H157029   3.564   5.607   1.389  0.4414 -0.4275  0.4133
11846TIP3    H257030   3.473   5.549   1.283  0.4869 -0.0647  0.1772
11847TIP3   OH257031   1.111   2.506  17.176  0.1486  0.5959  0.4506
11847TIP3    H157032   1.020   2.479  17.187  0.0956  0.5201 -0.1544
11847TIP3    H257033   1.161   2.443  17.228 -0.0530 -0.0765 -0.1669
11848TIP3   OH257034   4.377   3.978   1.379 -0.8428  0.1421  0.4726
11848TIP3    H157035   4.448   4.040   1.365  0.1188 -0.8388  0.9308
11848TIP3    H257036   4.299   4.022   1.345  0.0717  1.0168 -0.5061
11849TIP3   OH257037   2.428   5.326   3.730 -0.2427  0.1961  0.0907
11849TIP3    H157038   2.400   5.351   3.642  1.4338  1.3132 -0.1575
11849TIP3    H257039   2.434   5.409   3.778 -0.5230 -0.3414  1.0708
11850TIP3   OH257040   2.246   3.095   3.903 -0.4399 -0.3977 -0.1732
11850TIP3    H157041   2.196   3.030   3.852 -2.3719  1.7831 -1.1310
11850TIP3    H257042   2.220   3.078   3.994  0.8852 -2.4782 -0.1416
11851TIP3   OH257043   4.920   1.278  15.832  0.1015  0.9624  0.1219
11851TIP3    H157044   4.950   1.364  15.861  0.4177  0.1644  2.3230
11851TIP3    H257045   4.949   1.271  15.741 -0.1619  3.2713 -0.1493
11852TIP3   OH257046   5.599   5.079  16.662 -0.3523  0.5668  0.6552
11852TIP3    H157047   5.678   5.081  16.716 -0.4159  2.0544  0.7111
11852TIP3    H257048   5.619   5.017  16.592 -0.0120 -0.8558  1.9899
11853TIP3   OH257049   2.420   1.331  12.114 -0.2551  0.1732  0.0018
11853TIP3    H157050   2.350   1.393  12.092  0.2055  0.4291 -0.7691
11853TIP3    H257051   2.497   1.387  12.127 -0.1202 -0.1354  0.5247
11854TIP3   OH257052   1.386   5.747   6.263  0.2419 -0.3913  0.0125
11854TIP3    H157053   1.406   5.837   6.290  2.4164 -0.6362 -0.7411
11854TIP3    H257054   1.356   5.705   6.344  0.7465  0.5754  0.7253
11855TIP3   OH257055   1.008   1.958  14.019  0.3439 -0.7096  0.0134
11855TIP3    H157056   1.074   1.986  13.956 -0.1985  0.3592 -0.0972
11855TIP3    H257057   1.031   2.003  14.100 -1.6564  1.6895 -0.6712
11856TIP3   OH257058   1.392   0.856   1.067 -0.1512 -0.1855  0.3145
11856TIP3    H157059   1.395   0.762   1.085  0.2801 -0.4638 -1.0931
11856TIP3    H257060   1.473   0.873   1.019  0.0519  1.0260  1.0892
11857TIP3   OH257061   4.198   3.119  13.688 -0.0843  0.3833 -0.1099
11857TIP3    H157062   4.221   3.180  13.619 -1.1540  0.7348 -0.1506
11857TIP3    H257063   4.165   3.042  13.642 -0.6950  0.5754  0.0133
11858TIP3   OH257064   0.633   0.987   0.669 -0.1530 -0.5355 -0.4223
11858TIP3    H157065   0.670   0.912   0.715 -0.1743  0.4952  1.2935
11858TIP3    H257066   0.636   0.961   0.576  1.8657 -1.7628 -0.0564
11859TIP3   OH257067   4.170   2.687   0.352 -0.2843 -0.0870 -0.3637
11859TIP3    H157068   4.224   2.672   0.429 -1.4857  0.7960  0.6778
11859TIP3    H257069   4.188   2.778   0.327  0.0462 -0.3486 -1.0796
11860TIP3   OH257070   0.150   4.538  12.200  0.7561 -0.2546  0.1837
11860TIP3    H157071   0.146   4.584  12.284 -0.0699 -0.6287  0.3559
11860TIP3    H257072   0.182   4.451  12.222  2.0375  0.1397 -0.1048
11861TIP3   OH257073   2.142   1.087  15.963 -0.1308 -0.0810  0.5502
11861TIP3    H157074   2.087   1.115  15.890  0.2764 -1.5637 -0.3478
11861TIP3    H257075   2.092   1.015  16.003 -0.4088  0.8031  1.8076
11862TIP3   OH257076   1.956   1.921  14.612 -0.2211 -0.5407  0.4206
11862TIP3    H157077   2.032   1.892  14.664 -1.1257 -1.6163  1.1780
11862TIP3    H257078   1.887   1.859  14.636 -0.7390 -0.8644 -1.8596
11863TIP3   OH257079   0.110   4.494   0.646 -0.1132 -0.1768 -0.7341
11863TIP3    H157080   0.139   4.466   0.733  1.5732 -0.7707 -1.4600
11863TIP3    H257081   0.037   4.436   0.626  0.4853 -1.0791 -0.3467
11864TIP3   OH257082   0.464   4.383  13.145 -0.0123 -0.0904  0.0115
11864TIP3    H157083   0.430   4.472  13.158  2.0781  0.6576  0.5266
11864TIP3    H257084   0.393   4.326  13.176 -0.5242  1.4375  1.8024
11865TIP3   OH257085   5.211   3.280   4.003 -0.3258 -0.2647  0.4341
11865TIP3    H157086   5.264   3.210   4.040 -0.8564 -0.4548  0.8451
11865TIP3    H257087   5.121   3.256   4.025 -0.4261  1.1783  1.6257
11866TIP3   OH257088   3.104   2.656  16.516  0.3363 -0.5861 -0.0045
11866TIP3    H157089   3.093   2.721  16.585  0.0551 -0.6362 -0.0036
11866TIP3    H257090   3.132   2.708  16.440 -0.8520 -0.3328 -0.2726
11867TIP3   OH257091   0.303   6.804  17.240 -0.1353 -0.2053  0.7485
11867TIP3    H157092   0.371   6.857  17.282 -0.4783  2.4429 -1.9028
11867TIP3    H257093   0.294   6.841  17.152 -1.7430 -3.5007 -0.5665
11868TIP3   OH257094   5.448   3.257  10.734  0.1394 -0.1005 -0.0845
11868TIP3    H157095   5.543   3.256  10.721  0.1038  0.5015 -0.4010
11868TIP3    H257096   5.412   3.223  10.653  0.0919 -0.6712  0.1702
11869TIP3   OH257097   6.809   1.776   0.284  0.2430  0.0501 -0.4172
11869TIP3    H157098   6.828   1.725   0.205  0.7233 -0.5947  0.1022
11869TIP3    H257099   6.842   1.863   0.265  2.1399 -0.5981 -0.2095
11870TIP3   OH257100   0.816   0.422   5.475  0.9907  0.3579  0.0147
11870TIP3    H157101   0.825   0.391   5.385 -0.1429  0.6299 -0.1929
11870TIP3    H257102   0.841   0.514   5.471 -1.1656  0.9405 -0.4385
11871TIP3   OH257103   1.361   2.323  15.168 -0.0555 -0.2778  0.5978
11871TIP3    H157104   1.410   2.383  15.223  1.2232 -2.0400  1.4498
11871TIP3    H257105   1.284   2.299  15.220 -0.9630  1.1871 -0.0530
11872TIP3   OH257106   2.067   4.189  14.292 -0.0847  0.0488  0.0592
11872TIP3    H157107   2.094   4.263  14.346 -0.8604 -0.2455  0.8744
11872TIP3    H257108   2.149   4.146  14.267  0.2944  0.3405  0.7877
11873TIP3   OH257109   5.223   4.994   3.363  0.1593 -0.1253 -0.1979
11873TIP3    H157110   5.132   5.018   3.381 -0.0565 -1.7085  0.9958
11873TIP3    H257111   5.234   5.008   3.269 -1.3670 -0.0449 -0.3772
11874TIP3   OH257112   6.569   0.354  11.677 -0.2982 -0.1202 -0.2627
11874TIP3    H157113   6.482   0.389  11.699  0.1523  0.5676  0.4332
11874TIP3    H257114   6.630   0.413  11.720  0.4734 -1.9304  1.1598
11875TIP3   OH257115   4.128   0.320   6.378  0.1119  0.2600  0.0053
11875TIP3    H157116   4.182   0.302   6.300 -0.7605  1.2900 -0.8536
11875TIP3    H257117   4.082   0.401   6.357 -0.0711  0.6000  1.6438
11876TIP3   OH257118   2.033   5.023   5.521  0.2383 -0.2662 -0.0514
11876TIP3    H157119   2.063   5.074   5.597  0.2189 -1.0430  0.4755
11876TIP3    H257120   1.951   4.982   5.550 -0.4695  0.4885 -0.9279
11877TIP3   OH257121   0.365   2.533  11.622  0.6536 -0.2282 -0.7575
11877TIP3    H157122   0.359   2.502  11.532  0.6820 -0.1874 -0.7737
11877TIP3    H257123   0.428   2.605  11.619  0.1747  0.1992 -0.8222
11878TIP3   OH257124   3.369   1.644  11.823  0.0902  0.3768 -0.5076
11878TIP3    H157125   3.388   1.701  11.748  1.0090 -2.0166 -2.1487
11878TIP3    H257126   3.341   1.704  11.892 -1.0252  2.6468 -2.8333
11879TIP3   OH257127   5.892   5.875   0.437  0.4501  0.0526  0.5020
11879TIP3    H157128   5.819   5.857   0.496  0.1077 -1.2499 -0.2837
11879TIP3    H257129   5.852   5.877   0.350  0.8113  2.7405  0.3478
11880TIP3   OH257130   2.435   3.772  14.649  0.9207 -0.0862  0.2797
11880TIP3    H157131   2.428   3.716  14.571  1.7685  0.8506 -0.4769
11880TIP3    H257132   2.377   3.845  14.631 -1.0979 -1.2687  1.7779
11881TIP3   OH257133   0.620   3.059  13.853  0.4776  0.1492 -0.1201
11881TIP3    H157134   0.608   3.140  13.804  0.6876  0.1172 -0.2213
11881TIP3    H257135   0.674   3.003  13.797 -1.9624 -1.1436 -1.2692
11882TIP3   OH257136   6.010   0.787   5.840 -0.0658  0.3046  0.4385
11882TIP3    H157137   6.098   0.818   5.817  0.2888 -0.5867  0.5940
11882TIP3    H257138   6.015   0.770   5.934  0.7912 -3.6980 -0.2793
11883TIP3   OH257139   0.171   3.158  12.707  0.1620  0.3641  0.3831
11883TIP3    H157140   0.083   3.137  12.738  1.0405 -1.8503  1.5044
11883TIP3    H257141   0.164   3.159  12.612 -1.0277 -0.0340  0.4633
11884TIP3   OH257142   2.708   0.208   0.159 -0.0644  0.5062 -0.0320
11884TIP3    H157143   2.766   0.244   0.227  2.8794  0.0508 -2.1894
11884TIP3    H257144   2.724   0.113   0.162 -1.0281  0.3334 -0.3581
11885TIP3   OH257145   2.265   2.498   1.781 -0.1151 -0.0686 -0.2103
11885TIP3    H157146   2.307   2.419   1.747  1.9356  1.0531 -0.3801
11885TIP3    H257147   2.232   2.543   1.704 -1.4681 -0.8402 -0.0958
11886TIP3   OH257148   0.411   2.922  15.210  0.2604 -0.1378 -0.0749
11886TIP3    H157149   0.386   2.836  15.177  0.0734  0.0105 -0.3283
11886TIP3    H257150   0.492   2.943  15.164  0.6442 -0.4499  0.4565
11887TIP3   OH257151   0.555   2.796  13.478  0.1944 -0.4726  0.6281
11887TIP3    H157152   0.463   2.779  13.493 -0.0029  0.7570  0.8522
11887TIP3    H257153   0.598   2.710  13.489 -1.0849 -1.3260 -0.9326
11888TIP3   OH257154   4.683   6.746   5.215  0.5128 -1.1780 -0.0890
11888TIP3    H157155   4.690   6.791   5.131  0.0562 -2.1308 -0.6469
11888TIP3    H257156   4.613   6.682   5.202 -0.2184 -0.6841  1.3219
11889TIP3   OH257157   5.053   5.724   6.399 -0.1789 -0.0036  0.1586
11889TIP3    H157158   5.074   5.810   6.434 -0.9957  0.0088  0.6371
11889TIP3    H257159   5.073   5.663   6.471  0.4078 -0.2111 -0.1808
11890TIP3   OH257160   3.322   2.257  12.704  0.1473 -0.5020  0.4963
11890TIP3    H157161   3.281   2.326  12.755  0.7001 -0.2237  0.5725
11890TIP3    H257162   3.416   2.270  12.717  0.2333 -2.6504  2.3599
11891TIP3   OH257163   3.840   0.949  14.845 -0.3521  0.4922  0.0172
11891TIP3    H157164   3.760   0.994  14.817  0.4952  1.8545 -0.2596
11891TIP3    H257165   3.865   0.895  14.770 -1.0269  0.0251  0.1217
11892TIP3   OH257166   4.216   0.154  12.262 -0.0056  0.1530 -0.6720
11892TIP3    H157167   4.128   0.166  12.227 -0.5334 -0.6357  0.3500
11892TIP3    H257168   4.260   0.098  12.198 -0.5776 -0.3033 -0.6751
11893TIP3   OH257169   0.558   3.131   3.743 -0.3017  0.3283  0.0289
11893TIP3    H157170   0.563   3.109   3.836  1.5946  2.5655  0.5127
11893TIP3    H257171   0.465   3.129   3.723 -0.8432  0.9856  2.2913
11894TIP3   OH257172   2.953   6.458  17.043  0.1813  0.3093 -0.3053
11894TIP3    H157173   2.914   6.475  17.130  0.2353 -0.1593 -0.1891
11894TIP3    H257174   2.878   6.456  16.984  0.1197  0.3771 -0.2305
11895TIP3   OH257175   3.143   6.182  13.757  0.0686 -0.0386 -0.1464
11895TIP3    H157176   3.050   6.163  13.744 -0.2027 -0.5835  2.2530
11895TIP3    H257177   3.177   6.104  13.801  1.1317  1.0721  1.0526
11896TIP3   OH257178   2.166   5.953   3.883 -0.5240  0.1003 -0.3006
11896TIP3    H157179   2.228   5.994   3.943 -0.1120 -0.3890 -0.3926
11896TIP3    H257180   2.092   6.014   3.881  0.1675  0.9441 -0.6054
11897TIP3   OH257181   0.838   5.286   5.818  0.6724 -0.8415 -0.6963
11897TIP3    H157182   0.920   5.243   5.839  1.0585  0.1066 -0.2042
11897TIP3    H257183   0.803   5.313   5.903  0.3825 -0.2939 -0.9855
11898TIP3   OH257184   6.180   5.973   1.141  0.7791 -0.3297  0.5311
11898TIP3    H157185   6.149   5.942   1.226 -0.9931  1.9398  0.7551
11898TIP3    H257186   6.252   5.914   1.119 -1.3965 -3.5360  1.6531
11899TIP3   OH257187   2.653   0.949  14.181  0.1236  0.2073  0.1539
11899TIP3    H157188   2.630   0.874  14.126 -0.2497  0.7374 -0.4182
11899TIP3    H257189   2.740   0.976  14.151  0.5894 -0.4631  0.8745
11900TIP3   OH257190   1.759   1.900   5.495 -0.0421 -0.5605 -0.1517
11900TIP3    H157191   1.696   1.955   5.542 -1.4046 -1.0273 -1.3757
11900TIP3    H257192   1.819   1.869   5.562 -0.2382  1.1078  0.8094
11901TIP3   OH257193   0.369   4.815  17.205 -0.2003 -0.0394 -0.6957
11901TIP3    H157194   0.434   4.877  17.239  0.4583 -0.3804 -1.3011
11901TIP3    H257195   0.296   4.870  17.176  0.1485  0.4119 -0.7280
11902TIP3   OH257196   6.065   0.769   4.151 -0.1913 -0.1481 -0.0961
11902TIP3    H157197   6.154   0.794   4.177 -0.8253  1.5028  0.5376
11902TIP3    H257198   6.050   0.812   4.068 -1.1408  1.3001  0.8016
11903TIP3   OH257199   0.231   3.316   0.018  0.9878  0.2331 -0.8752
11903TIP3    H157200   0.148   3.309  -0.029 -0.3618  1.7616  1.2144
11903TIP3    H257201   0.271   3.396  -0.014  0.0830  1.2574  0.4916
11904TIP3   OH257202   0.108   5.064  11.666 -0.4489 -0.3781 -0.1649
11904TIP3    H157203   0.185   5.102  11.709 -0.3422  1.7901 -2.1564
11904TIP3    H257204   0.111   4.971  11.689  1.7892 -0.0111  1.2004
11905TIP3   OH257205   1.639   5.752   2.579  0.3154  0.2535 -0.3120
11905TIP3    H157206   1.594   5.829   2.612  0.6196  0.4950 -0.4668
11905TIP3    H257207   1.595   5.678   2.622 -0.3597  0.4771 -0.6261
11906TIP3   OH257208   1.409   1.298  13.946 -0.2501  0.6246  0.1045
11906TIP3    H157209   1.315   1.315  13.948  0.0689  2.6158 -0.7271
11906TIP3    H257210   1.447   1.380  13.915  1.7239 -0.3208 -0.0124
11907TIP3   OH257211   5.438   5.808  16.245  0.7565 -0.2378  0.1241
11907TIP3    H157212   5.410   5.721  16.215  0.9674 -0.5049  0.7019
11907TIP3    H257213   5.524   5.821  16.205  0.0584  0.3498 -1.2005
11908TIP3   OH257214   4.513   6.621   1.912  0.0446  0.2984 -0.3996
11908TIP3    H157215   4.450   6.692   1.903 -0.7771 -0.0305  2.1599
11908TIP3    H257216   4.594   6.664   1.940 -0.0097  0.3924 -0.3859
11909TIP3   OH257217   5.201   2.582  11.736 -0.4234  0.0359 -0.0016
11909TIP3    H157218   5.125   2.569  11.678 -0.8847  0.4207  0.5058
11909TIP3    H257219   5.210   2.677  11.741  0.1756 -0.0120 -0.1583
11910TIP3   OH257220   2.586   2.106  11.764  0.0563  0.1714 -0.1839
11910TIP3    H157221   2.653   2.038  11.770 -0.4102 -0.2717 -0.0264
11910TIP3    H257222   2.580   2.141  11.853 -0.6876 -0.5214  0.0416
11911TIP3   OH257223   5.498   1.014  16.715  0.2721 -0.0188 -0.0105
11911TIP3    H157224   5.499   1.015  16.620  0.9084  2.7301 -0.0050
11911TIP3    H257225   5.418   1.059  16.740  0.6746  0.2891  0.7592
11912TIP3   OH257226   2.799   5.588   3.956 -0.5604 -0.1569 -0.3528
11912TIP3    H157227   2.777   5.678   3.981 -0.3495  0.0948 -1.0521
11912TIP3    H257228   2.768   5.535   4.028 -1.7610  0.3725 -0.4749
11913TIP3   OH257229   1.510   4.581  14.000 -0.4330  0.0605 -0.0037
11913TIP3    H157230   1.522   4.516  14.070 -0.5137 -1.5117 -1.4190
11913TIP3    H257231   1.568   4.551  13.930 -0.6781  1.3927 -0.7847
11914TIP3   OH257232   6.715   0.929   4.500  0.2373 -0.2166 -0.8152
11914TIP3    H157233   6.734   0.873   4.576 -0.9182  0.8236  0.2652
11914TIP3    H257234   6.626   0.905   4.475 -0.7620  2.0034  0.4588
11915TIP3   OH257235   1.877   4.449  12.402 -0.1174  0.7284  0.0141
11915TIP3    H157236   1.886   4.444  12.497 -1.3688 -1.5372  0.0534
11915TIP3    H257237   1.963   4.423  12.369  0.2166  1.1816  0.5162
11916TIP3   OH257238   3.859   2.155  10.761  0.6026 -0.3363 -0.7440
11916TIP3    H157239   3.951   2.179  10.749  0.0241  2.2878 -0.2063
11916TIP3    H257240   3.838   2.182  10.851 -1.0546  0.3673 -1.3187
11917TIP3   OH257241   2.985   4.302   5.960  0.3866  0.1546  0.0594
11917TIP3    H157242   2.911   4.244   5.939  1.0981 -0.6047 -0.3837
11917TIP3    H257243   3.000   4.352   5.880 -0.0644  0.7687  0.3611
11918TIP3   OH257244   1.167   5.204   3.117  0.2067 -0.4329 -0.0859
11918TIP3    H157245   1.181   5.298   3.131  0.0151 -0.5076  0.6026
11918TIP3    H257246   1.189   5.190   3.025 -0.1466  0.3648 -0.2930
11919TIP3   OH257247   0.989   0.283  12.778  0.2084  0.1288 -0.1950
11919TIP3    H157248   1.070   0.326  12.752  0.2339 -0.4494 -1.1223
11919TIP3    H257249   0.921   0.328  12.727  0.2781 -1.1338 -1.4365
11920TIP3   OH257250   4.945   0.278  17.087 -0.0778  0.1511 -0.4970
11920TIP3    H157251   4.941   0.349  17.023 -1.6731 -0.0521 -0.6388
11920TIP3    H257252   4.936   0.198  17.035  0.3896 -0.0928 -0.2029
11921TIP3   OH257253   3.274   4.948  14.129  0.0515 -0.1213  0.1649
11921TIP3    H157254   3.269   4.888  14.054 -0.5713  0.3635 -0.1837
11921TIP3    H257255   3.364   4.982  14.125 -0.4849  1.1784 -1.3669
11922TIP3   OH257256   1.406   6.819   3.780  0.4584  0.0581  0.1389
11922TIP3    H157257   1.353   6.897   3.798 -0.2439 -0.3472 -0.1592
11922TIP3    H257258   1.368   6.751   3.835  1.1728 -0.0396  0.5188
11923TIP3   OH257259   0.191   2.157   1.664  0.2720 -0.3170  0.4514
11923TIP3    H157260   0.115   2.206   1.694  0.2018  0.3961 -0.8183
11923TIP3    H257261   0.157   2.098   1.597  0.9301  0.5930 -0.7196
11924TIP3   OH257262   5.103   2.971   4.683  0.3688 -0.0406 -0.0737
11924TIP3    H157263   5.138   2.887   4.713 -0.1358  0.0694  0.8543
11924TIP3    H257264   5.023   2.983   4.735 -0.7618 -0.0374 -1.7737
11925TIP3   OH257265   5.536   0.813  11.938  0.3744  0.1455  0.2748
11925TIP3    H157266   5.551   0.882  12.003 -0.2112  0.1443  0.4150
11925TIP3    H257267   5.606   0.824  11.874  0.1383  1.0220  0.1706
11926TIP3   OH257268   3.507   2.555  12.795  0.4196  1.0288 -0.6624
11926TIP3    H157269   3.537   2.543  12.885  0.5683 -0.0888 -0.8579
11926TIP3    H257270   3.422   2.597  12.803 -1.1480 -2.1668  0.1173
11927TIP3   OH257271   4.785   5.402   5.614 -0.3957  0.9095 -0.3259
11927TIP3    H157272   4.748   5.365   5.534  0.6230 -2.1138  0.5291
11927TIP3    H257273   4.856   5.459   5.584 -0.1053 -0.1117 -1.6038
11928TIP3   OH257274   0.268   0.366  11.902 -0.0376  0.5344 -0.6918
11928TIP3    H157275   0.313   0.445  11.931  2.8281 -1.4104  0.4253
11928TIP3    H257276   0.283   0.363  11.807  0.3281  1.0212 -0.6499
11929TIP3   OH257277   3.391   4.702  13.117  0.1210  0.0304 -0.3308
11929TIP3    H157278   3.360   4.777  13.169  0.0118  1.2480 -2.1037
11929TIP3    H257279   3.315   4.675  13.066 -0.1901 -2.1425  1.2401
11930TIP3   OH257280   4.109   3.831  15.366 -0.8399 -0.8054 -0.2577
11930TIP3    H157281   4.186   3.849  15.311 -0.6359  0.4437  0.4228
11930TIP3    H257282   4.145   3.823  15.454 -0.9256 -4.5719 -0.4953
11931TIP3   OH257283   0.861   2.358  12.801  0.1711 -0.1798  0.0019
11931TIP3    H157284   0.911   2.437  12.821 -1.7178  1.1563 -0.4116
11931TIP3    H257285   0.838   2.366  12.708 -0.6871 -0.8324  0.1394
11932TIP3   OH257286   2.456   2.372  14.519  0.6426 -0.0009 -0.3800
11932TIP3    H157287   2.396   2.309  14.558 -0.3960 -0.2108 -2.2321
11932TIP3    H257288   2.540   2.354  14.561 -0.2453 -0.7383  1.1352
11933TIP3   OH257289   4.583   6.533   0.583 -0.3744 -0.1252  0.0398
11933TIP3    H157290   4.605   6.476   0.509  1.7579  1.4227 -0.5521
11933TIP3    H257291   4.494   6.564   0.562 -0.5183 -1.1468 -0.9460
11934TIP3   OH257292   1.441   3.655  13.525 -0.9022  0.0952 -0.3799
11934TIP3    H157293   1.362   3.637  13.475 -1.9668 -0.0850  1.3425
11934TIP3    H257294   1.411   3.694  13.606  0.6688 -1.1385  0.8530
11935TIP3   OH257295   4.984   3.994  14.187 -0.4395 -0.4886 -0.5555
11935TIP3    H157296   4.922   3.940  14.138  0.6709 -1.1656 -1.2474
11935TIP3    H257297   4.950   3.994  14.277 -0.5361 -2.2583 -0.5670
11936TIP3   OH257298   3.428   0.161   1.759 -0.1784  0.0541 -0.8270
11936TIP3    H157299   3.373   0.214   1.701  0.4732  1.5766 -0.1046
11936TIP3    H257300   3.504   0.139   1.706 -0.4377 -0.1322 -1.1237
11937TIP3   OH257301   1.565   6.372  15.403 -0.2911  0.5176  0.0052
11937TIP3    H157302   1.471   6.381  15.384 -0.2549 -0.6556 -0.7792
11937TIP3    H257303   1.590   6.291  15.359  1.1750  1.0121 -0.0657
11938TIP3   OH257304   6.710   5.907   0.340  0.2116 -0.3930 -0.0490
11938TIP3    H157305   6.623   5.941   0.360  0.4410  1.0575 -1.4162
11938TIP3    H257306   6.694   5.821   0.303 -0.6893  0.0468 -0.7121
11939TIP3   OH257307   0.019   4.267   3.846 -0.1907 -0.1329  0.3263
11939TIP3    H157308   0.061   4.344   3.806 -1.5882  0.3257 -0.2870
11939TIP3    H257309  -0.056   4.302   3.893 -1.0182 -1.1505 -0.2128
11940TIP3   OH257310   0.223   0.350  17.184 -0.9345  0.2095  0.2460
11940TIP3    H157311   0.288   0.404  17.140 -2.1700  0.4447 -1.3441
11940TIP3    H257312   0.211   0.275  17.126 -1.8708  0.0320  0.6585
11941TIP3   OH257313   4.807   2.655   4.100  0.1986 -0.1544 -0.0218
11941TIP3    H157314   4.836   2.746   4.104  0.9244 -0.4393  1.2353
11941TIP3    H257315   4.762   2.639   4.183  2.8820 -1.8551  1.1855
11942TIP3   OH257316   1.442   2.278   2.023  0.2464  0.4213  0.2880
11942TIP3    H157317   1.449   2.266   1.928 -0.3681  0.2009  0.2665
11942TIP3    H257318   1.456   2.372   2.036  3.7615 -0.0562  0.3334
11943TIP3   OH257319   0.867   2.550   0.236 -0.1570  0.4584  0.2972
11943TIP3    H157320   0.827   2.546   0.149 -1.2250 -1.6644  0.8635
11943TIP3    H257321   0.797   2.523   0.296  0.7211  1.3891  1.7855
11944TIP3   OH257322   1.736   2.457  13.864  0.3310  0.5518  0.3506
11944TIP3    H157323   1.826   2.473  13.891 -0.5804  1.4158  2.9873
11944TIP3    H257324   1.722   2.364  13.880  0.6140  0.4990  0.3005
11945TIP3   OH257325   0.265   1.679  15.449 -0.4257  0.4196 -0.4465
11945TIP3    H157326   0.297   1.769  15.454 -0.9714  0.6107 -0.4000
11945TIP3    H257327   0.337   1.627  15.484  0.0926  0.7927 -0.9518
11946TIP3   OH257328   2.308   6.692  13.009  0.1167  0.7750  0.0307
11946TIP3    H157329   2.300   6.604  12.973 -1.0131  0.3181  1.3746
11946TIP3    H257330   2.229   6.738  12.980 -0.6391  0.5038  1.6174
11947TIP3   OH257331   1.696   5.265   1.968  0.6448  0.2966 -0.5500
11947TIP3    H157332   1.664   5.281   1.879  0.3457  1.4113 -0.2485
11947TIP3    H257333   1.661   5.337   2.020  1.3020 -0.0259  0.3631
11948TIP3   OH257334   1.131   5.140  16.019  0.4237 -0.2497 -1.0812
11948TIP3    H157335   1.106   5.185  16.099 -0.1542  2.1969 -2.5885
11948TIP3    H257336   1.115   5.204  15.949 -0.1382 -2.6706 -3.2704
11949TIP3   OH257337   0.880   4.386  15.521 -0.0301 -0.0450 -0.4046
11949TIP3    H157338   0.943   4.352  15.584 -0.6166 -1.2005 -0.4207
11949TIP3    H257339   0.897   4.337  15.441 -2.0591 -1.6329  0.0792
11950TIP3   OH257340   5.381   0.370  16.168  0.6312 -0.7764 -0.4092
11950TIP3    H157341   5.400   0.379  16.261  0.5204 -1.0831 -0.3565
11950TIP3    H257342   5.463   0.394  16.125  1.0587 -1.8040 -0.1893
11951TIP3   OH257343   4.303   6.689  14.331 -0.4915  0.6214  0.5887
11951TIP3    H157344   4.338   6.778  14.325 -1.0647  0.7541 -0.9791
11951TIP3    H257345   4.374   6.633  14.299 -0.1488  0.5080  1.5313
11952TIP3   OH257346   4.684   4.168  11.234  0.4055 -0.3080  0.1264
11952TIP3    H157347   4.610   4.108  11.230  0.6887 -0.5889 -1.0247
11952TIP3    H257348   4.666   4.233  11.166  0.5334  0.4146  0.7769
11953TIP3   OH257349   2.037   4.175   3.704  0.0017 -0.2277  0.1142
11953TIP3    H157350   1.985   4.096   3.692 -1.5900  0.6892  0.8757
11953TIP3    H257351   2.014   4.206   3.792  0.5976  1.0764 -0.1771
11954TIP3   OH257352   1.285   2.300   0.127  0.0208 -0.2637  0.2903
11954TIP3    H157353   1.276   2.375   0.185  1.5874  0.2855 -0.1544
11954TIP3    H257354   1.343   2.240   0.174  0.3969 -0.3002 -0.2071
11955TIP3   OH257355   0.317   0.263   6.125 -0.2502  0.3288  0.4529
11955TIP3    H157356   0.387   0.326   6.108  1.4553 -1.2046  1.6620
11955TIP3    H257357   0.240   0.301   6.081  1.0965  2.4691 -0.1476
11956TIP3   OH257358   3.887   2.089   1.538 -0.2159  1.0544 -0.0422
11956TIP3    H157359   3.858   2.104   1.628  0.1301  3.1473 -0.2554
11956TIP3    H257360   3.961   2.149   1.526 -0.3154  0.8642 -1.7514
11957TIP3   OH257361   1.804   4.203  15.594 -0.9275  0.3575 -0.4532
11957TIP3    H157362   1.846   4.161  15.519  0.6807 -0.5697  0.9263
11957TIP3    H257363   1.821   4.296  15.581 -1.0485  0.2454 -1.4677
11958TIP3   OH257364   1.361   1.643   5.738  0.3979 -0.1332  0.2076
11958TIP3    H157365   1.425   1.615   5.803 -0.3585 -0.7588  0.6872
11958TIP3    H257366   1.332   1.563   5.695 -0.2331  0.1129  0.1561
11959TIP3   OH257367   0.445   2.725   0.497 -0.4150 -0.0885  0.1861
11959TIP3    H157368   0.418   2.803   0.449 -2.6101 -1.2013 -0.4340
11959TIP3    H257369   0.516   2.755   0.553  0.1201  1.9075 -1.5091
11960TIP3   OH257370   2.953   3.386   0.421  0.9909  0.4132  0.3764
11960TIP3    H157371   2.890   3.457   0.436 -0.5143 -0.5440 -1.1826
11960TIP3    H257372   3.039   3.426   0.435  0.0697  1.9495  1.7579
11961TIP3   OH257373   2.717   5.935  13.559  0.0996  0.3288 -0.4588
11961TIP3    H157374   2.627   5.968  13.560  0.8189  2.3958 -0.8355
11961TIP3    H257375   2.735   5.908  13.649 -1.1316 -0.8029 -0.5407
11962TIP3   OH257376   2.564   6.501   1.924  0.0405  0.4313 -0.1684
11962TIP3    H157377   2.504   6.523   1.995  0.6419  1.6617 -0.0370
11962TIP3    H257378   2.508   6.498   1.846 -0.2707  1.1320  0.0214
11963TIP3   OH257379   6.078   2.743  13.758  0.0525  0.1863  0.2945
11963TIP3    H157380   6.033   2.800  13.696 -0.4262  0.4286  0.8519
11963TIP3    H257381   6.076   2.792  13.841 -1.4586 -1.1543  1.0764
11964TIP3   OH257382   0.353   4.548  11.986 -0.8709  0.4070 -0.5007
11964TIP3    H157383   0.332   4.512  11.900 -2.0984 -0.3843  0.1026
11964TIP3    H257384   0.274   4.530  12.039 -0.6032  1.9541  0.4486
11965TIP3   OH257385   0.240   5.509  10.582  0.3051 -0.1281 -0.4115
11965TIP3    H157386   0.184   5.583  10.606 -0.0532  0.3068 -2.5383
11965TIP3    H257387   0.321   5.524  10.631  0.4660  2.0046 -1.2546
11966TIP3   OH257388   0.584   5.378  14.728  0.0802 -0.5244 -0.4260
11966TIP3    H157389   0.501   5.391  14.773  0.1905  1.2338 -0.6833
11966TIP3    H257390   0.645   5.354  14.798 -0.6182 -1.7566 -0.2287
11967TIP3   OH257391   4.797   2.945  17.114 -0.0185 -0.2627  0.4261
11967TIP3    H157392   4.845   2.909  17.040  1.6440 -0.1514  1.4208
11967TIP3    H257393   4.706   2.918  17.100  0.8762 -3.3336  0.2391
11968TIP3   OH257394   1.824   6.772   4.343 -0.5003  0.3978 -0.2533
11968TIP3    H157395   1.799   6.860   4.316  0.1979  0.8230  0.4612
11968TIP3    H257396   1.751   6.717   4.316 -0.8378  1.1581 -0.9124
11969TIP3   OH257397   0.959   1.518  15.016 -0.3328  0.3564 -0.1103
11969TIP3    H157398   0.893   1.450  15.002 -0.4574  0.2079  1.2043
11969TIP3    H257399   0.919   1.578  15.078  1.2990 -0.4850  1.8031
11970TIP3   OH257400   3.060   0.462  14.690 -0.1786 -0.3517 -0.1900
11970TIP3    H157401   3.028   0.477  14.779 -1.3671  0.8907 -0.8099
11970TIP3    H257402   3.014   0.384  14.660 -0.1172 -0.5072  0.1223
11971TIP3   OH257403   5.515   3.777  11.558 -0.5860  0.0223  0.3088
11971TIP3    H157404   5.425   3.791  11.588 -0.9629  0.4994 -1.0000
11971TIP3    H257405   5.509   3.781  11.463  0.4228 -2.4712  0.1105
11972TIP3   OH257406   1.114   6.793  13.320 -0.2646  0.7838  0.0346
11972TIP3    H157407   1.130   6.740  13.243 -0.7393  0.9230 -0.1660
11972TIP3    H257408   1.084   6.877  13.285 -4.0525 -0.3239  0.3871
11973TIP3   OH257409   1.786   4.313   5.914  0.9970  0.4775  0.2285
11973TIP3    H157410   1.836   4.320   5.995  1.3732 -0.8050  0.1144
11973TIP3    H257411   1.731   4.235   5.926  1.7023 -0.2392 -1.0951
11974TIP3   OH257412   3.713   5.699   4.407  0.4237 -0.2891  0.3244
11974TIP3    H157413   3.741   5.610   4.428 -0.6499 -0.7143 -0.0418
11974TIP3    H257414   3.719   5.747   4.490 -0.3868 -1.0624  0.8253
11975TIP3   OH257415   3.580   3.439   5.702  0.1696  0.1390  0.0846
11975TIP3    H157416   3.560   3.369   5.764  1.1308  1.3239  1.7947
11975TIP3    H257417   3.668   3.420   5.671  0.1626  0.1998  0.0262
11976TIP3   OH257418   1.847   2.655   4.953 -0.0816  0.4036  0.4806
11976TIP3    H157419   1.807   2.622   5.033  0.3423  1.1818  1.0288
11976TIP3    H257420   1.776   2.701   4.907 -0.4694 -0.5523  0.1125
11977TIP3   OH257421   6.453   5.468  15.750 -0.1452  0.3010 -0.7119
11977TIP3    H157422   6.526   5.446  15.691  0.0489 -2.1480  0.4083
11977TIP3    H257423   6.378   5.422  15.713 -0.2642 -0.3562  0.3337
11978TIP3   OH257424   4.166   2.198   4.539 -0.6179  0.4316 -0.2385
11978TIP3    H157425   4.252   2.235   4.515 -0.1394  0.6255  1.6439
11978TIP3    H257426   4.184   2.146   4.617 -2.0184 -0.5604 -0.5665
11979TIP3   OH257427   1.582   5.276  17.027 -0.0152  0.1606 -0.4191
11979TIP3    H157428   1.506   5.277  16.969  1.7399  1.0112 -2.7964
11979TIP3    H257429   1.586   5.365  17.063 -1.1367 -0.3820  1.1038
11980TIP3   OH257430   2.878   6.803  16.615  0.0209 -0.1790  0.0520
11980TIP3    H157431   2.972   6.817  16.627 -0.0948  0.2286  0.5227
11980TIP3    H257432   2.872   6.734  16.550  0.6458  0.2881 -0.5111
11981TIP3   OH257433   1.658   1.984   1.842 -0.8969 -0.3142  0.1035
11981TIP3    H157434   1.754   1.984   1.842 -0.8946 -0.3669  0.7090
11981TIP3    H257435   1.634   2.008   1.752 -0.3055  2.4410  0.6178
11982TIP3   OH257436   0.361   4.284  13.469 -0.2138  0.4684  0.5099
11982TIP3    H157437   0.312   4.263  13.390  0.4328  1.2211 -0.0898
11982TIP3    H257438   0.353   4.379  13.478  0.3253  0.4763  0.9454
11983TIP3   OH257439   5.909   0.855   3.955  0.4447 -0.2652 -0.7070
11983TIP3    H157440   5.851   0.869   4.029  0.4085 -2.3397 -0.3193
11983TIP3    H257441   5.857   0.879   3.878 -0.2234 -0.1328 -0.2093
11984TIP3   OH257442   2.892   1.676   4.643 -0.2959  0.2654 -0.5651
11984TIP3    H157443   2.918   1.685   4.735 -0.1444 -0.6006 -0.5225
11984TIP3    H257444   2.855   1.761   4.621 -0.0184  0.5936  0.1994
11985TIP3   OH257445   3.610   3.368   4.001 -0.3932  0.4590 -0.2479
11985TIP3    H157446   3.576   3.342   3.916  0.1609  1.3608 -0.7513
11985TIP3    H257447   3.681   3.306   4.019 -1.5433 -0.7220  0.2912
11986TIP3   OH257448   5.572   1.958   1.168 -0.3873 -0.1961 -0.0841
11986TIP3    H157449   5.524   1.900   1.228 -2.8284  2.7738  0.9893
11986TIP3    H257450   5.508   1.978   1.099  0.0951  1.8813  0.0407
11987TIP3   OH257451   6.346   5.875   3.955  0.0599  0.3061  0.1668
11987TIP3    H157452   6.263   5.827   3.955  0.2187  0.0185 -0.6918
11987TIP3    H257453   6.413   5.807   3.956  0.2820  0.5196  0.0119
11988TIP3   OH257454   6.378   6.268  13.704  0.6443  0.4431  0.2926
11988TIP3    H157455   6.387   6.211  13.628 -1.0690  1.0749 -0.4202
11988TIP3    H257456   6.466   6.300  13.721  1.1978 -0.4331 -0.8664
11989TIP3   OH257457   6.223   1.985   5.130 -0.1560  0.0284  0.1286
11989TIP3    H157458   6.311   2.008   5.159  0.3372 -1.2185 -0.3722
11989TIP3    H257459   6.170   1.989   5.210  0.4373  0.3311  0.5113
11990TIP3   OH257460   1.082   2.612  15.246  0.0866 -0.2155  0.2184
11990TIP3    H157461   1.148   2.549  15.217 -1.4490 -1.7393 -0.0647
11990TIP3    H257462   1.095   2.619  15.340  0.3021 -0.9227  0.2464
11991TIP3   OH257463   1.639   4.709   4.599  0.2207 -0.0576 -0.2821
11991TIP3    H157464   1.666   4.780   4.540  0.6404  0.6094  0.6877
11991TIP3    H257465   1.686   4.632   4.568 -0.2309  0.0810 -1.3453
11992TIP3   OH257466   3.287   4.889   1.821  0.6646 -0.0817 -0.1402
11992TIP3    H157467   3.299   4.957   1.887  1.0359  0.8562 -1.1730
11992TIP3    H257468   3.362   4.830   1.832  1.7343  1.1052 -0.9591
11993TIP3   OH257469   3.511   2.080  13.416  0.3204  0.0554 -0.8665
11993TIP3    H157470   3.550   2.079  13.329  0.6872  0.4048 -0.7134
11993TIP3    H257471   3.481   1.990  13.431  1.3410 -0.2925 -0.8747
11994TIP3   OH257472   6.433   2.462   5.059 -0.0403  0.1673  0.2832
11994TIP3    H157473   6.356   2.459   5.002  0.5620  0.7244 -0.5702
11994TIP3    H257474   6.476   2.378   5.045  0.9103  0.8824 -1.2352
11995TIP3   OH257475   6.112   2.187   3.720  0.2742 -0.0500  0.4143
11995TIP3    H157476   6.196   2.233   3.716  0.1589  0.3181  1.8605
11995TIP3    H257477   6.086   2.176   3.629  0.6933  2.0396  0.0202
11996TIP3   OH257478   5.007   3.268  16.562  0.4017 -0.0812 -0.0786
11996TIP3    H157479   4.990   3.176  16.544  0.0050  0.2382 -1.3488
11996TIP3    H257480   5.038   3.269  16.653  1.8927 -1.6434 -0.5462
11997TIP3   OH257481   2.794   0.262  12.713  0.3343 -0.3261  0.3319
11997TIP3    H157482   2.850   0.274  12.790  2.1198 -0.7042 -0.8651
11997TIP3    H257483   2.856   0.248  12.641 -1.3063  0.0339 -1.1708
11998TIP3   OH257484   1.593   4.584   6.106 -0.2693  0.2942  0.5893
11998TIP3    H157485   1.624   4.613   6.020 -1.7218 -0.4028 -0.1870
11998TIP3    H257486   1.653   4.513   6.130  0.2197  0.5734  0.2287
11999TIP3   OH257487   4.988   3.106   4.439 -0.2350 -0.0544 -0.1197
11999TIP3    H157488   4.985   3.048   4.515 -1.4841  0.1613 -0.0004
11999TIP3    H257489   4.908   3.086   4.390 -0.0666  0.7037 -0.7174
12000TIP3   OH257490   0.459   5.141  15.201  0.0098 -0.1847  0.2777
12000TIP3    H157491   0.455   5.097  15.116 -1.7833  0.7976 -0.1642
12000TIP3    H257492   0.429   5.074  15.263  0.8509 -0.7485  0.0852
12001TIP3   OH257493   1.433   2.752   6.179 -0.8139 -0.6901  0.4178
12001TIP3    H157494   1.351   2.728   6.222 -0.5780  1.4798  2.1475
12001TIP3    H257495   1.501   2.709   6.230 -0.7392 -0.7590  0.2598
12002TIP3   OH257496   0.502   5.428   5.145 -0.3328  0.0584  0.0096
12002TIP3    H157497   0.532   5.361   5.084  1.1296  0.7656 -0.0566
12002TIP3    H257498   0.566   5.427   5.216 -2.2346 -1.0559  1.7788
12003TIP3   OH257499   4.609   1.193   1.395 -0.3472 -0.2488 -0.3144
12003TIP3    H157500   4.643   1.282   1.387  0.5334 -0.5646 -0.1652
12003TIP3    H257501   4.636   1.165   1.482 -0.8072 -0.5827 -0.2818
12004TIP3   OH257502   3.000   2.109  12.429 -0.3623  0.1103  0.0296
12004TIP3    H157503   2.940   2.037  12.409 -0.5971  0.1413  0.5902
12004TIP3    H257504   3.045   2.081  12.508 -1.1742  0.9975  0.8316
12005TIP3   OH257505   5.628   0.275  13.884  0.2271  0.2584  0.1910
12005TIP3    H157506   5.566   0.224  13.935 -1.8555  2.9459  0.5218
12005TIP3    H257507   5.687   0.211  13.845 -1.0915 -2.1785  2.0908
12006TIP3   OH257508   4.532   4.030  12.503  0.5371  0.4100  0.0465
12006TIP3    H157509   4.605   4.040  12.565  1.0415 -0.8387 -0.3323
12006TIP3    H257510   4.504   3.939  12.513 -0.3460  0.6132 -0.5106
12007TIP3   OH257511   5.989   3.453   2.200 -0.3318 -0.3068  0.6436
12007TIP3    H157512   6.012   3.360   2.194 -1.5779 -0.5261 -1.2752
12007TIP3    H257513   5.893   3.454   2.203 -0.4429  1.0003 -1.9539
12008TIP3   OH257514   2.703   4.790  12.086 -0.1896  0.0694 -0.6294
12008TIP3    H157515   2.637   4.775  12.018 -2.8034  1.4601  1.4910
12008TIP3    H257516   2.736   4.702  12.107 -1.3412 -0.6505 -1.7539
12009TIP3   OH257517   6.366   0.894  13.757  0.3210 -0.0767 -0.1050
12009TIP3    H157518   6.328   0.977  13.729  0.6653  0.4780  1.0500
12009TIP3    H257519   6.363   0.838  13.678 -0.9376  0.6440 -0.5763
12010TIP3   OH257520   0.878   1.166   5.280  0.4554  0.2580  0.5931
12010TIP3    H157521   0.795   1.213   5.280  0.1998 -0.1811  1.6416
12010TIP3    H257522   0.928   1.203   5.353  0.8639 -0.0270  0.4637
12011TIP3   OH257523   6.643   3.216  13.141 -0.9451 -0.4102 -0.1970
12011TIP3    H157524   6.668   3.250  13.227 -0.5090  2.7392 -1.4955
12011TIP3    H257525   6.561   3.168  13.158 -0.5794 -0.3113  2.0488
12012TIP3   OH257526   2.023   6.288  14.568 -0.0854  0.3523 -0.2662
12012TIP3    H157527   2.100   6.320  14.522 -0.5242  3.8251  1.2334
12012TIP3    H257528   2.057   6.237  14.641  0.6886 -0.6386 -1.3022
12013TIP3   OH257529   1.084   4.877  12.194 -0.1731 -0.0945  0.2223
12013TIP3    H157530   1.153   4.928  12.237  1.1288 -0.1136 -1.7661
12013TIP3    H257531   1.085   4.908  12.103 -2.4803 -0.4422  0.0569
12014TIP3   OH257532   4.616   3.811  11.848  0.8678  0.4082 -0.3657
12014TIP3    H157533   4.702   3.769  11.848  0.9200  0.5121  0.0369
12014TIP3    H257534   4.557   3.746  11.887  0.6077  0.0267 -1.3851
12015TIP3   OH257535   3.065   1.196  11.354  0.2490 -0.5370 -0.0978
12015TIP3    H157536   3.060   1.287  11.323 -0.2317 -0.6337 -0.2965
12015TIP3    H257537   3.036   1.143  11.280  0.5290 -0.8564  0.0180
12016TIP3   OH257538   2.339   4.617  12.604 -0.1090 -0.2846  0.5062
12016TIP3    H157539   2.317   4.594  12.514  2.1186 -1.8023  0.2910
12016TIP3    H257540   2.267   4.673  12.633 -1.1109 -0.1689 -2.0380
12017TIP3   OH257541   1.724   3.431   2.820 -0.2042  0.1042  0.1437
12017TIP3    H157542   1.682   3.363   2.768  2.1127 -0.5337 -0.9729
12017TIP3    H257543   1.816   3.406   2.822  0.3339  2.0766  1.5284
12018TIP3   OH257544   3.115   6.092   3.318  0.9160  0.5056  0.0905
12018TIP3    H157545   3.074   6.099   3.405  0.2207 -1.6749 -0.0197
12018TIP3    H257546   3.057   6.142   3.261  0.3147  0.3687  0.5641
12019TIP3   OH257547   0.051   6.070   3.847  0.9005  0.2229  0.3889
12019TIP3    H157548  -0.036   6.031   3.857 -0.4124  2.3714 -2.1878
12019TIP3    H257549   0.110   5.995   3.841 -1.1213 -1.3286 -0.6742
12020TIP3   OH257550   3.111   0.662   3.387 -0.6151  0.3243  0.1094
12020TIP3    H157551   3.087   0.574   3.359 -0.7147  0.3487  0.1170
12020TIP3    H257552   3.029   0.699   3.421 -0.3964  0.1450  0.8232
12021TIP3   OH257553   4.699   1.367   5.015  0.0021 -0.2051  0.2628
12021TIP3    H157554   4.734   1.335   5.098 -0.6761 -1.6343  0.0208
12021TIP3    H257555   4.639   1.297   4.986 -1.5560  1.3129 -0.2647
12022TIP3   OH257556   5.532   2.771   0.245 -0.7673 -0.1861 -0.0915
12022TIP3    H157557   5.525   2.807   0.333 -0.7531 -2.5693  0.9224
12022TIP3    H257558   5.450   2.794   0.203 -0.4953  1.5682  0.2843
12023TIP3   OH257559   0.564   2.744   0.207  0.0168  0.2660 -0.2520
12023TIP3    H157560   0.472   2.769   0.215  0.5132  1.7940  1.0161
12023TIP3    H257561   0.612   2.825   0.223  1.5769 -0.4110 -1.4249
12024TIP3   OH257562   2.564   1.661  16.728 -0.1484  0.6970 -0.2472
12024TIP3    H157563   2.648   1.705  16.718 -0.7606  2.0351  0.2862
12024TIP3    H257564   2.528   1.657  16.639  0.0777  0.9596 -0.3489
12025TIP3   OH257565   4.015   5.561  11.187 -0.1962  0.2116 -0.1595
12025TIP3    H157566   4.020   5.517  11.271 -2.8099 -0.0107 -0.0694
12025TIP3    H257567   4.003   5.654  11.209 -1.5998  0.0641 -0.2528
12026TIP3   OH257568   0.325   2.399   1.983 -0.5494 -0.3263  0.0594
12026TIP3    H157569   0.329   2.348   1.903  1.9186 -0.4666  0.2531
12026TIP3    H257570   0.413   2.433   1.996 -0.9273 -0.1448  2.6173
12027TIP3   OH257571   0.886   1.036   2.488  0.2004  0.0740 -0.4061
12027TIP3    H157572   0.881   0.965   2.553 -0.2526 -0.5002 -1.0650
12027TIP3    H257573   0.922   0.994   2.410  1.7114  0.9872 -0.2295
12028TIP3   OH257574   3.230   2.033  11.788  0.5200 -0.1554  0.5675
12028TIP3    H157575   3.140   2.020  11.820  0.4914 -0.8117  0.2119
12028TIP3    H257576   3.240   2.129  11.786 -0.7858 -0.0377 -1.1231
12029TIP3   OH257577   5.284   6.410  15.260  0.9833  0.3901  0.5950
12029TIP3    H157578   5.379   6.418  15.266  1.0072 -0.9236  2.3356
12029TIP3    H257579   5.252   6.444  15.344  0.1557 -2.5561  1.5155
12030TIP3   OH257580   5.558   3.993  13.470 -0.0110  0.2219 -0.1493
12030TIP3    H157581   5.539   3.937  13.545  2.3098 -0.5669 -0.1440
12030TIP3    H257582   5.476   3.995  13.421 -1.4872  0.5198  2.2369
12031TIP3   OH257583   2.312   5.364   5.163 -0.2431  0.3001  0.0503
12031TIP3    H157584   2.354   5.291   5.209 -1.5138  0.9040  2.2828
12031TIP3    H257585   2.222   5.334   5.150 -0.6466  1.2583  0.5533
12032TIP3   OH257586   3.100   5.698   1.460 -0.1721  0.4654 -0.4819
12032TIP3    H157587   3.009   5.686   1.487 -0.3344  0.8972 -0.8467
12032TIP3    H257588   3.148   5.704   1.542 -0.7533  2.4899 -0.2574
12033TIP3   OH257589   5.524   0.090  12.057 -0.1590  0.2262 -0.2818
12033TIP3    H157590   5.580   0.041  12.117  0.4176  0.6684 -0.4529
12033TIP3    H257591   5.439   0.094  12.100 -0.3581 -1.3965 -0.5134
12034TIP3   OH257592   3.296   3.409   5.910 -0.6720 -0.0014 -0.5121
12034TIP3    H157593   3.224   3.437   5.853 -1.1044 -0.7167 -0.3183
12034TIP3    H257594   3.349   3.352   5.856  0.2655  1.2391 -0.9343
12035TIP3   OH257595   5.693   4.855  16.507  0.5006 -0.1515  0.0131
12035TIP3    H157596   5.771   4.890  16.550  0.5232  0.4593 -0.5083
12035TIP3    H257597   5.728   4.808  16.430  0.3271  0.5520 -0.5014
12036TIP3   OH257598   1.859   6.378  15.586 -0.0903  0.1272 -0.1143
12036TIP3    H157599   1.808   6.456  15.607 -1.5857 -1.0448  0.7049
12036TIP3    H257600   1.934   6.411  15.536 -1.4637  1.9223 -1.0450
12037TIP3   OH257601   5.323   4.168   5.866  0.3475  0.3357  0.3804
12037TIP3    H157602   5.311   4.160   5.772  0.5177  0.4052  0.3510
12037TIP3    H257603   5.238   4.196   5.900  0.2020  0.0068  0.2868
12038TIP3   OH257604   3.693   2.208   3.842 -0.5425 -0.5663  0.5972
12038TIP3    H157605   3.644   2.193   3.761 -0.2326  1.4522 -0.0077
12038TIP3    H257606   3.760   2.272   3.817  0.2501 -0.7570  2.2052
12039TIP3   OH257607   5.129   0.279   3.416 -0.7894  0.2828  0.1036
12039TIP3    H157608   5.132   0.185   3.399  1.3006  0.6507 -1.8141
12039TIP3    H257609   5.061   0.312   3.356 -1.5881 -0.0088  0.8432
12040TIP3   OH257610   6.704   1.077   2.154 -0.4612 -0.2369 -0.3585
12040TIP3    H157611   6.619   1.074   2.198 -0.5106  0.8987 -0.3562
12040TIP3    H257612   6.684   1.104   2.064 -0.1036  0.0323 -0.3598
12041TIP3   OH257613   3.172   4.376  12.049 -0.1267  0.0559 -0.2277
12041TIP3    H157614   3.109   4.339  11.987 -0.1386 -0.8357  0.3090
12041TIP3    H257615   3.125   4.449  12.090 -0.5090 -0.0611 -0.4522
12042TIP3   OH257616   4.376   4.765  16.181 -0.3906  0.0453  0.1421
12042TIP3    H157617   4.291   4.804  16.203 -0.6243 -0.5324  0.2568
12042TIP3    H257618   4.432   4.841  16.164 -1.5612  0.4206 -2.3464
12043TIP3   OH257619   3.780   6.101   0.226 -0.0277 -0.1142 -0.1503
12043TIP3    H157620   3.774   6.124   0.319  0.4812  2.2272 -0.6687
12043TIP3    H257621   3.696   6.127   0.189 -1.1073 -3.1269  0.0450
12044TIP3   OH257622   1.410   2.085  17.025  0.1081 -0.2535 -0.2790
12044TIP3    H157623   1.490   2.056  17.069  0.7820  0.7572 -0.8329
12044TIP3    H257624   1.413   2.042  16.939  1.3399  1.7578 -1.2823
12045TIP3   OH257625   4.769   6.698   5.470 -0.0293 -0.2793 -0.6505
12045TIP3    H157626   4.730   6.628   5.522  1.8072 -0.6651  0.2421
12045TIP3    H257627   4.722   6.695   5.387 -1.8238 -0.7760  0.3668
12046TIP3   OH257628   0.845   3.746   4.983 -0.2819 -0.1106  0.4101
12046TIP3    H157629   0.831   3.751   5.077 -0.3135 -0.1467  0.4075
12046TIP3    H257630   0.926   3.696   4.973  0.1499  0.5841  0.4438
12047TIP3   OH257631   3.892   5.906   2.830  0.4512 -0.0058 -0.0701
12047TIP3    H157632   3.824   5.943   2.886  0.0132 -1.3222  0.2620
12047TIP3    H257633   3.968   5.895   2.888  1.1006  1.8115 -0.5217
12048TIP3   OH257634   1.944   3.554   4.304 -0.0718  0.3095  0.2960
12048TIP3    H157635   1.875   3.487   4.307  0.9318 -0.7243  0.2557
12048TIP3    H257636   1.996   3.539   4.382  1.2597 -0.1479 -0.6653
12049TIP3   OH257637   2.321   5.354   3.219  0.2667  0.2859 -0.6760
12049TIP3    H157638   2.328   5.447   3.198 -1.4050  1.0866  2.0707
12049TIP3    H257639   2.249   5.322   3.163  0.5349  0.7384 -1.2836
12050TIP3   OH257640   5.509   2.149  14.562  0.5829  0.3077 -0.7919
12050TIP3    H157641   5.549   2.168  14.647  1.0660 -1.7447 -0.5353
12050TIP3    H257642   5.572   2.180  14.498  0.1670  1.9693 -0.4278
12051TIP3   OH257643   1.353   4.860  11.360 -0.2558 -0.2066 -0.2544
12051TIP3    H157644   1.269   4.903  11.347 -0.6660 -0.7931  0.4342
12051TIP3    H257645   1.342   4.772  11.323  0.7794  0.4530 -2.2470
12052TIP3   OH257646   2.564   1.633   0.607  0.4229 -0.0663  0.4484
12052TIP3    H157647   2.493   1.659   0.547  0.5739  1.6060  0.9819
12052TIP3    H257648   2.644   1.648   0.557  0.5175  0.6270  0.8121
12053TIP3   OH257649   5.978   3.616   1.970  0.0447  0.7984  0.1891
12053TIP3    H157650   5.917   3.687   1.988  0.7213  1.4540 -0.0709
12053TIP3    H257651   5.990   3.572   2.054  0.5724  1.7570  0.6286
12054TIP3   OH257652   6.517   3.554   3.368  0.0146  0.3755  0.0633
12054TIP3    H157653   6.541   3.588   3.281  1.3928 -0.9721 -0.1229
12054TIP3    H257654   6.551   3.618   3.429  1.6991 -0.1352 -0.3123
12055TIP3   OH257655   2.895   1.371  14.634  0.0842 -0.3185  0.5055
12055TIP3    H157656   2.895   1.328  14.719 -1.4165 -0.7496  0.2924
12055TIP3    H257657   2.803   1.386  14.614  0.5552  2.4981  0.3139
12056TIP3   OH257658   2.290   6.455  14.857  0.0501 -0.6212 -0.3234
12056TIP3    H157659   2.374   6.498  14.838 -0.3819 -0.1411 -1.2098
12056TIP3    H257660   2.297   6.370  14.814  0.4464 -0.9626  0.4116
12057TIP3   OH257661   6.773   2.621   3.777  0.0085  0.1665  0.2499
12057TIP3    H157662   6.785   2.577   3.861  1.4784  0.0404 -0.0118
12057TIP3    H257663   6.760   2.713   3.801  1.5713  0.3212  0.5785
12058TIP3   OH257664   0.061   1.869  14.235  0.5768  0.1200  0.6327
12058TIP3    H157665   0.100   1.939  14.287 -1.5887  0.5204  1.7857
12058TIP3    H257666  -0.007   1.912  14.184  0.5514 -0.8202 -0.1309
12059TIP3   OH257667   2.284   5.479  13.908  0.0386 -0.2432  0.1219
12059TIP3    H157668   2.266   5.388  13.882 -0.0660 -0.1545 -0.1177
12059TIP3    H257669   2.379   5.486  13.905  0.2191 -1.0664  2.5754
12060TIP3   OH257670   3.089   1.628  14.341  0.0572  0.0716  0.3517
12060TIP3    H157671   3.094   1.673  14.425 -2.4470  1.7821 -0.3392
12060TIP3    H257672   3.097   1.535  14.363  0.2375  0.5457  2.3899
12061TIP3   OH257673   3.943   2.831   5.094  0.0331 -0.2421  0.3011
12061TIP3    H157674   3.947   2.862   5.004 -1.3453 -2.0137 -0.3983
12061TIP3    H257675   3.892   2.750   5.089 -0.6437  0.0052  2.7718
12062TIP3   OH257676   0.136   6.268   2.814 -0.6267  0.6652 -0.2516
12062TIP3    H157677   0.052   6.235   2.846 -0.8866  1.4755 -0.0999
12062TIP3    H257678   0.132   6.362   2.828 -0.2499  0.8868 -1.5105
12063TIP3   OH257679   2.530   1.163   5.179 -0.3494  0.0256  0.1249
12063TIP3    H157680   2.436   1.153   5.167 -0.3456  0.2993 -0.1461
12063TIP3    H257681   2.544   1.258   5.177 -0.4739  0.1725  3.2857
12064TIP3   OH257682   2.178   2.085  11.609  0.6624  0.0846  0.2286
12064TIP3    H157683   2.189   2.015  11.544 -0.3442 -0.0423  0.1970
12064TIP3    H257684   2.091   2.071  11.646  1.0208  0.4736  1.2373
12065TIP3   OH257685   2.661   4.666  12.473  0.7227  0.5526 -0.1459
12065TIP3    H157686   2.618   4.582  12.491 -2.2282  2.4173  1.8330
12065TIP3    H257687   2.737   4.666  12.531  0.1387 -0.2979  0.6289
12066TIP3   OH257688   6.766   6.530  12.719  0.6069 -0.9425  0.4889
12066TIP3    H157689   6.765   6.514  12.813  0.8968  0.1683  0.6879
12066TIP3    H257690   6.855   6.562  12.701  0.8626 -2.0691 -0.3243
12067TIP3   OH257691   5.523   4.747   2.295 -0.2309  0.2428 -0.5821
12067TIP3    H157692   5.518   4.842   2.288  2.0005  0.3467 -1.2253
12067TIP3    H257693   5.560   4.719   2.211  0.7568 -1.0304  0.2588
12068TIP3   OH257694   0.178   4.625   2.098 -0.7002 -0.1744  0.1820
12068TIP3    H157695   0.198   4.600   2.008 -0.4294  1.5855 -0.2631
12068TIP3    H257696   0.153   4.543   2.141  4.3532 -2.0263 -0.0563
12069TIP3   OH257697   1.364   1.530  15.327  0.8810 -0.4524 -0.2363
12069TIP3    H157698   1.298   1.466  15.356  3.1652 -2.8298 -0.0970
12069TIP3    H257699   1.322   1.575  15.254 -1.4439 -0.8834  0.7770
12070TIP3   OH257700   0.312   6.417   2.146 -0.3577 -0.2011  0.1572
12070TIP3    H157701   0.314   6.481   2.217 -1.1691 -1.7909  1.6332
12070TIP3    H257702   0.277   6.337   2.185 -1.7491 -0.8322 -2.2590
12071TIP3   OH257703   4.799   3.233  11.374 -0.2776  0.1840 -0.1388
12071TIP3    H157704   4.850   3.209  11.297 -0.2567 -0.2908  0.0264
12071TIP3    H257705   4.709   3.207  11.353 -0.2470 -0.0776  0.0577
12072TIP3   OH257706   3.725   3.811  15.894 -0.7986  0.3919  0.0633
12072TIP3    H157707   3.654   3.856  15.941  1.1216  1.1092  2.3561
12072TIP3    H257708   3.715   3.839  15.803 -3.6437  0.2103  0.2845
12073TIP3   OH257709   4.396   3.294   3.737  1.0244 -0.1108 -0.0257
12073TIP3    H157710   4.472   3.344   3.764  1.2303  0.3515 -1.4162
12073TIP3    H257711   4.327   3.319   3.799  1.8623 -0.1599  0.9246
12074TIP3   OH257712   5.332   1.712  12.268  0.1488  0.2607  0.0505
12074TIP3    H157713   5.307   1.778  12.204 -0.8603  0.2466  0.4188
12074TIP3    H257714   5.414   1.744  12.305  0.5386  0.4585 -0.9673
12075TIP3   OH257715   2.940   5.497  15.692 -0.2759 -0.3585  0.2138
12075TIP3    H157716   2.898   5.580  15.671 -1.5041 -0.9423  0.3420
12075TIP3    H257717   2.963   5.504  15.785  0.2292  0.0900  0.0576
12076TIP3   OH257718   6.062   3.521  15.134  0.3918 -0.1338 -0.3911
12076TIP3    H157719   6.027   3.433  15.124  2.1879 -0.9615  0.3388
12076TIP3    H257720   6.066   3.535  15.228  0.7586  0.4612 -0.4904
12077TIP3   OH257721   2.391   6.334   6.072  0.8536 -0.4108 -0.0584
12077TIP3    H157722   2.338   6.255   6.065  1.5590 -0.8057 -1.1601
12077TIP3    H257723   2.451   6.328   5.997  0.5450  1.4390 -0.4679
12078TIP3   OH257724   6.317   6.083   3.768  0.4300 -0.1775 -0.1032
12078TIP3    H157725   6.332   6.062   3.860  0.6089  1.3271  0.2104
12078TIP3    H257726   6.367   6.016   3.720  0.6491 -0.7267  0.8825
12079TIP3   OH257727   2.898   5.222  13.101  0.3769  0.3976 -0.2039
12079TIP3    H157728   2.803   5.226  13.105  0.4029  1.5506 -0.6410
12079TIP3    H257729   2.917   5.132  13.072 -0.6397  0.7137 -1.9533
12080TIP3   OH257730   5.130   1.623   5.234  0.1527  0.2053 -0.0335
12080TIP3    H157731   5.034   1.621   5.234  0.1737 -0.8773  0.2638
12080TIP3    H257732   5.154   1.618   5.327  0.4522  3.3556  0.1074
12081TIP3   OH257733   2.744   5.245  16.793 -0.3141  0.0273  0.0780
12081TIP3    H157734   2.663   5.295  16.784 -1.1652 -0.9664  1.8609
12081TIP3    H257735   2.808   5.308  16.827 -1.1360  0.1358  1.4559
12082TIP3   OH257736   2.173   0.645  13.448 -0.4554 -0.0990 -0.7194
12082TIP3    H157737   2.225   0.715  13.486 -0.2308 -0.1964 -0.8412
12082TIP3    H257738   2.094   0.641  13.501 -0.5359  0.3484 -0.8107
12083TIP3   OH257739   6.791   0.059   0.346  0.3519 -0.2130  0.3866
12083TIP3    H157740   6.747   0.144   0.357 -0.3524 -0.4598 -0.4961
12083TIP3    H257741   6.861   0.077   0.283  1.5585  0.1836  1.8031
12084TIP3   OH257742   5.243   4.142  15.374  0.8590 -0.3217 -0.4982
12084TIP3    H157743   5.311   4.082  15.406  1.2988  0.1042 -0.6227
12084TIP3    H257744   5.184   4.153  15.449  0.9425 -0.6676 -0.3807
12085TIP3   OH257745   1.981   6.254  13.767  0.4276 -0.0855 -0.1335
12085TIP3    H157746   1.959   6.303  13.847 -0.5363  1.7220 -1.4692
12085TIP3    H257747   1.918   6.284  13.702 -0.1574 -3.1309 -1.0402
12086TIP3   OH257748   5.611   0.760   5.290  0.5765 -0.3446 -0.0764
12086TIP3    H157749   5.684   0.699   5.276  0.7437 -0.1287 -0.1416
12086TIP3    H257750   5.560   0.756   5.210  0.8682 -0.0166 -0.2824
12087TIP3   OH257751   5.270   4.162   6.675 -0.1412  0.1026 -1.2807
12087TIP3    H157752   5.332   4.204   6.615  1.2191  2.0256  1.3452
12087TIP3    H257753   5.236   4.234   6.728 -2.7285 -1.2988 -0.9747
12088TIP3   OH257754   0.457   6.314  15.501  0.4167  0.3962  0.1634
12088TIP3    H157755   0.511   6.394  15.493  3.1254 -1.3564  0.2059
12088TIP3    H257756   0.436   6.291  15.411  0.4331  0.6472  0.0939
12089TIP3   OH257757   0.744   3.330   1.220 -0.2589 -0.2059 -0.4899
12089TIP3    H157758   0.761   3.385   1.143 -1.1597  1.1251  0.2417
12089TIP3    H257759   0.671   3.373   1.264 -1.3363 -2.3190 -0.1808
12090TIP3   OH257760   0.100   3.628   5.291 -0.7846 -0.0880 -0.1280
12090TIP3    H157761   0.105   3.637   5.196 -1.1736  0.8472 -0.0579
12090TIP3    H257762   0.110   3.534   5.306 -1.6679 -0.3560 -1.1552
12091TIP3   OH257763   5.339   6.252   2.740 -0.2693 -0.5498  0.3686
12091TIP3    H157764   5.396   6.325   2.765  0.1172 -0.9156  0.5573
12091TIP3    H257765   5.305   6.276   2.654 -0.2044 -0.1097  0.4674
12092TIP3   OH257766   4.936   2.549   1.559 -0.3449  0.1020  0.1885
12092TIP3    H157767   4.883   2.589   1.627 -0.1541 -1.0228  1.0126
12092TIP3    H257768   5.025   2.578   1.578 -0.7286  2.7346 -1.7281
12093TIP3   OH257769   4.159   6.372   0.598 -0.7754 -0.1051 -0.0723
12093TIP3    H157770   4.140   6.279   0.588  0.5302 -0.1413 -2.7802
12093TIP3    H257771   4.108   6.399   0.674 -0.1441 -3.3167  1.5749
12094TIP3   OH257772   5.785   1.118   4.652  0.4364 -0.4733  0.2543
12094TIP3    H157773   5.857   1.150   4.707 -0.8798  0.7933  1.3058
12094TIP3    H257774   5.748   1.045   4.701 -0.7627  0.6808  1.1085
12095TIP3   OH257775   2.342   0.132  15.681  0.1464 -0.0030 -0.1855
12095TIP3    H157776   2.410   0.147  15.615  1.0237 -3.8629 -0.2776
12095TIP3    H257777   2.262   0.121  15.630  0.0559  1.1955 -0.3087
12096TIP3   OH257778   3.628   2.641  11.515  0.0465 -0.2679  0.3922
12096TIP3    H157779   3.617   2.558  11.469  0.8528 -0.5415  0.6832
12096TIP3    H257780   3.660   2.617  11.601  0.6524  0.3655  0.3506
12097TIP3   OH257781   4.138   5.764  16.058 -0.4704 -0.1976 -0.0302
12097TIP3    H157782   4.179   5.828  16.116 -0.8270  1.2409 -1.3567
12097TIP3    H257783   4.068   5.726  16.110 -0.0810  0.2845  0.8528
12098TIP3   OH257784   0.136   4.674   1.151 -0.4784  0.2678 -0.3777
12098TIP3    H157785   0.177   4.752   1.114  0.2189  0.8893  1.6082
12098TIP3    H257786   0.052   4.705   1.186 -2.1512 -0.7475 -3.2933
12099TIP3   OH257787   0.666   4.877  10.891 -0.1699  0.1541 -0.0853
12099TIP3    H157788   0.605   4.807  10.914  1.2911 -0.5714  1.6588
12099TIP3    H257789   0.639   4.951  10.944  0.4644 -0.1703  0.6953
12100TIP3   OH257790   5.062   0.626   2.778  0.1872  0.8148 -0.1142
12100TIP3    H157791   4.968   0.624   2.795  0.2548  0.3730  0.2120
12100TIP3    H257792   5.074   0.697   2.715 -0.0002  3.0505  2.2507
12101TIP3   OH257793   2.504   2.678   5.106 -0.1644  0.2906  0.0541
12101TIP3    H157794   2.478   2.695   5.015 -3.1285 -3.9592 -0.0593
12101TIP3    H257795   2.443   2.729   5.159 -1.6130 -1.0224 -0.3295
12102TIP3   OH257796   3.613   4.068  10.933 -0.1301  0.2695 -0.1498
12102TIP3    H157797   3.597   4.146  10.987 -0.0715  0.3855 -0.2997
12102TIP3    H257798   3.682   4.095  10.872 -0.9979  0.4955 -1.0375
12103TIP3   OH257799   3.764   2.467   1.300  0.7175  0.2037 -0.2297
12103TIP3    H157800   3.708   2.403   1.256 -0.8713  0.9418  0.6813
12103TIP3    H257801   3.753   2.547   1.249 -0.0659  0.6986  0.7225
12104TIP3   OH257802   5.806   6.369   2.480  0.4173  0.2394  0.1834
12104TIP3    H157803   5.827   6.321   2.560  1.0495 -0.1278 -0.1972
12104TIP3    H257804   5.753   6.308   2.428  0.2368  0.3783  0.2035
12105TIP3   OH257805   3.519   1.221   6.455  0.2257  0.0543  0.3733
12105TIP3    H157806   3.587   1.250   6.394  0.1102  1.6155  0.9565
12105TIP3    H257807   3.439   1.263   6.424 -0.3493 -1.2150  0.1029
12106TIP3   OH257808   3.896   6.578   1.406 -0.7408  0.1123 -0.2214
12106TIP3    H157809   3.862   6.551   1.491 -1.2441 -1.2111 -0.8310
12106TIP3    H257810   3.841   6.532   1.342  1.1781 -0.8040 -1.2321
12107TIP3   OH257811   0.638   1.340   0.030  0.3779  0.1188 -0.2693
12107TIP3    H157812   0.612   1.371   0.116 -0.8468 -2.0192  0.1924
12107TIP3    H257813   0.571   1.274   0.008  1.1161  0.0777 -2.4897
12108TIP3   OH257814   2.356   0.573  12.142 -0.3640  0.4930  0.4128
12108TIP3    H157815   2.341   0.663  12.113 -0.5215 -0.2358 -1.8789
12108TIP3    H257816   2.302   0.520  12.084 -0.1199 -1.1030  1.6223
12109TIP3   OH257817   0.592   1.283   2.656  0.0264 -0.2179  0.0776
12109TIP3    H157818   0.598   1.302   2.562 -0.3555  0.3349  0.1613
12109TIP3    H257819   0.683   1.270   2.684 -0.0250 -2.6500 -0.8205
12110TIP3   OH257820   2.235   1.179   1.950  0.3594 -0.1670  0.1362
12110TIP3    H157821   2.237   1.092   1.988  0.6057 -0.5409 -0.7151
12110TIP3    H257822   2.211   1.164   1.858 -0.5586  0.7378  0.2270
12111TIP3   OH257823   3.871   4.846   2.758  0.3739  0.4436  0.0089
12111TIP3    H157824   3.884   4.847   2.853  0.3813  0.5883  0.0065
12111TIP3    H257825   3.785   4.886   2.746  0.0456 -0.2429  0.0054
12112TIP3   OH257826   3.551   6.663   1.155  0.6146 -0.3678  0.1920
12112TIP3    H157827   3.605   6.693   1.082  2.3708 -3.1886  0.2771
12112TIP3    H257828   3.528   6.573   1.133  0.3689 -0.9499  2.6451
12113TIP3   OH257829   2.112   4.952   0.362  0.3246 -0.2127  0.3537
12113TIP3    H157830   2.140   5.011   0.292  0.9231 -1.2699 -0.3162
12113TIP3    H257831   2.194   4.924   0.403  0.1312 -1.5067 -0.1139
12114TIP3   OH257832   6.511   0.324   4.172 -0.1017  0.1303 -0.2932
12114TIP3    H157833   6.585   0.312   4.233 -1.3476  0.0925  1.2423
12114TIP3    H257834   6.506   0.242   4.123  1.7254  0.6401 -1.3851
12115TIP3   OH257835   5.132   3.022  13.116  0.8205  0.1071 -0.3092
12115TIP3    H157836   5.080   3.074  13.055  0.3938  0.4496  0.3347
12115TIP3    H257837   5.210   3.077  13.133  0.2249  0.6911  0.6063
12116TIP3   OH257838   3.400   3.925  10.873  0.7241  0.0697 -0.0952
12116TIP3    H157839   3.383   3.921  10.779  1.2276  0.2326 -0.1931
12116TIP3    H257840   3.484   3.969  10.881  0.7613 -0.0862  0.4249
12117TIP3   OH257841   2.459   2.445  17.225 -0.4801 -0.2778  0.1103
12117TIP3    H157842   2.420   2.387  17.159  1.4659 -1.0792 -0.3691
12117TIP3    H257843   2.471   2.390  17.302  0.7421 -0.3292 -0.1156
12118TIP3   OH257844   2.845   2.917  15.434  0.3473  0.3729  0.3694
12118TIP3    H157845   2.863   2.948  15.523  2.1752 -0.0621  0.1760
12118TIP3    H257846   2.803   2.833  15.446  0.8577  0.1772  0.8372
12119TIP3   OH257847   6.464   3.855  13.365 -0.1706  0.3392  0.2411
12119TIP3    H157848   6.498   3.869  13.453  0.1904  3.1396 -0.2814
12119TIP3    H257849   6.526   3.794  13.324  0.5455  0.2781  1.3991
12120TIP3   OH257850   2.439   3.659   0.570 -0.2795 -0.2538 -0.6650
12120TIP3    H157851   2.376   3.679   0.639  0.5042  1.5426 -0.4444
12120TIP3    H257852   2.397   3.590   0.518 -2.0612  0.3311 -0.0261
12121TIP3   OH257853   6.674   1.986  14.133 -0.1532 -0.2557  0.1338
12121TIP3    H157854   6.641   2.000  14.222  1.1929  0.5082  0.5250
12121TIP3    H257855   6.638   2.060  14.082  0.6386  0.3699  0.4761
12122TIP3   OH257856   3.368   0.163  11.539 -0.1775 -0.0542 -0.0204
12122TIP3    H157857   3.443   0.198  11.491  0.3567 -0.6073  0.4055
12122TIP3    H257858   3.318   0.115  11.473  0.0959 -0.0862 -0.2057
12123TIP3   OH257859   3.138   2.796  13.513  0.1158 -0.3472  0.1062
12123TIP3    H157860   3.072   2.746  13.561  0.8758 -0.5794  0.9127
12123TIP3    H257861   3.159   2.740  13.437 -0.5960 -0.2746 -0.1556
12124TIP3   OH257862   3.087   5.508   1.056 -0.3080  0.0730 -0.2153
12124TIP3    H157863   3.011   5.565   1.058 -0.6785 -0.4302  1.4565
12124TIP3    H257864   3.078   5.457   0.976 -2.8072 -1.3677  0.9035
12125TIP3   OH257865   2.140   0.376   1.493 -0.2052  0.7375 -0.1980
12125TIP3    H157866   2.069   0.311   1.488  0.7205 -0.1736 -1.6398
12125TIP3    H257867   2.101   0.449   1.542 -2.1204  0.2269 -0.9024
12126TIP3   OH257868   0.515   6.353  11.441  0.0345 -0.8419 -0.1245
12126TIP3    H157869   0.610   6.354  11.455 -0.1071  2.3381  1.0681
12126TIP3    H257870   0.503   6.388  11.353 -0.1144  0.7742  0.5306
12127TIP3   OH257871   5.970   3.591   1.118  0.0465 -0.8411 -0.6160
12127TIP3    H157872   6.024   3.609   1.042  1.1594  0.6913  0.4991
12127TIP3    H257873   6.025   3.537   1.175  0.0725 -0.0544  0.1134
12128TIP3   OH257874   0.379   5.760   5.583  0.3987  0.0867 -0.7469
12128TIP3    H157875   0.449   5.710   5.539  1.7476  0.2966  1.1072
12128TIP3    H257876   0.299   5.714   5.559  1.2908 -0.9294 -1.8844
12129TIP3   OH257877   4.064   1.136  17.072 -0.4749 -0.4030 -0.0684
12129TIP3    H157878   4.027   1.190  17.142 -0.6341 -0.1971 -0.3111
12129TIP3    H257879   4.024   1.169  16.992 -0.5318 -0.8492 -0.2232
12130TIP3   OH257880   6.336   2.188  14.749  0.2909  0.3609  0.5406
12130TIP3    H157881   6.275   2.209  14.820  3.4148  2.5636  2.7330
12130TIP3    H257882   6.298   2.229  14.672 -1.7116  0.4499  1.5261
12131TIP3   OH257883   2.126   5.525  13.486 -0.3868 -0.1184  1.2716
12131TIP3    H157884   2.214   5.542  13.519  0.7282  0.3571 -1.7570
12131TIP3    H257885   2.091   5.612  13.466 -0.2740 -0.4700 -0.5530
12132TIP3   OH257886   0.119   0.628   4.553 -0.1966 -0.6410 -0.1441
12132TIP3    H157887   0.172   0.642   4.475 -0.1809 -0.1245 -0.0407
12132TIP3    H257888   0.096   0.535   4.550 -0.2856 -0.5965 -0.8125
12133TIP3   OH257889   0.297   2.780   6.054  0.1040 -0.3532  0.4300
12133TIP3    H157890   0.300   2.684   6.055  0.1571 -0.3482  0.7057
12133TIP3    H257891   0.295   2.805   6.146 -0.7791 -0.1136  0.3464
12134TIP3   OH257892   4.137   6.064   0.959 -0.0469 -0.3705 -0.2831
12134TIP3    H157893   4.065   6.065   1.022 -1.2185  2.4095 -1.5661
12134TIP3    H257894   4.095   6.050   0.875  0.8566  1.3869 -1.0600
12135TIP3   OH257895   5.862   1.953  16.835  0.1829 -0.1343  0.2694
12135TIP3    H157896   5.858   1.862  16.805 -0.2682 -0.1654  0.4215
12135TIP3    H257897   5.775   1.970  16.870  0.5252  0.0862  1.0243
12136TIP3   OH257898   0.344   6.490   1.814 -0.0383 -0.0985  0.0753
12136TIP3    H157899   0.372   6.456   1.899  0.9074 -1.8833 -0.9302
12136TIP3    H257900   0.300   6.417   1.772  2.8119 -0.4508 -2.4921
12137TIP3   OH257901   1.775   3.553   6.379 -0.2392 -0.6656 -0.3801
12137TIP3    H157902   1.780   3.478   6.439 -0.4447 -0.6786 -0.3785
12137TIP3    H257903   1.743   3.625   6.433 -1.4561 -0.9394 -0.7099
12138TIP3   OH257904   4.460   1.787  16.451  0.1230  0.0522 -0.1112
12138TIP3    H157905   4.515   1.711  16.429  0.3974  0.3865 -0.5809
12138TIP3    H257906   4.522   1.858  16.465 -0.1188  0.1336  0.5912
12139TIP3   OH257907   4.653   0.279  15.990  0.1405  0.3512 -0.2400
12139TIP3    H157908   4.581   0.228  16.027  0.5682  0.5980  0.9471
12139TIP3    H257909   4.629   0.290  15.897 -0.1108 -1.7171 -0.4392
12140TIP3   OH257910   4.500   0.802   1.793 -0.4266 -0.1874 -0.0274
12140TIP3    H157911   4.470   0.767   1.877  1.5019 -0.1304  0.7038
12140TIP3    H257912   4.567   0.867   1.816 -0.0745  0.0310 -1.5996
12141TIP3   OH257913   0.019   5.767   6.027  0.0345  0.0747 -0.0410
12141TIP3    H157914   0.107   5.736   6.005 -0.1800  0.2500 -1.1657
12141TIP3    H257915   0.031   5.816   6.108  1.0757  0.5377 -0.4652
12142TIP3   OH257916   4.837   3.709  16.487 -0.0504  0.3763  0.4800
12142TIP3    H157917   4.786   3.782  16.524 -0.1566  0.4611  0.1657
12142TIP3    H257918   4.895   3.751  16.424  0.8559  0.3622  1.2911
12143TIP3   OH257919   2.756   1.450   2.330  0.0002  0.2414 -0.2412
12143TIP3    H157920   2.706   1.490   2.259 -0.4439  0.6362  0.2910
12143TIP3    H257921   2.731   1.358   2.329 -3.1404  0.9767  1.9888
12144TIP3   OH257922   0.139   5.924  12.033  0.4322  0.4005 -0.6389
12144TIP3    H157923   0.137   5.920  12.128  1.1324  0.2190 -0.6317
12144TIP3    H257924   0.058   5.970  12.009 -1.3741 -2.3814 -0.1371
12145TIP3   OH257925   2.551   5.428  12.261  0.8078  0.2770  0.4577
12145TIP3    H157926   2.558   5.335  12.239 -0.2469  0.0088  1.2490
12145TIP3    H257927   2.545   5.472  12.176 -0.2118 -0.5074  0.1067
12146TIP3   OH257928   3.909   5.374  11.729  0.6299 -0.3122  0.1787
12146TIP3    H157929   3.892   5.462  11.696  1.4581 -0.8587 -1.7867
12146TIP3    H257930   3.915   5.319  11.650  1.9674 -1.7860  1.2581
12147TIP3   OH257931   2.628   5.233  12.914 -0.1767 -0.5988 -0.0253
12147TIP3    H157932   2.635   5.307  12.853 -0.3322 -1.0238 -0.5597
12147TIP3    H257933   2.543   5.244  12.956 -0.3840 -0.7172 -0.4179
12148TIP3   OH257934   0.759   3.571   0.399 -0.2252 -0.1622  1.2069
12148TIP3    H157935   0.838   3.522   0.422  0.7412  1.4082  1.2491
12148TIP3    H257936   0.735   3.538   0.312 -0.5165 -1.8624  1.9016
12149TIP3   OH257937   3.620   6.226  16.862  0.4766  0.0934  0.0828
12149TIP3    H157938   3.683   6.290  16.895 -0.6811  1.5168 -0.4323
12149TIP3    H257939   3.616   6.242  16.768  0.3325 -0.8785 -0.0819
12150TIP3   OH257940   3.823   3.971  10.284 -0.1471  0.2825 -0.1359
12150TIP3    H157941   3.807   4.065  10.297  2.0956  0.6690  0.0510
12150TIP3    H257942   3.795   3.955  10.194 -2.5630  0.6335  0.4985
12151TIP3   OH257943   6.216   5.193  14.067 -0.1278  0.1772 -0.2762
12151TIP3    H157944   6.251   5.277  14.095  1.5784 -0.6284  0.0502
12151TIP3    H257945   6.147   5.173  14.131 -1.4361  1.9070 -1.1060
12152TIP3   OH257946   5.374   1.988  14.322 -0.2442  0.0101  0.1802
12152TIP3    H157947   5.448   1.964  14.266 -0.5960 -0.8092  0.0615
12152TIP3    H257948   5.390   2.080  14.345  0.7339 -0.1193  0.0421
12153TIP3   OH257949   6.794   2.576  12.806  0.6228 -0.4993  0.2909
12153TIP3    H157950   6.805   2.670  12.820 -0.2862 -0.5582  1.4712
12153TIP3    H257951   6.728   2.569  12.737  0.7615 -0.2792  0.1346
12154TIP3   OH257952   4.973   2.804  12.168 -0.3224  0.0672 -0.0960
12154TIP3    H157953   4.953   2.836  12.080 -2.4278 -0.3097  0.2195
12154TIP3    H257954   4.917   2.727  12.179  1.8293 -1.4151  0.6122
12155TIP3   OH257955   2.083   4.404  11.525 -0.1207  0.1097 -0.1814
12155TIP3    H157956   2.102   4.320  11.569  0.4207  1.0943  1.5344
12155TIP3    H257957   2.169   4.447  11.519 -0.5824  1.0840  0.1233
12156TIP3   OH257958   3.708   2.725  13.080 -0.7817 -0.5084 -0.1629
12156TIP3    H157959   3.686   2.633  13.092  0.4814 -0.7933  0.0439
12156TIP3    H257960   3.624   2.770  13.078 -1.3408 -1.4535  1.4704
12157TIP3   OH257961   6.811   2.877   3.397 -0.2622  0.5389 -0.9009
12157TIP3    H157962   6.860   2.797   3.414 -1.8004 -0.2952 -0.3401
12157TIP3    H257963   6.845   2.908   3.313  0.9050 -0.2603 -0.7347
12158TIP3   OH257964   5.797   4.697  13.638 -0.2398 -0.2602 -0.8860
12158TIP3    H157965   5.817   4.785  13.605 -0.1860  0.0633 -0.0154
12158TIP3    H257966   5.702   4.698  13.651  0.0089  0.4023  1.1314
12159TIP3   OH257967   5.104   0.178   0.222  0.1462  0.0771 -0.4028
12159TIP3    H157968   5.104   0.098   0.170 -0.0854 -0.2829  0.1481
12159TIP3    H257969   5.113   0.149   0.312  2.1239  0.7925 -0.3516
12160TIP3   OH257970   0.241   6.479   3.951 -0.2947  0.1743  0.3344
12160TIP3    H157971   0.246   6.524   4.035 -0.3916  0.1257  0.3669
12160TIP3    H257972   0.321   6.504   3.905 -0.5924  0.8065  0.1413
12161TIP3   OH257973   0.582   5.150  13.609  0.9710  0.1293  0.1522
12161TIP3    H157974   0.527   5.106  13.673  0.8896 -1.0363 -0.7049
12161TIP3    H257975   0.520   5.197  13.553  0.8661 -0.9201 -0.6163
12162TIP3   OH257976   6.388   2.136  11.167 -0.7674  0.7197  0.1127
12162TIP3    H157977   6.322   2.148  11.235 -0.8958  0.9662 -0.0520
12162TIP3    H257978   6.339   2.101  11.093 -0.6719  0.6851  0.0667
12163TIP3   OH257979   1.095   0.966  11.242 -0.8179 -0.5430 -0.0020
12163TIP3    H157980   1.173   0.949  11.190 -2.3068 -0.6071 -2.2895
12163TIP3    H257981   1.059   1.047  11.206 -0.5735  0.7440  2.5550
12164TIP3   OH257982   5.313   5.598  15.220 -0.1566  0.0154  0.3842
12164TIP3    H157983   5.371   5.531  15.256 -1.1245 -0.6280  0.7767
12164TIP3    H257984   5.365   5.642  15.153  0.4830 -1.1634  0.0886
12165TIP3   OH257985   0.887   3.541   2.640 -0.2059  0.2924 -0.1968
12165TIP3    H157986   0.914   3.487   2.715 -0.4839  1.4193  0.7175
12165TIP3    H257987   0.820   3.489   2.597 -1.3524  0.4157  1.3808
12166TIP3   OH257988   4.261   1.517  11.163 -0.2438  0.0184 -0.4201
12166TIP3    H157989   4.267   1.472  11.078  0.0992  0.0233 -0.4000
12166TIP3    H257990   4.341   1.491  11.209 -0.0064  0.7170 -0.4428
12167TIP3   OH257991   6.789   4.241   0.687 -0.5984  0.0578  0.2124
12167TIP3    H157992   6.710   4.222   0.738  0.7977 -1.2061  1.9365
12167TIP3    H257993   6.861   4.228   0.748  1.0327  0.0538 -1.6671
12168TIP3   OH257994   1.212   1.493   2.902  0.2260  0.1256 -0.2695
12168TIP3    H157995   1.269   1.429   2.860  0.2069 -0.4604  0.5886
12168TIP3    H257996   1.124   1.455   2.895  0.6502 -1.7507  3.5163
12169TIP3   OH257997   3.201   4.176  15.494 -0.3146  0.2124  0.7267
12169TIP3    H157998   3.247   4.190  15.411 -0.6920 -0.9215  0.3251
12169TIP3    H257999   3.118   4.224  15.483  0.3089  1.3861  1.0605
12170TIP3   OH258000   5.106   5.823  16.440  0.6202  0.0000 -0.2216
12170TIP3    H158001   5.171   5.753  16.440  0.4932 -0.1460 -1.5773
12170TIP3    H258002   5.080   5.833  16.531  1.6474 -0.7814  0.1601
12171TIP3   OH258003   3.926   5.405  14.556 -0.0424 -0.0380 -0.2439
12171TIP3    H158004   3.917   5.345  14.482  0.4318  0.3506 -0.6186
12171TIP3    H258005   3.901   5.353  14.632 -0.9393 -0.3192 -0.7205
12172TIP3   OH258006   3.550   0.820   3.392  0.2950  0.0781  0.1019
12172TIP3    H158007   3.460   0.828   3.422 -0.0686  0.2849 -1.0069
12172TIP3    H258008   3.577   0.731   3.417  0.0388  0.2798  1.0920
12173TIP3   OH258009   0.824   1.243   6.220 -0.3643 -0.1246  0.4882
12173TIP3    H158010   0.853   1.266   6.308 -1.9280 -0.0116  0.9928
12173TIP3    H258011   0.772   1.164   6.232 -0.0309 -0.4837 -0.4281
12174TIP3   OH258012   0.800   1.734   5.712 -0.5191 -0.2525 -0.3136
12174TIP3    H158013   0.716   1.740   5.667 -0.5009 -0.2541 -0.3475
12174TIP3    H258014   0.855   1.681   5.654 -0.1730  0.5919 -0.7642
12175TIP3   OH258015   0.633   0.645  14.373 -0.4568  0.1158 -0.4470
12175TIP3    H158016   0.695   0.709  14.409 -0.9596 -0.7202  1.9441
12175TIP3    H258017   0.680   0.605  14.300  0.8469  1.3432 -0.3027
12176TIP3   OH258018   0.396   1.683   4.983  0.1950 -0.2106 -0.8843
12176TIP3    H158019   0.389   1.590   5.005  1.0670 -0.6155 -2.2255
12176TIP3    H258020   0.454   1.719   5.049 -1.4971 -0.2352  0.6656
12177TIP3   OH258021   1.792   3.651   4.642  0.5614 -0.2517  0.0670
12177TIP3    H158022   1.872   3.600   4.629  0.9508  0.5631 -0.7572
12177TIP3    H258023   1.773   3.642   4.736  3.0630  1.6435  0.7909
12178TIP3   OH258024   1.974   5.924  12.888 -0.4315 -0.0129 -0.1761
12178TIP3    H158025   2.067   5.948  12.889  0.0297 -1.7128  0.2398
12178TIP3    H258026   1.963   5.869  12.966 -2.4043  2.2758  1.2329
12179TIP3   OH258027   5.209   0.355  13.083 -0.1281  0.2879  0.2153
12179TIP3    H158028   5.286   0.367  13.137 -0.7955  0.6900  1.0948
12179TIP3    H258029   5.180   0.444  13.062 -1.5859  0.1882  1.6872
12180TIP3   OH258030   5.134   4.719  16.721 -0.1602  0.9770 -0.0573
12180TIP3    H158031   5.158   4.775  16.647 -0.5847  1.5153  0.2038
12180TIP3    H258032   5.066   4.661  16.687  0.9989 -0.0741 -0.6114
12181TIP3   OH258033   5.286   1.080   0.378 -0.3575  0.2998 -0.4090
12181TIP3    H158034   5.301   0.988   0.401 -0.7320  0.6183  1.1441
12181TIP3    H258035   5.211   1.079   0.320 -0.3058 -0.3896 -0.4611
12182TIP3   OH258036   2.080   2.257   1.919 -0.4883 -0.6032 -0.6964
12182TIP3    H158037   2.064   2.300   2.003  0.3480 -0.3923 -0.6448
12182TIP3    H258038   2.046   2.319   1.854 -0.3320 -0.3729 -0.5605
12183TIP3   OH258039   6.468   1.287   0.386  0.3612 -0.4824 -0.5703
12183TIP3    H158040   6.447   1.325   0.471  0.8341 -2.7340  0.5757
12183TIP3    H258041   6.533   1.347   0.348 -1.1028  1.4536 -0.1270
12184TIP3   OH258042   5.043   6.532   3.874 -0.2645  0.4565  0.1992
12184TIP3    H158043   5.038   6.473   3.799 -2.8698  1.8109 -0.7412
12184TIP3    H258044   5.076   6.614   3.838 -0.5203  0.8008  0.7432
12185TIP3   OH258045   3.143   2.925   4.144  0.3953 -0.0604  0.0772
12185TIP3    H158046   3.218   2.983   4.126 -0.4383  1.0356  0.0613
12185TIP3    H258047   3.067   2.979   4.125 -0.4379 -0.4955  2.0518
12186TIP3   OH258048   2.341   5.755  14.059  0.1253 -0.4295  0.7016
12186TIP3    H158049   2.403   5.682  14.065  0.0471 -0.6292 -0.7539
12186TIP3    H258050   2.387   5.822  14.008 -0.9776 -0.7335 -0.7407
12187TIP3   OH258051   2.708   3.982  14.121 -0.1714  0.3628 -0.4428
12187TIP3    H158052   2.676   4.072  14.116 -2.0316 -0.2427  0.2822
12187TIP3    H258053   2.748   3.966  14.035 -0.5264  1.6071 -0.8527
12188TIP3   OH258054   4.051   0.492   0.907  0.5059 -0.8475  1.0399
12188TIP3    H158055   4.098   0.456   0.982  1.7078 -0.0847  0.6720
12188TIP3    H258056   3.984   0.548   0.945  0.3212 -1.4264  1.5651
12189TIP3   OH258057   4.063   1.330   5.581  0.0599  0.2082 -0.3317
12189TIP3    H158058   4.141   1.342   5.526  1.0482 -0.9712  0.7569
12189TIP3    H258059   4.071   1.240   5.613 -2.4289 -0.3630 -1.2090
12190TIP3   OH258060   3.827   1.016  13.564 -0.0149 -0.0576  0.1258
12190TIP3    H158061   3.811   1.070  13.641  1.6203  0.1917  0.3044
12190TIP3    H258062   3.909   0.970  13.583 -0.3339 -1.0842 -0.8698
12191TIP3   OH258063   4.448   1.530   0.696  0.2938 -0.0538 -0.2308
12191TIP3    H158064   4.447   1.440   0.729  1.4517 -0.0853 -0.2646
12191TIP3    H258065   4.471   1.583   0.773  1.9416 -0.0241 -0.7241
12192TIP3   OH258066   1.543   6.719   4.355 -0.2133 -0.6947  0.2491
12192TIP3    H158067   1.514   6.800   4.397  1.7396 -0.1651  0.6156
12192TIP3    H258068   1.524   6.732   4.262 -1.0718 -0.3476  0.4641
12193TIP3   OH258069   0.164   3.024  13.735  0.3084 -0.1982 -0.3297
12193TIP3    H158070   0.182   3.045  13.827  0.8569  1.7262 -0.8577
12193TIP3    H258071   0.084   3.074  13.715  0.3234 -0.4200 -0.9515
12194TIP3   OH258072   2.309   5.824   4.855  0.6938  0.0529 -0.0852
12194TIP3    H158073   2.323   5.912   4.889  3.4285 -0.0646 -0.7863
12194TIP3    H258074   2.389   5.776   4.877 -0.3004 -1.9397 -0.6798
12195TIP3   OH258075   6.560   1.066   0.500  0.1515 -0.4430  0.8190
12195TIP3    H158076   6.603   1.115   0.571 -0.6731  0.6888  0.5601
12195TIP3    H258077   6.486   1.121   0.475  0.3528 -0.8913 -0.8369
12196TIP3   OH258078   4.177   4.084   0.708  0.2003 -0.0391 -0.0339
12196TIP3    H158079   4.186   4.115   0.798 -1.3688 -1.4677  0.6547
12196TIP3    H258080   4.207   3.993   0.711  0.1866 -0.0817 -0.9595
12197TIP3   OH258081   2.735   2.770  15.730 -0.7958 -0.4360  0.0990
12197TIP3    H158082   2.787   2.741  15.656  0.9066  0.6808  0.8261
12197TIP3    H258083   2.684   2.844  15.696  0.8630  0.8288  0.3357
12198TIP3   OH258084   4.828   3.298   2.737  0.0679  0.4039 -0.2555
12198TIP3    H158085   4.776   3.361   2.787 -0.4694  1.6060 -2.2911
12198TIP3    H258086   4.854   3.345   2.658  0.7606 -1.5173 -1.2050
12199TIP3   OH258087   3.136   6.781   4.170  0.3194 -0.2316 -0.1102
12199TIP3    H158088   3.174   6.860   4.208  1.4440 -0.7288 -0.1889
12199TIP3    H258089   3.049   6.808   4.140 -0.1098  0.4524  1.7157
12200TIP3   OH258090   3.525   6.775  14.404  0.2510  0.2578  0.4012
12200TIP3    H158091   3.534   6.788  14.309 -3.3064  2.4351  0.2767
12200TIP3    H258092   3.459   6.839  14.431 -0.9472 -2.2956  3.8748
12201TIP3   OH258093   3.790   5.069   3.731 -0.2105 -0.1201 -0.1777
12201TIP3    H158094   3.838   4.989   3.751 -2.3984 -1.2700  0.6620
12201TIP3    H258095   3.825   5.097   3.646  0.7728 -1.8251 -0.3670
12202TIP3   OH258096   2.459   0.133  13.693 -0.4277 -0.4780 -0.0457
12202TIP3    H158097   2.402   0.118  13.619 -0.2989  2.2184 -0.7687
12202TIP3    H258098   2.527   0.066  13.686 -1.3934 -1.3385 -1.3234
12203TIP3   OH258099   0.593   3.727   4.142  0.1459 -0.3071 -0.3868
12203TIP3    H158100   0.632   3.791   4.082 -0.9446 -0.2717 -1.0788
12203TIP3    H258101   0.521   3.688   4.091  0.6793 -1.9451  0.0926
12204TIP3   OH258102   2.149   1.286  16.216 -0.0720  0.2284  0.0500
12204TIP3    H158103   2.179   1.218  16.277  0.3714  0.2027 -0.1925
12204TIP3    H258104   2.151   1.243  16.130  2.5197  1.2308 -0.4528
12205TIP3   OH258105   0.084   6.416   5.097 -0.3901  0.3978  1.2186
12205TIP3    H158106   0.143   6.445   5.167  0.7597  0.8967  0.0672
12205TIP3    H258107   0.084   6.321   5.102  1.8030  0.3105  0.2286
12206TIP3   OH258108   3.740   3.546  15.844  0.2127 -0.0512 -0.2363
12206TIP3    H158109   3.757   3.635  15.875  0.6703  0.2535 -1.3172
12206TIP3    H258110   3.660   3.554  15.793 -0.7825 -0.6338  1.2163
12207TIP3   OH258111   3.333   3.301   5.442  0.3560  0.4043  0.0423
12207TIP3    H158112   3.338   3.368   5.510  0.0625  0.6839 -0.2069
12207TIP3    H258113   3.384   3.337   5.369  1.4757 -0.3166  0.4574
12208TIP3   OH258114   5.637   2.584  11.536 -0.3849  0.5606  0.0917
12208TIP3    H158115   5.623   2.665  11.584  0.6736 -0.0018  1.3614
12208TIP3    H258116   5.619   2.607  11.445  0.3711  2.3334  0.3773
12209TIP3   OH258117   2.713   6.289   0.365  0.0019  0.0717 -0.0095
12209TIP3    H158118   2.684   6.208   0.322 -1.9469  0.7208  0.0390
12209TIP3    H258119   2.637   6.318   0.415  1.3190  0.8994  1.5590
12210TIP3   OH258120   6.685   0.652   3.743  0.1116 -0.5973 -0.6194
12210TIP3    H158121   6.679   0.615   3.655 -1.5071 -1.8708 -0.0061
12210TIP3    H258122   6.594   0.656   3.774  0.7881 -1.8632  1.6854
12211TIP3   OH258123   2.964   4.546   2.873  0.0279  0.3721  0.0937
12211TIP3    H158124   2.890   4.594   2.910 -0.3406  0.6558 -1.0078
12211TIP3    H258125   2.925   4.466   2.838  0.3486  0.2089  0.1092
12212TIP3   OH258126   4.943   6.040   0.419  0.0855 -0.8831 -0.6516
12212TIP3    H158127   4.965   5.948   0.436 -1.4644 -0.9603  1.1316
12212TIP3    H258128   4.850   6.046   0.440  0.6098  1.5283  1.1678
12213TIP3   OH258129   1.257   0.991  11.755 -0.0694 -0.2516 -0.0190
12213TIP3    H158130   1.243   1.073  11.706 -2.5284 -0.1105  0.8454
12213TIP3    H258131   1.272   1.019  11.845 -1.7094 -0.7416  0.4338
12214TIP3   OH258132   6.648   5.706  17.120 -0.4922  0.0093 -0.4503
12214TIP3    H158133   6.620   5.675  17.033 -0.6914 -0.2669 -0.2877
12214TIP3    H258134   6.616   5.795  17.125 -0.1485  0.1563 -0.8178
12215TIP3   OH258135   4.461   5.502   2.360 -0.0716  0.1933  0.4286
12215TIP3    H158136   4.550   5.512   2.325  0.0658  1.0529  1.0083
12215TIP3    H258137   4.447   5.408   2.364  0.5103  0.0663 -0.4351
12216TIP3   OH258138   3.494   2.615  15.091 -0.0444 -0.6447  0.3478
12216TIP3    H158139   3.473   2.531  15.052 -0.6739 -0.6360  0.6601
12216TIP3    H258140   3.466   2.607  15.182 -0.2985 -0.0305  0.3267
12217TIP3   OH258141   3.784   4.746  11.641  0.0080  0.0875 -0.1573
12217TIP3    H158142   3.760   4.731  11.550 -0.1795  0.7666 -0.2226
12217TIP3    H258143   3.771   4.840  11.654 -0.9030 -0.1667  0.8422
12218TIP3   OH258144   0.661   2.490   1.716 -0.1611  0.0003 -0.1555
12218TIP3    H158145   0.629   2.492   1.806  0.0487  0.1972 -0.0859
12218TIP3    H258146   0.582   2.479   1.663 -0.0919 -2.4858  0.1717
12219TIP3   OH258147   3.667   6.265   2.542  0.6754  0.0336  0.0942
12219TIP3    H158148   3.712   6.181   2.548 -1.6889 -1.4228 -1.6897
12219TIP3    H258149   3.728   6.321   2.492  1.1784 -1.4215 -0.9581
12220TIP3   OH258150   1.420   4.483   3.793  0.2114 -0.4990 -0.7104
12220TIP3    H158151   1.507   4.511   3.766 -0.4500  1.5199 -0.8210
12220TIP3    H258152   1.420   4.492   3.888 -0.0681  0.1158 -0.7642
12221TIP3   OH258153   2.657   2.993  13.100  0.1750 -0.0080  0.4600
12221TIP3    H158154   2.578   3.002  13.047  1.4598 -0.9506 -1.6799
12221TIP3    H258155   2.654   3.068  13.159 -1.9199  0.3871 -0.0948
12222TIP3   OH258156   0.215   0.616  14.757 -0.1083  0.1528  0.2665
12222TIP3    H158157   0.300   0.647  14.788  0.8089 -1.5545 -0.5005
12222TIP3    H258158   0.152   0.647  14.822  1.3077 -0.0692  1.7466
12223TIP3   OH258159   0.601   3.538   5.149  0.0640  0.1060  0.2719
12223TIP3    H158160   0.587   3.627   5.181  0.2414  0.2324  0.0069
12223TIP3    H258161   0.581   3.543   5.055  2.3644  0.4179 -0.2300
12224TIP3   OH258162   3.067   3.665   5.756  0.0279  0.0774  0.1738
12224TIP3    H158163   2.992   3.717   5.785  0.3471 -0.1714  1.4984
12224TIP3    H258164   3.093   3.705   5.674  0.7874  2.5925  1.5763
12225TIP3   OH258165   3.787   2.620  12.257 -0.7365  0.4561 -0.4448
12225TIP3    H158166   3.802   2.543  12.312 -1.3961 -0.0433 -0.9546
12225TIP3    H258167   3.708   2.660  12.292 -0.4866  0.8119 -0.2865
12226TIP3   OH258168   1.410   3.709  14.663  0.0443 -0.1217 -0.1872
12226TIP3    H158169   1.415   3.638  14.727  0.3449  0.5619  0.5537
12226TIP3    H258170   1.477   3.687  14.598 -0.9744 -1.3618 -0.8365
12227TIP3   OH258171   2.894   1.195   5.296 -0.1918 -0.0329  0.1824
12227TIP3    H158172   2.961   1.257   5.324 -0.2542 -0.2866  0.9097
12227TIP3    H258173   2.843   1.178   5.375 -0.5048 -0.5966 -0.1388
12228TIP3   OH258174   6.118   6.451  12.399  0.1430  0.0728  0.0908
12228TIP3    H158175   6.116   6.470  12.305 -0.8770 -2.5667 -0.4593
12228TIP3    H258176   6.155   6.363  12.405  1.7388  0.8394  2.3142
12229TIP3   OH258177   5.064   0.639  16.686  0.1218  0.0204 -0.9709
12229TIP3    H158178   5.091   0.558  16.729  1.0815 -0.1820 -1.9231
12229TIP3    H258179   5.036   0.696  16.757 -0.9336 -1.2788 -0.3171
12230TIP3   OH258180   3.030   0.309  13.514 -0.1047  0.4113 -0.3359
12230TIP3    H158181   2.961   0.256  13.554 -1.6863  0.7316 -2.5942
12230TIP3    H258182   3.100   0.246  13.494 -0.3782 -0.1674  0.4684
12231TIP3   OH258183   3.047   3.355  13.609 -0.2198  0.2876  0.9955
12231TIP3    H158184   3.109   3.382  13.676 -0.4669  0.4490  1.1611
12231TIP3    H258185   3.089   3.379  13.526  0.3778 -0.5245  1.0608
12232TIP3   OH258186   3.771   0.300   1.787  0.1225  0.2171 -0.9142
12232TIP3    H158187   3.699   0.324   1.729 -0.9348  0.5668  0.5293
12232TIP3    H258188   3.729   0.260   1.863  1.2613  2.5856  1.0203
12233TIP3   OH258189   1.278   3.894   4.418  0.1615  0.5762 -0.2913
12233TIP3    H158190   1.301   3.957   4.486 -1.3879 -0.0176  0.8037
12233TIP3    H258191   1.197   3.928   4.380  0.1336  0.0222 -0.7341
12234TIP3   OH258192   0.461   1.633  12.158  0.1101  0.0245 -0.9602
12234TIP3    H158193   0.504   1.718  12.168  0.5613 -0.1389 -1.5526
12234TIP3    H258194   0.378   1.643  12.206  1.3519 -0.0782  1.2800
12235TIP3   OH258195   4.864   6.280  14.041 -0.2474  0.5027 -0.2921
12235TIP3    H158196   4.883   6.276  13.947  1.6275  1.9163 -0.0164
12235TIP3    H258197   4.923   6.216  14.081 -1.5464 -0.6050 -0.1387
12236TIP3   OH258198   6.104   5.639  15.860 -0.4985  0.2685  0.0064
12236TIP3    H158199   6.034   5.668  15.802 -0.1147 -0.2562 -0.7395
12236TIP3    H258200   6.103   5.543  15.852  0.2597  0.2508  0.0240
12237TIP3   OH258201   2.455   5.949   2.371 -0.5224 -0.6594  0.3484
12237TIP3    H158202   2.417   5.889   2.307  2.5281 -1.1836 -1.0514
12237TIP3    H258203   2.473   5.894   2.448 -1.0380 -0.7665  0.3899
12238TIP3   OH258204   3.923   5.740  13.863 -0.0966 -0.3387 -0.2365
12238TIP3    H158205   3.847   5.714  13.914 -1.1655  3.2229  0.1404
12238TIP3    H258206   3.888   5.798  13.795  1.9541 -0.8892 -1.8191
12239TIP3   OH258207   4.648   3.641   3.723  0.1769  0.6024 -0.1675
12239TIP3    H158208   4.641   3.638   3.628  2.0742  2.2777 -0.3908
12239TIP3    H258209   4.581   3.704   3.751 -1.8940 -1.5153 -0.1535
12240TIP3   OH258210   2.320   5.659  11.599 -0.3002 -0.0309 -0.2729
12240TIP3    H158211   2.236   5.696  11.573  1.6839  2.9602 -2.8223
12240TIP3    H258212   2.338   5.593  11.532 -0.1566  0.0386 -0.3022
12241TIP3   OH258213   3.728   5.555   6.044 -0.5647  0.2949  0.2653
12241TIP3    H158214   3.638   5.522   6.034 -1.8631  3.6584  0.1081
12241TIP3    H258215   3.738   5.570   6.138 -1.0938  2.2684  0.0274
12242TIP3   OH258216   2.501   3.028  14.998  0.5080  0.4312 -0.3451
12242TIP3    H158217   2.459   3.041  14.913 -2.0488 -1.6407  0.5390
12242TIP3    H258218   2.436   3.058  15.062  1.7257  0.3656  0.9676
12243TIP3   OH258219   2.857   1.072  10.817  0.6149 -0.2211 -0.1103
12243TIP3    H158220   2.835   1.012  10.889  0.6072 -1.0288 -0.7796
12243TIP3    H258221   2.782   1.066  10.757  0.8211  0.1098 -0.4013
12244TIP3   OH258222   5.625   1.442   0.906  0.2362  0.5894 -0.5872
12244TIP3    H158223   5.543   1.392   0.910  0.6619 -0.1627 -0.9508
12244TIP3    H258224   5.690   1.385   0.948  0.8997  0.4746 -1.7386
12245TIP3   OH258225   4.767   1.484   0.741  0.6454  0.0018 -0.6007
12245TIP3    H158226   4.796   1.392   0.737  0.1139 -0.0925 -3.0465
12245TIP3    H258227   4.671   1.478   0.748  0.6660  0.3895  0.0779
12246TIP3   OH258228   0.529   3.589  13.838 -0.0707  0.4207  0.1275
12246TIP3    H158229   0.624   3.590  13.847 -0.0359 -0.7414 -0.0501
12246TIP3    H258230   0.503   3.680  13.847  1.2378  1.0027 -1.7528
12247TIP3   OH258231   5.837   5.341  11.501 -0.6120 -0.4413  1.2356
12247TIP3    H158232   5.748   5.364  11.475 -0.6210 -2.5424 -0.8913
12247TIP3    H258233   5.893   5.393  11.443 -0.5042 -0.5296  1.2593
12248TIP3   OH258234   2.403   2.870  17.066 -0.0276  0.2191 -0.1072
12248TIP3    H158235   2.381   2.800  17.127  2.6146 -1.3140 -0.8699
12248TIP3    H258236   2.342   2.859  16.993  2.3490 -3.3048 -1.6941
12249TIP3   OH258237   3.700   1.555  15.407 -0.0376  0.1406 -0.2547
12249TIP3    H158238   3.644   1.612  15.353  0.6391  2.1631  1.1220
12249TIP3    H258239   3.780   1.546  15.356  0.3269  1.4665  0.0524
12250TIP3   OH258240   2.225   6.646   1.403 -0.1937 -0.1279 -0.5745
12250TIP3    H158241   2.272   6.583   1.348  0.8697  1.0714 -1.0641
12250TIP3    H258242   2.210   6.721   1.346  0.9147  1.1277  0.7473
12251TIP3   OH258243   5.758   5.117   4.369 -0.2633  0.1339 -0.3295
12251TIP3    H158244   5.845   5.083   4.350 -0.5204 -0.6681 -0.0791
12251TIP3    H258245   5.765   5.211   4.351  0.5056 -0.0076 -0.8149
12252TIP3   OH258246   6.011   4.358   4.911 -0.2974  0.7604  0.3155
12252TIP3    H158247   6.086   4.376   4.967  0.8643  1.9425 -1.5599
12252TIP3    H258248   6.034   4.276   4.867 -0.6922  0.4461  0.6880
12253TIP3   OH258249   6.104   4.499  15.548 -0.0252 -0.7779 -0.6739
12253TIP3    H158250   6.023   4.537  15.516  0.5507 -0.1099 -1.3627
12253TIP3    H258251   6.134   4.441  15.477 -0.3478 -1.7069 -0.0657
12254TIP3   OH258252   5.588   6.108   0.603  0.3621  0.2676  0.8738
12254TIP3    H158253   5.593   6.194   0.560  2.2231 -0.2578  0.0114
12254TIP3    H258254   5.514   6.116   0.664 -2.8196  0.8731 -2.8393
12255TIP3   OH258255   0.265   5.832   4.283 -0.2044 -0.2061 -0.0218
12255TIP3    H158256   0.312   5.877   4.353 -1.0563 -1.0395  1.1103
12255TIP3    H258257   0.313   5.751   4.269  1.5535  1.1574 -2.3268
12256TIP3   OH258258   6.531   6.369   1.097  0.5838  0.0794  0.2016
12256TIP3    H158259   6.597   6.396   1.161 -0.6223 -0.2335  1.6148
12256TIP3    H258260   6.522   6.444   1.038  0.4292  1.0819  1.4768
12257TIP3   OH258261   3.749   6.771  15.063 -0.0805 -0.6162  0.3442
12257TIP3    H158262   3.765   6.815  15.146 -0.4999  0.4882 -0.1381
12257TIP3    H258263   3.806   6.816  15.001 -0.4225 -0.8366 -0.1326
12258TIP3   OH258264   6.815   2.129   5.039 -0.4116 -0.8519  0.3774
12258TIP3    H158265   6.864   2.144   5.120 -0.6006 -0.2762  0.3895
12258TIP3    H258266   6.877   2.150   4.969 -0.7379  0.2138  0.3968
12259TIP3   OH258267   4.393   1.810   0.847  0.5339 -0.5521  0.6734
12259TIP3    H158268   4.443   1.813   0.766 -0.4890  2.0603  0.1207
12259TIP3    H258269   4.459   1.796   0.915  1.8072  0.8618 -0.2436
12260TIP3   OH258270   1.415   0.440  16.522  0.1300 -0.3373 -0.1705
12260TIP3    H158271   1.493   0.389  16.543  1.4506  1.0254 -1.6083
12260TIP3    H258272   1.449   0.523  16.486 -1.9619  0.8235  0.4390
12261TIP3   OH258273   2.575   6.020  12.097  0.0096  0.7166 -0.2649
12261TIP3    H158274   2.590   6.088  12.163  2.1209 -0.1733  0.2447
12261TIP3    H258275   2.514   5.959  12.139  0.8874  0.4592  0.6750
12262TIP3   OH258276   1.083   0.187   1.362  0.6976 -0.2573  0.1429
12262TIP3    H158277   1.093   0.099   1.325 -4.4023 -0.7802 -0.4618
12262TIP3    H258278   1.037   0.173   1.445 -0.0188  1.8072  0.1292
12263TIP3   OH258279   3.254   5.612  16.680 -0.3686  0.1447 -0.0506
12263TIP3    H158280   3.341   5.627  16.717  0.6502  0.9434 -2.6510
12263TIP3    H258281   3.209   5.696  16.688 -0.5926 -0.0184  0.4529
12264TIP3   OH258282   4.242   6.513  17.179 -0.3528 -0.4599 -0.1896
12264TIP3    H158283   4.338   6.511  17.184 -0.1624  1.3879 -2.6030
12264TIP3    H258284   4.218   6.424  17.153  0.7876 -0.6082 -0.7612
12265TIP3   OH258285   2.639   3.542  11.427  0.3906  0.2639  0.7419
12265TIP3    H158286   2.712   3.583  11.380  0.6846 -1.0187  0.0626
12265TIP3    H258287   2.618   3.603  11.497  2.6299  0.2623  1.4277
12266TIP3   OH258288   3.487   3.746  14.066 -0.0441 -0.0100  0.5417
12266TIP3    H158289   3.512   3.825  14.018  0.5857 -0.2680  0.4391
12266TIP3    H258290   3.477   3.679  13.999  2.2147 -0.7231  0.8769
12267TIP3   OH258291   2.148   5.606  14.727 -0.1812 -0.4693  0.2344
12267TIP3    H158292   2.173   5.633  14.816  1.7354  0.8702 -0.6688
12267TIP3    H258293   2.070   5.657  14.707  1.1694  1.5736  0.0154
12268TIP3   OH258294   3.250   2.547  11.377 -0.8046  0.6886  0.3289
12268TIP3    H158295   3.280   2.634  11.403 -1.2850  0.2837  2.3672
12268TIP3    H258296   3.327   2.490  11.390 -1.4387  0.2357  2.3513
12269TIP3   OH258297   6.010   0.099   3.748 -0.3610  0.2879  0.3198
12269TIP3    H158298   6.018   0.188   3.782  0.6306 -0.7443  2.9007
12269TIP3    H258299   5.923   0.070   3.776  0.4669 -0.5706  2.0977
12270TIP3   OH258300   1.047   0.131  15.488 -0.4274  0.1053 -0.5669
12270TIP3    H158301   1.029   0.220  15.518 -0.6926 -0.1061 -0.0986
12270TIP3    H258302   0.963   0.100  15.454 -0.4103 -0.0835 -0.4361
12271TIP3   OH258303   0.084   6.160  17.140 -0.4407 -0.1930 -0.2725
12271TIP3    H158304   0.018   6.124  17.199  0.2432 -2.2133 -0.7042
12271TIP3    H258305   0.165   6.114  17.164  0.3864  0.8209 -1.0728
12272TIP3   OH258306   1.061   5.798   3.851  0.0690  0.3029  0.2969
12272TIP3    H158307   1.144   5.843   3.835  0.9270 -1.4184 -0.1709
12272TIP3    H258308   1.022   5.787   3.765 -0.1077  0.0949  0.4033
12273TIP3   OH258309   2.431   6.815  14.716  0.1534 -0.2209  0.0519
12273TIP3    H158310   2.482   6.875  14.770 -0.2015  0.0255  0.1098
12273TIP3    H258311   2.450   6.728  14.752  1.5467 -0.2679 -0.7240
12274TIP3   OH258312   6.438   4.883  12.897 -0.0324  0.0242  0.4750
12274TIP3    H158313   6.412   4.800  12.855 -0.4231  0.1319  0.5047
12274TIP3    H258314   6.472   4.936  12.825 -1.4183  0.4992  0.1578
12275TIP3   OH258315   0.242   3.729  12.083 -0.1926  0.0714  0.4313
12275TIP3    H158316   0.334   3.710  12.100 -0.2949  0.4595  1.4810
12275TIP3    H258317   0.218   3.670  12.012  1.2457  0.9791 -0.8317
12276TIP3   OH258318   1.363   1.646   6.064  0.3389  0.0592  0.2785
12276TIP3    H158319   1.333   1.666   6.153  3.5396  0.9753  1.2199
12276TIP3    H258320   1.351   1.728   6.016 -0.3946 -0.1276  0.1338
12277TIP3   OH258321   5.531   5.021   2.522  0.7839 -0.4447 -0.3568
12277TIP3    H158322   5.583   5.082   2.470 -0.5876 -0.6454 -2.0191
12277TIP3    H258323   5.456   4.999   2.466 -1.1347 -0.0951  1.9843
12278TIP3   OH258324   5.174   0.971  16.958  0.3132  0.7821  0.1289
12278TIP3    H158325   5.183   1.039  16.892 -1.0993 -1.1087 -2.0740
12278TIP3    H258326   5.261   0.931  16.963  0.1642  0.2526 -1.3666
12279TIP3   OH258327   0.519   6.791  14.652  0.1316  0.1469 -0.4095
12279TIP3    H158328   0.480   6.709  14.622  0.1319  0.6147 -1.7272
12279TIP3    H258329   0.452   6.831  14.707  0.4398 -1.1048  0.8998
12280TIP3   OH258330   5.360   0.388  13.684 -0.2388  0.4241  0.0517
12280TIP3    H158331   5.378   0.401  13.778  0.1123 -0.2251  0.0738
12280TIP3    H258332   5.388   0.471  13.644 -1.6652  1.2253  0.6885
12281TIP3   OH258333   5.660   5.016   0.692  0.2943  0.1457  0.4661
12281TIP3    H158334   5.668   5.107   0.665  1.0981  0.7826  2.7727
12281TIP3    H258335   5.587   5.016   0.755 -0.9862 -1.1502 -0.9885
12282TIP3   OH258336   3.042   1.777   5.639 -0.4818  0.7316 -0.1431
12282TIP3    H158337   3.008   1.724   5.567 -2.0054  0.7037  0.5638
12282TIP3    H258338   3.041   1.717   5.714  0.2635  1.0127  0.0922
12283TIP3   OH258339   2.078   3.414   1.080  0.3024  0.5716  0.9580
12283TIP3    H158340   2.032   3.352   1.024  2.5554 -0.7941  0.5677
12283TIP3    H258341   2.058   3.500   1.043  0.7753 -0.2342 -1.2344
12284TIP3   OH258342   6.401   2.653  16.917 -0.6546  0.4781  0.3893
12284TIP3    H158343   6.477   2.666  16.973 -1.7595  2.9254  1.4266
12284TIP3    H258344   6.430   2.679  16.829 -0.6150  2.6264  1.0139
12285TIP3   OH258345   5.354   4.397   1.903 -0.1103 -0.6614 -0.8479
12285TIP3    H158346   5.409   4.465   1.863  0.9145 -1.4593 -0.8372
12285TIP3    H258347   5.382   4.394   1.995  0.1162 -1.3485 -0.9348
12286TIP3   OH258348   4.872   2.751  11.260  0.3630  0.3980  0.3359
12286TIP3    H158349   4.795   2.771  11.207  0.3235  1.7922  0.9104
12286TIP3    H258350   4.945   2.786  11.210  0.4696  0.4686  0.5409
12287TIP3   OH258351   4.622   0.493   4.937  0.0756 -0.5486 -0.0755
12287TIP3    H158352   4.667   0.410   4.920 -0.4336 -0.4644 -1.8715
12287TIP3    H258353   4.583   0.517   4.853  0.3350  1.5828  0.3972
12288TIP3   OH258354   5.569   5.048  16.304 -1.0723 -0.5694  0.4607
12288TIP3    H158355   5.512   4.978  16.272  0.5297 -1.1889 -1.0969
12288TIP3    H258356   5.657   5.012  16.301 -0.3808  0.9851  1.1506
12289TIP3   OH258357   4.166   3.147   2.608  0.4208  0.3848  0.1906
12289TIP3    H158358   4.208   3.150   2.522 -0.6295  1.1003 -0.3192
12289TIP3    H258359   4.234   3.171   2.670  0.7043  1.7863 -0.6390
12290TIP3   OH258360   3.818   4.872   5.286 -0.3890  0.0883  0.1860
12290TIP3    H158361   3.812   4.865   5.191 -0.1138  0.2827  0.1539
12290TIP3    H258362   3.753   4.810   5.318 -1.1491  0.7175 -0.1280
12291TIP3   OH258363   5.734   1.148  13.016 -0.3840  0.6546 -0.0154
12291TIP3    H158364   5.810   1.197  12.985 -0.4489  1.3089  0.8252
12291TIP3    H258365   5.716   1.084  12.947  1.0000  0.4128 -0.1744
12292TIP3   OH258366   3.225   0.801  11.865 -0.0972 -0.2652  0.0316
12292TIP3    H158367   3.231   0.731  11.931 -0.2459 -0.1479  0.1699
12292TIP3    H258368   3.315   0.812  11.834 -0.1175 -0.7321 -0.2124
12293TIP3   OH258369   5.908   3.264  17.040  0.4226 -0.0026  0.1267
12293TIP3    H158370   5.858   3.291  16.963 -1.2378 -0.4510  1.0266
12293TIP3    H258371   5.928   3.171  17.025 -0.5670 -0.2931  0.5840
12294TIP3   OH258372   1.955   2.431   1.755  0.2692 -0.2135  0.2325
12294TIP3    H158373   1.884   2.382   1.715 -0.9780  0.8513  1.0802
12294TIP3    H258374   1.944   2.520   1.722  1.0207  0.0220  0.6078
12295TIP3   OH258375   5.838   6.740  15.974 -0.2653  0.3511  0.2899
12295TIP3    H158376   5.838   6.647  15.998 -1.3551  0.2995  0.1276
12295TIP3    H258377   5.767   6.778  16.026  0.6494  1.2408  0.8978
12296TIP3   OH258378   2.806   6.122   2.535  0.3922 -0.1015 -0.4157
12296TIP3    H158379   2.784   6.214   2.524  0.5735  0.1353  1.0647
12296TIP3    H258380   2.734   6.086   2.586  1.6792 -0.1229  1.4463
12297TIP3   OH258381   0.101   3.971  13.384  0.4067  0.3649 -0.7150
12297TIP3    H158382   0.052   3.952  13.464  0.8224 -0.5991 -0.6858
12297TIP3    H258383   0.183   3.923  13.395  0.1282 -0.4264 -2.0964
12298TIP3   OH258384   4.137   0.892   1.907 -0.2292  0.3826 -0.7659
12298TIP3    H158385   4.156   0.984   1.888 -0.1061  0.5840  0.2755
12298TIP3    H258386   4.058   0.895   1.961  0.1995 -0.0768 -0.1128
12299TIP3   OH258387   3.646   0.595   2.992 -0.0378 -0.1574  0.0418
12299TIP3    H158388   3.653   0.547   3.074  0.4139  1.6224  1.0720
12299TIP3    H258389   3.579   0.661   3.008  2.6585  2.6329  0.2651
12300TIP3   OH258390   0.756   4.623  11.617 -0.6666 -0.2470 -0.0329
12300TIP3    H158391   0.691   4.610  11.547  0.0611 -1.4411 -0.5000
12300TIP3    H258392   0.775   4.535  11.648 -0.3996  0.2266  1.1475
12301TIP3   OH258393   3.085   0.322   3.392 -0.0126 -0.0389 -0.1489
12301TIP3    H158394   3.106   0.229   3.381 -1.7249 -0.4672  0.0198
12301TIP3    H258395   3.037   0.345   3.312  0.7569  0.8009 -0.3716
12302TIP3   OH258396   1.265   1.677  16.840  0.7006  0.0600  0.3053
12302TIP3    H158397   1.258   1.771  16.825  1.0693 -0.3514 -2.7099
12302TIP3    H258398   1.356   1.656  16.820  0.0806 -1.2770 -1.2287
12303TIP3   OH258399   1.844   5.226  16.798 -0.2440 -0.3573  0.5228
12303TIP3    H158400   1.778   5.221  16.867 -1.0988 -0.4493 -0.2928
12303TIP3    H258401   1.818   5.300  16.744 -0.5278 -1.2886 -0.6498
12304TIP3   OH258402   1.634   3.854  14.306 -0.3641 -0.1794 -0.2173
12304TIP3    H158403   1.569   3.793  14.341 -0.7698  1.0026  1.1331
12304TIP3    H258404   1.716   3.805  14.309 -0.9882 -1.3210 -0.9518
12305TIP3   OH258405   6.571   2.661  10.464 -0.7209  0.2714  0.2350
12305TIP3    H158406   6.661   2.672  10.494 -1.5178  1.4729  2.3139
12305TIP3    H258407   6.549   2.745  10.423 -1.0534  0.1789  0.2210
12306TIP3   OH258408   2.722   3.035   0.406  0.9486  0.1290  0.0391
12306TIP3    H158409   2.770   2.982   0.471  0.8124 -1.4677 -1.1398
12306TIP3    H258410   2.704   3.117   0.452  1.0204 -0.8902  1.9720
12307TIP3   OH258411   6.772   0.176   5.376  0.4483  0.2666  0.0612
12307TIP3    H158412   6.721   0.096   5.367  0.3418  0.4046 -0.5781
12307TIP3    H258413   6.854   0.158   5.329  0.8593  0.1599  0.8078
12308TIP3   OH258414   2.978   4.221  13.370  0.6015 -0.1277  0.1600
12308TIP3    H158415   2.973   4.174  13.453  0.1443 -0.0748  0.1620
12308TIP3    H258416   2.912   4.290  13.377  1.1387  0.3951  0.0784
12309TIP3   OH258417   2.572   1.524  11.018  0.1665  0.3767  0.5288
12309TIP3    H158418   2.487   1.556  10.986  0.5198  1.3041  0.4914
12309TIP3    H258419   2.578   1.434  10.987 -0.9996  0.1665  0.8989
12310TIP3   OH258420   0.774   5.519   1.198  0.5877 -0.3157 -0.0646
12310TIP3    H158421   0.687   5.480   1.189  0.0624 -0.4560  4.2870
12310TIP3    H258422   0.782   5.578   1.124 -3.0892 -0.5603 -0.7593
12311TIP3   OH258423   6.335   1.165  12.396  0.1033  0.4274  0.1612
12311TIP3    H158424   6.253   1.147  12.349 -0.4369 -3.4241  2.3218
12311TIP3    H258425   6.307   1.182  12.486  1.4339  3.1611  0.0796
12312TIP3   OH258426   1.193   1.000   3.776  0.4506 -0.1449  0.1015
12312TIP3    H158427   1.187   1.093   3.800 -0.1972 -0.2413  0.3286
12312TIP3    H258428   1.284   0.976   3.794  0.1862  0.0033  1.6749
12313TIP3   OH258429   1.779   3.826  13.686 -0.5311 -0.3868  0.6029
12313TIP3    H158430   1.761   3.906  13.734 -2.1266  0.2465 -0.9911
12313TIP3    H258431   1.693   3.794  13.658  0.1844 -1.9162  0.0534
12314TIP3   OH258432   4.688   2.128  14.382  0.5521 -0.2542  0.8246
12314TIP3    H158433   4.668   2.214  14.420 -1.5420  0.0467 -0.8628
12314TIP3    H258434   4.749   2.147  14.311 -0.3965 -0.0485  0.0451
12315TIP3   OH258435   1.947   1.256  16.518 -0.1433  0.2490 -0.5596
12315TIP3    H158436   1.912   1.269  16.606  1.5406  0.9211  0.0279
12315TIP3    H258437   2.033   1.217  16.532  0.8212  1.8612 -1.8625
12316TIP3   OH258438   6.525   6.707   1.390  0.5095  0.0629  0.3136
12316TIP3    H158439   6.522   6.771   1.319 -0.3103 -0.8846 -0.5112
12316TIP3    H258440   6.433   6.683   1.404  0.8919 -1.6424 -0.0178
12317TIP3   OH258441   5.829   4.512   4.014 -0.4892 -0.6433 -0.0113
12317TIP3    H158442   5.801   4.463   3.936 -2.9941  1.3182 -0.3964
12317TIP3    H258443   5.800   4.602   3.998  0.1169  0.0696  2.6346
12318TIP3   OH258444   5.009   5.829  13.582  0.4161 -0.6768 -0.0728
12318TIP3    H158445   4.992   5.921  13.560 -0.7508 -0.7061  0.6621
12318TIP3    H258446   5.021   5.829  13.677 -1.9045 -1.6226  0.2384
12319TIP3   OH258447   2.434   2.899  12.464  0.7412 -0.6355  0.4887
12319TIP3    H158448   2.508   2.843  12.487  0.4829  0.1260  3.2496
12319TIP3    H258449   2.357   2.845  12.481  0.5648 -0.2674  0.8577
12320TIP3   OH258450   0.779   4.968  16.580 -0.1270  0.1554 -0.0873
12320TIP3    H158451   0.849   5.000  16.636  1.2010  1.6591 -2.4748
12320TIP3    H258452   0.825   4.937  16.501 -1.9054 -2.0352 -0.2996
12321TIP3   OH258453   1.284   2.454   2.454  0.3458 -0.1139  0.0915
12321TIP3    H158454   1.225   2.395   2.407  0.1058  0.3099 -0.1456
12321TIP3    H258455   1.231   2.487   2.527  0.9508 -1.3450  1.0969
12322TIP3   OH258456   4.723   1.962  16.995  0.1918 -0.6694 -0.0755
12322TIP3    H158457   4.721   1.990  16.903  2.5543 -1.0140 -0.2601
12322TIP3    H258458   4.758   2.038  17.042  0.0969 -0.9104  0.3889
12323TIP3   OH258459   2.677   0.331  14.033 -0.2212 -0.0894 -0.0526
12323TIP3    H158460   2.755   0.316  13.979  0.7322  0.0248  1.2613
12323TIP3    H258461   2.625   0.252  14.023 -0.8456  0.5642 -2.4003
12324TIP3   OH258462   0.190   4.240   0.873 -0.5945  0.0307  1.0607
12324TIP3    H158463   0.193   4.329   0.908  0.0799 -0.2446  1.7400
12324TIP3    H258464   0.142   4.190   0.940  1.1686 -0.6154  1.8751
12325TIP3   OH258465   4.670   6.791   3.513  0.1574  0.0975  0.0563
12325TIP3    H158466   4.645   6.699   3.520  1.9861 -0.4898 -0.7348
12325TIP3    H258467   4.615   6.836   3.577 -1.9735 -1.2784 -0.7641
12326TIP3   OH258468   5.961   5.705  14.576 -0.3757 -0.2108  0.4816
12326TIP3    H158469   5.916   5.734  14.655 -1.8011 -2.4102  0.5326
12326TIP3    H258470   6.051   5.734  14.587 -0.4729 -0.8055  3.0707
12327TIP3   OH258471   0.223   4.100  15.403 -0.0439  0.1315 -0.4309
12327TIP3    H158472   0.256   4.141  15.482  0.0843  1.1186 -0.9834
12327TIP3    H258473   0.244   4.007  15.413  4.1360  0.8600 -1.3185
12328TIP3   OH258474   2.629   4.109  15.872 -0.3689  0.0304  0.1391
12328TIP3    H158475   2.626   4.039  15.937  0.0398  0.2192  0.3623
12328TIP3    H258476   2.638   4.063  15.788  0.3843 -0.1704  0.3270
12329TIP3   OH258477   4.049   5.768   1.789 -0.3510 -0.0574 -0.3614
12329TIP3    H158478   4.126   5.720   1.759  1.5738  1.8204  1.4445
12329TIP3    H258479   4.023   5.822   1.714 -1.7893 -2.8530 -1.9874
12330TIP3   OH258480   0.984   1.283   0.546 -0.3387  0.2807 -0.2008
12330TIP3    H158481   1.056   1.307   0.604 -0.0892 -0.2904 -0.2612
12330TIP3    H258482   0.932   1.221   0.597 -0.2981  0.0231 -0.4710
12331TIP3   OH258483   5.067   5.602   0.631  0.3265  0.8123 -0.5490
12331TIP3    H158484   5.157   5.571   0.617  0.2616  0.0796  0.5918
12331TIP3    H258485   5.078   5.691   0.666  0.6937 -0.1322  1.8135
12332TIP3   OH258486   3.386   6.801   6.659 -0.2085 -0.2486  1.2532
12332TIP3    H158487   3.314   6.747   6.627  0.0683  1.5869 -2.8475
12332TIP3    H258488   3.465   6.748   6.646 -0.4201 -0.7056  1.8556
12333TIP3   OH258489   5.711   4.402  12.120 -0.6063 -0.3018 -0.2713
12333TIP3    H158490   5.628   4.447  12.136 -0.7801 -0.5521 -0.4509
12333TIP3    H258491   5.703   4.371  12.029 -0.4793 -0.6718 -0.1538
12334TIP3   OH258492   4.103   4.750   1.536 -0.2848  0.2707  0.1863
12334TIP3    H158493   4.083   4.665   1.574  1.3519 -0.4830 -0.6214
12334TIP3    H258494   4.017   4.789   1.519 -1.0486 -0.4357  2.2463
12335TIP3   OH258495   1.611   1.016  12.360 -0.2508  0.1373 -0.0475
12335TIP3    H158496   1.678   1.058  12.413  1.0152  2.2219 -3.1486
12335TIP3    H258497   1.646   0.928  12.343  1.3552  0.9190 -0.9177
12336TIP3   OH258498   2.815   2.769   3.742 -0.0069 -0.1676  0.4251
12336TIP3    H158499   2.735   2.721   3.760 -0.3288  0.2794  0.1991
12336TIP3    H258500   2.792   2.830   3.671  0.6196 -0.2745  0.1182
12337TIP3   OH258501   6.513   0.155  14.664  0.1424  0.3660  0.0474
12337TIP3    H158502   6.548   0.114  14.584 -0.6361 -0.0077 -0.1073
12337TIP3    H258503   6.553   0.106  14.736  0.4418  0.3637 -0.1214
12338TIP3   OH258504   2.689   3.754   5.303 -0.0577 -0.2390  0.2341
12338TIP3    H158505   2.626   3.764   5.231 -0.4023  0.2843  0.6002
12338TIP3    H258506   2.755   3.695   5.269 -0.1229  0.1448 -0.5810
12339TIP3   OH258507   3.165   4.169   6.385  0.0348  0.4938 -0.1657
12339TIP3    H158508   3.246   4.212   6.411  1.1427 -0.7742 -1.4104
12339TIP3    H258509   3.110   4.171   6.463  0.9808  2.0252  0.4726
12340TIP3   OH258510   1.138   1.763  10.680 -0.0815  0.1519  0.5805
12340TIP3    H158511   1.131   1.710  10.600  1.5704  1.2718 -0.3279
12340TIP3    H258512   1.047   1.783  10.703 -0.6137 -0.7771 -0.6160
12341TIP3   OH258513   3.470   1.307  12.827  0.8933  0.1852  0.3302
12341TIP3    H158514   3.547   1.263  12.862  0.1135 -0.2331  1.5689
12341TIP3    H258515   3.397   1.249  12.849 -0.0979  1.8386  1.5939
12342TIP3   OH258516   4.337   4.846   3.582 -0.2649  0.8055 -0.7200
12342TIP3    H158517   4.254   4.875   3.619 -0.9980 -1.5070 -0.4889
12342TIP3    H258518   4.319   4.831   3.489  0.2093  1.4258 -0.9209
12343TIP3   OH258519   2.451   4.837   1.535 -0.0757 -0.5922 -0.1262
12343TIP3    H158520   2.526   4.894   1.518  0.0189 -0.8110 -0.4451
12343TIP3    H258521   2.473   4.791   1.616 -0.6194  0.6109  0.7201
12344TIP3   OH258522   1.624   5.909  11.964 -0.4668 -0.1756  0.5483
12344TIP3    H158523   1.615   5.968  11.889 -0.6040 -0.1021  0.6229
12344TIP3    H258524   1.555   5.843  11.951 -0.4904 -0.1629  0.6115
12345TIP3   OH258525   3.355   1.555  15.139 -0.0464  0.1559 -0.8517
12345TIP3    H158526   3.264   1.562  15.167 -0.0096  0.2089 -0.7438
12345TIP3    H258527   3.368   1.461  15.126  0.6475 -0.1475  1.7458
12346TIP3   OH258528   3.162   1.563   2.594 -0.1694  0.2104  0.0163
12346TIP3    H158529   3.186   1.490   2.652  0.5395  0.0372 -0.4862
12346TIP3    H258530   3.154   1.524   2.508 -0.7145  0.5638 -0.0926
12347TIP3   OH258531   3.809   2.723  11.995 -0.2967 -0.4121  0.2141
12347TIP3    H158532   3.762   2.804  12.014  0.5487  0.1672 -0.1147
12347TIP3    H258533   3.800   2.670  12.074 -0.3641  0.2423  0.6434
12348TIP3   OH258534   3.071   2.836   0.417  0.5986  0.4405 -0.1459
12348TIP3    H158535   2.987   2.847   0.372 -0.0773 -1.9153  0.4894
12348TIP3    H258536   3.071   2.906   0.483 -2.1420 -1.2002  1.6925
12349TIP3   OH258537   3.374   0.380  16.534  0.0270  0.3370  0.1826
12349TIP3    H158538   3.400   0.347  16.448  0.6157  0.4976  0.2975
12349TIP3    H258539   3.330   0.463  16.516  0.0389  0.3108  0.0299
12350TIP3   OH258540   4.035   4.258  15.895  0.5591  0.6132  0.1772
12350TIP3    H158541   3.954   4.308  15.910  0.3718  0.6226 -0.8236
12350TIP3    H258542   4.044   4.256  15.799  0.7604 -0.9565  0.2218
12351TIP3   OH258543   4.865   0.870   2.032  0.2791 -0.3610  0.5637
12351TIP3    H158544   4.796   0.894   2.094 -0.5405 -1.0776 -0.0560
12351TIP3    H258545   4.853   0.776   2.019  0.2423 -0.1622 -0.9242
12352TIP3   OH258546   6.549   0.566   1.559  0.2833 -0.0438  0.2645
12352TIP3    H158547   6.587   0.614   1.484 -0.3086 -2.4370 -1.6298
12352TIP3    H258548   6.625   0.540   1.611  0.8148  0.4829 -0.2366
12353TIP3   OH258549   0.242   1.719   3.804  0.1474  0.2288  0.6409
12353TIP3    H158550   0.231   1.653   3.735 -1.7168  0.1827  0.9437
12353TIP3    H258551   0.192   1.685   3.878 -0.2945  1.6581  1.0264
12354TIP3   OH258552   1.010   5.203  12.938  0.0931  0.1534  0.3454
12354TIP3    H158553   1.097   5.203  12.976  0.4440 -2.5259 -0.3734
12354TIP3    H258554   0.952   5.181  13.010  0.0281  1.4580  0.7129
12355TIP3   OH258555   1.795   2.096  10.925 -0.0486 -0.1287  0.1619
12355TIP3    H158556   1.864   2.109  10.860  0.2408  0.1292  0.5217
12355TIP3    H258557   1.797   2.003  10.943 -0.2713 -0.2396 -0.3530
12356TIP3   OH258558   1.858   0.989   4.762 -0.4599  0.0781  0.2806
12356TIP3    H158559   1.842   1.000   4.668  0.8006 -1.2632 -0.1137
12356TIP3    H258560   1.773   1.005   4.803 -1.1559  0.0961 -1.1389
12357TIP3   OH258561   0.958   5.009   0.149 -0.5543  0.0340  0.1593
12357TIP3    H158562   0.952   5.005   0.053 -0.8991  0.6943  0.1549
12357TIP3    H258563   0.874   4.975   0.179 -0.1769 -0.8374  0.2400
12358TIP3   OH258564   1.645   3.496   2.473 -0.5303 -0.9170  0.0464
12358TIP3    H158565   1.558   3.479   2.511 -0.7752  1.2407  0.5171
12358TIP3    H258566   1.633   3.575   2.421  1.3087 -0.2179  0.6510
12359TIP3   OH258567   2.021   3.957  17.077 -0.4346 -0.3903  0.0353
12359TIP3    H158568   1.994   3.968  16.986  1.2613 -1.3124 -0.5897
12359TIP3    H258569   2.015   3.863  17.093  0.2856 -0.3542  0.5552
12360TIP3   OH258570   0.962   1.563  11.353  0.0217  0.0174 -1.0428
12360TIP3    H158571   1.041   1.541  11.304  0.5964 -0.5485  0.1135
12360TIP3    H258572   0.938   1.481  11.398 -0.3287  0.5898 -0.1721
12361TIP3   OH258573   2.677   3.568  14.322 -0.1467 -0.0933  0.5083
12361TIP3    H158574   2.653   3.660  14.335  1.5070  0.1974  1.5873
12361TIP3    H258575   2.596   3.526  14.291 -0.8666  1.7501 -0.1541
12362TIP3   OH258576   5.733   0.511  11.492 -0.3934  0.3191  0.4716
12362TIP3    H158577   5.643   0.485  11.512 -0.6194  0.8346  0.1463
12362TIP3    H258578   5.727   0.555  11.407 -0.2373  2.5488  1.5640
12363TIP3   OH258579   0.660   5.694   2.945 -0.1024 -0.3321  0.6981
12363TIP3    H158580   0.661   5.700   3.040 -0.6845 -2.1332  0.8491
12363TIP3    H258581   0.749   5.718   2.918 -0.3902  1.7713  1.5611
12364TIP3   OH258582   1.628   0.917  13.351 -0.0793  0.3813 -0.1467
12364TIP3    H158583   1.630   0.925  13.447  0.9381  2.5669 -0.3245
12364TIP3    H258584   1.541   0.950  13.327 -0.3289 -0.1509  0.0065
12365TIP3   OH258585   5.074   2.731  11.455 -0.0991  0.1534 -0.2539
12365TIP3    H158586   5.037   2.748  11.368 -0.2529  0.0028 -0.2172
12365TIP3    H258587   5.112   2.815  11.481 -1.3671  0.6111  0.1627
12366TIP3   OH258588   0.114   5.440  16.352 -0.7562 -0.4151 -0.0912
12366TIP3    H158589   0.177   5.372  16.375 -1.4656 -0.4614  1.8565
12366TIP3    H258590   0.049   5.396  16.298  0.3801 -0.5721 -1.3573
12367TIP3   OH258591   3.897   4.427  13.504 -0.2573  0.1009  0.5594
12367TIP3    H158592   3.822   4.368  13.516 -0.6623  0.1080 -1.6377
12367TIP3    H258593   3.954   4.409  13.579 -1.5220 -1.3312  1.2171
12368TIP3   OH258594   2.393   5.964  13.903  0.1091  0.8775  0.2054
12368TIP3    H158595   2.334   6.034  13.875 -2.7975 -0.7994  1.8725
12368TIP3    H258596   2.457   6.007  13.960 -1.6032  2.2207  1.1674
12369TIP3   OH258597   4.465   4.788   0.757 -0.0773  0.2863  0.3351
12369TIP3    H158598   4.489   4.788   0.664 -1.2400 -0.1004  0.0122
12369TIP3    H258599   4.548   4.784   0.804  0.5670  1.5285 -0.6704
12370TIP3   OH258600   5.941   0.702  16.217 -0.2390 -0.5241  0.1023
12370TIP3    H158601   5.965   0.749  16.137  1.1153 -0.2674  0.6550
12370TIP3    H258602   5.944   0.609  16.192  0.4489 -0.4557 -0.0640
12371TIP3   OH258603   1.137   6.521   1.426  0.0054  0.8439 -0.4605
12371TIP3    H158604   1.177   6.476   1.500  0.8845  1.4536 -0.5542
12371TIP3    H258605   1.178   6.482   1.349  0.6110  1.6478 -0.5474
12372TIP3   OH258606   6.192   1.802   3.350  0.0909  0.1339  0.5730
12372TIP3    H158607   6.241   1.795   3.432  0.5031 -1.5342  0.1973
12372TIP3    H258608   6.101   1.789   3.376  0.3602 -1.9184  0.5902
12373TIP3   OH258609   0.920   2.991   4.615  0.1084  0.3164 -0.4968
12373TIP3    H158610   0.828   2.983   4.588  0.3281  0.3896 -1.2931
12373TIP3    H258611   0.919   3.056   4.684 -0.5171 -0.1011 -0.1031
12374TIP3   OH258612   1.039   2.315  15.550  0.3471  0.8072  0.6365
12374TIP3    H158613   1.024   2.395  15.600 -1.0665  1.2341 -0.4426
12374TIP3    H258614   1.126   2.286  15.576  0.8171  2.6261  1.1165
12375TIP3   OH258615   4.693   3.724   1.541  0.3242 -0.1999 -0.3679
12375TIP3    H158616   4.639   3.646   1.551 -0.8532  0.4402 -1.5153
12375TIP3    H258617   4.702   3.759   1.629 -0.1058 -0.9935 -0.0032
12376TIP3   OH258618   5.592   2.621  10.815  0.4268  0.0140 -0.2547
12376TIP3    H158619   5.605   2.534  10.853 -0.9661 -0.5021 -0.9431
12376TIP3    H258620   5.501   2.642  10.833 -0.1394 -0.0181 -2.8303
12377TIP3   OH258621   6.486   4.012   1.620 -0.0696 -0.3702  0.0211
12377TIP3    H158622   6.562   4.017   1.561  0.5522  0.1240  0.8554
12377TIP3    H258623   6.515   3.955   1.691 -0.6185 -0.4906  0.1476
12378TIP3   OH258624   4.502   2.762  12.847  0.1457 -0.6885  0.0393
12378TIP3    H158625   4.536   2.674  12.865 -0.8102 -0.7214  1.8473
12378TIP3    H258626   4.409   2.756  12.868 -0.5005  0.0439 -2.4973
12379TIP3   OH258627   4.496   3.928  12.828 -0.2170 -0.1066 -0.0305
12379TIP3    H158628   4.441   4.004  12.811 -1.5981 -0.8152  1.0873
12379TIP3    H258629   4.474   3.903  12.918  0.7657 -1.3602 -0.1251
12380TIP3   OH258630   0.373   5.983   0.422  0.0559  0.3781 -0.6018
12380TIP3    H158631   0.346   6.035   0.498 -0.7002  0.0222 -0.6196
12380TIP3    H258632   0.346   6.034   0.346 -0.8485 -0.1134 -0.6185
12381TIP3   OH258633   3.963   3.105  11.077  0.2953 -0.2731 -0.0158
12381TIP3    H158634   3.885   3.153  11.105  0.1435 -0.9725  0.7450
12381TIP3    H258635   4.011   3.087  11.157  0.5801 -1.0092 -0.3490
12382TIP3   OH258636   6.734   6.252  11.509 -0.1867  0.3469 -0.0109
12382TIP3    H158637   6.659   6.275  11.454 -0.8554  0.5692  0.9800
12382TIP3    H258638   6.700   6.187  11.570  0.1846  1.0989  1.0157
12383TIP3   OH258639   4.675   3.369  13.913 -0.0931  0.0705 -0.1133
12383TIP3    H158640   4.701   3.299  13.972  1.7354  0.8608  0.0484
12383TIP3    H258641   4.726   3.354  13.834 -0.2104  0.8316 -0.3355
12384TIP3   OH258642   5.364   6.586  12.697 -0.1373  0.5386  0.1523
12384TIP3    H158643   5.405   6.503  12.675 -2.1911 -0.2328 -0.9191
12384TIP3    H258644   5.299   6.564  12.764  0.2037  1.5077  0.8277
12385TIP3   OH258645   1.698   0.065   4.054 -0.3797 -0.5860 -0.0054
12385TIP3    H158646   1.652  -0.014   4.081  1.3924 -1.4964  0.4210
12385TIP3    H258647   1.777   0.033   4.009  0.0096  0.9314 -0.4553
12386TIP3   OH258648   5.208   6.474  16.364 -0.3556  0.1960 -0.2055
12386TIP3    H158649   5.202   6.567  16.344 -0.3789  0.3297  0.4153
12386TIP3    H258650   5.184   6.430  16.282  0.9370  0.7310 -0.8920
12387TIP3   OH258651   0.040   4.039  12.995  0.3441  0.4145  0.2724
12387TIP3    H158652   0.122   4.025  13.042  0.2877  1.2275  0.6217
12387TIP3    H258653  -0.018   4.081  13.059  0.8606  3.2053 -1.0053
12388TIP3   OH258654   3.406   5.910  16.893 -0.2820  0.3436 -0.3355
12388TIP3    H158655   3.481   5.945  16.943  0.1044  0.3057 -0.8855
12388TIP3    H258656   3.334   5.909  16.956  0.4527 -0.6308  0.5010
12389TIP3   OH258657   2.455   4.909  13.037  0.0614 -0.5934  0.3123
12389TIP3    H158658   2.369   4.908  13.080 -0.0630 -1.1098  0.0529
12389TIP3    H258659   2.445   4.973  12.966  0.4702  0.7682  1.4511
12390TIP3   OH258660   6.055   4.795  13.408  0.2460  0.3471  0.4152
12390TIP3    H158661   6.070   4.848  13.485 -0.0042 -0.5563  1.0957
12390TIP3    H258662   6.046   4.706  13.441 -1.4071  0.1569 -0.4773
12391TIP3   OH258663   3.913   3.184   2.552  0.7654  0.0568 -0.2472
12391TIP3    H158664   3.886   3.202   2.642  0.5994  1.7275 -0.6142
12391TIP3    H258665   4.009   3.179   2.556  0.7316 -0.3655  0.0996
12392TIP3   OH258666   4.699   2.087   0.659  0.6897 -0.3504 -0.4323
12392TIP3    H158667   4.711   2.124   0.571  0.9898  0.4791 -0.0425
12392TIP3    H258668   4.631   2.021   0.648 -1.1271  1.5273 -0.7984
12393TIP3   OH258669   6.272   0.448   5.763 -0.1145  0.0986  0.2623
12393TIP3    H158670   6.219   0.487   5.694 -0.7418  0.0268  0.6939
12393TIP3    H258671   6.356   0.493   5.759 -0.1880  0.1590 -0.4773
12394TIP3   OH258672   5.077   2.856  14.714  0.1819  0.4554  0.0859
12394TIP3    H158673   5.015   2.865  14.642 -0.6846 -0.6097  0.6819
12394TIP3    H258674   5.037   2.905  14.786  0.6809  0.8901  0.0636
12395TIP3   OH258675   1.444   4.658  15.190 -0.0053  0.2298 -0.5784
12395TIP3    H158676   1.362   4.612  15.208 -0.2117  0.0943 -1.8057
12395TIP3    H258677   1.512   4.592  15.204 -0.0910  0.4001  0.6481
12396TIP3   OH258678   2.558   2.382  15.284  0.1649 -0.3726  0.3047
12396TIP3    H158679   2.531   2.336  15.205 -0.5878  0.6621 -0.0455
12396TIP3    H258680   2.619   2.448  15.253  1.4863 -1.3155  0.8460
12397TIP3   OH258681   6.707   6.294  13.736 -0.3603 -0.6563 -0.4782
12397TIP3    H158682   6.685   6.202  13.749  0.8795 -1.0281 -0.9607
12397TIP3    H258683   6.786   6.308  13.789  0.4371 -0.3120 -1.7287
12398TIP3   OH258684   0.358   0.499   2.187  0.1596 -0.7831 -0.3172
12398TIP3    H158685   0.401   0.582   2.165  0.1205 -1.4845 -3.3118
12398TIP3    H258686   0.417   0.458   2.251  1.3862  0.5046 -0.5874
12399TIP3   OH258687   4.990   5.422  13.666  0.6733  0.6143  0.0009
12399TIP3    H158688   4.956   5.496  13.717  0.2677  1.3126 -1.2622
12399TIP3    H258689   5.077   5.406  13.702  1.0019  2.0995 -0.1133
12400TIP3   OH258690   0.531   2.495  16.939 -0.5558  0.1963 -0.1991
12400TIP3    H158691   0.555   2.586  16.954 -0.8861  0.3517 -0.5971
12400TIP3    H258692   0.524   2.456  17.026  0.6380  0.2779 -0.0556
12401TIP3   OH258693   3.665   1.260  16.872  0.0782  0.2709 -0.0412
12401TIP3    H158694   3.632   1.172  16.888 -0.1123  0.2343 -0.6122
12401TIP3    H258695   3.650   1.275  16.778  2.3371 -0.0217 -0.4879
12402TIP3   OH258696   1.694   1.643   6.796 -0.0725  0.1481 -0.3014
12402TIP3    H158697   1.756   1.693   6.850 -0.0122  2.6693 -2.5620
12402TIP3    H258698   1.737   1.559   6.782  0.8660  0.2354  1.7574
12403TIP3   OH258699   2.697   1.233   0.024  0.0580 -0.2761 -0.1899
12403TIP3    H158700   2.605   1.250   0.002  0.2182  2.0815  0.8004
12403TIP3    H258701   2.737   1.204  -0.057 -0.7380  2.2822 -1.5463
12404TIP3   OH258702   2.864   1.178   2.904 -0.1702 -0.5441  0.1039
12404TIP3    H158703   2.933   1.121   2.870 -0.3440 -1.4121  1.1810
12404TIP3    H258704   2.783   1.130   2.887 -0.5572  0.5410 -1.2988
12405TIP3   OH258705   0.631   6.111  12.400  0.2452  0.5295  0.8157
12405TIP3    H158706   0.613   6.204  12.383  0.1738  0.7111  1.8950
12405TIP3    H258707   0.710   6.111  12.454 -0.7961  0.0446  2.3634
12406TIP3   OH258708   2.191   2.824   0.401 -0.9250 -0.1153  0.2503
12406TIP3    H158709   2.175   2.904   0.451 -0.7992  0.6776 -0.9546
12406TIP3    H258710   2.104   2.784   0.390 -0.9048 -0.4861  1.3988
12407TIP3   OH258711   4.239   6.274  11.397 -0.0857  0.4066  0.6653
12407TIP3    H158712   4.327   6.238  11.389  0.2246  1.3765 -0.2739
12407TIP3    H258713   4.226   6.325  11.318 -1.8033 -0.3835  0.4183
12408TIP3   OH258714   3.061   6.426  13.859  0.1918  0.5631 -0.1240
12408TIP3    H158715   3.143   6.426  13.909 -0.4896 -0.4977  1.0426
12408TIP3    H258716   3.030   6.336  13.865 -1.6592  1.2118  0.4749
12409TIP3   OH258717   0.236   2.680   5.185 -0.0740  0.1306  0.1728
12409TIP3    H158718   0.200   2.766   5.204  0.9257  0.6304 -0.1304
12409TIP3    H258719   0.330   2.690   5.200 -0.0819 -1.2125  1.2367
12410TIP3   OH258720   3.061   4.647   5.243  0.4334  0.2068  0.7434
12410TIP3    H158721   2.969   4.673   5.243 -0.0097 -1.2770 -0.0381
12410TIP3    H258722   3.059   4.554   5.268  1.5365 -0.3836 -1.2604
12411TIP3   OH258723   5.178   2.476   2.151  0.1144  0.2077 -0.2056
12411TIP3    H158724   5.217   2.563   2.143  1.1096 -0.0922  1.2896
12411TIP3    H258725   5.201   2.447   2.239  0.4012 -1.8622 -0.9389
12412TIP3   OH258726   6.417   2.079   0.282  0.0187 -0.2395 -0.0478
12412TIP3    H158727   6.459   2.061   0.367 -0.2801  2.0335  0.5951
12412TIP3    H258728   6.338   2.026   0.283  0.3615 -0.7500  0.8054
12413TIP3   OH258729   2.191   4.930  13.086 -0.0382  0.7132 -0.0739
12413TIP3    H158730   2.137   4.850  13.083  0.0976  0.6078  0.2989
12413TIP3    H258731   2.145   4.991  13.029 -0.0864  0.3323 -0.4523
12414TIP3   OH258732   6.263   5.031   2.130  0.1283 -0.1744  0.0256
12414TIP3    H158733   6.202   5.041   2.203 -0.7829  0.1321 -0.7658
12414TIP3    H258734   6.301   5.118   2.118 -0.6367  0.0791 -0.6435
12415TIP3   OH258735   1.767   0.300   1.770  0.6039  0.0008 -0.2526
12415TIP3    H158736   1.725   0.385   1.775  0.2920 -0.0319 -1.9694
12415TIP3    H258737   1.809   0.288   1.855 -2.1759  0.3786  1.2057
12416TIP3   OH258738   0.288   5.667  13.059  0.1483  0.3121 -0.4212
12416TIP3    H158739   0.308   5.690  12.969  0.0936  1.2683 -0.1907
12416TIP3    H258740   0.262   5.749  13.100 -0.3287 -0.2103  0.3332
12417TIP3   OH258741   4.352   5.467  10.443  0.6315  0.0364 -0.1934
12417TIP3    H158742   4.334   5.539  10.383 -0.0983  0.2521  0.2784
12417TIP3    H258743   4.283   5.473  10.509  1.2616 -0.3752  0.5071
12418TIP3   OH258744   4.108   1.061  12.441 -0.2549 -0.1096  0.2385
12418TIP3    H158745   4.046   1.134  12.432  0.6183  0.9185  2.1689
12418TIP3    H258746   4.176   1.079  12.376 -0.0329  0.8224  0.7187
12419TIP3   OH258747   4.617   6.042  15.687  0.5040 -0.1430 -0.1108
12419TIP3    H158748   4.681   6.094  15.638  0.6218  0.7646  0.9869
12419TIP3    H258749   4.621   5.955  15.647  1.5471  0.2321 -0.8380
12420TIP3   OH258750   1.606   6.175  11.762  0.5952 -0.0964 -0.3918
12420TIP3    H158751   1.626   6.086  11.731 -1.6747 -0.5204 -0.6962
12420TIP3    H258752   1.681   6.227  11.733  0.9839 -1.5118 -2.0380
12421TIP3   OH258753   3.457   6.066  13.561  0.4443 -0.1272 -0.4295
12421TIP3    H158754   3.509   6.054  13.641  0.7012  1.8903 -0.2656
12421TIP3    H258755   3.476   5.988  13.509  2.7047 -0.0237  0.1643
12422TIP3   OH258756   6.620   2.396  15.315  0.2820 -0.2022 -0.2839
12422TIP3    H158757   6.660   2.310  15.327 -2.3858 -1.5137 -0.3264
12422TIP3    H258758   6.636   2.417  15.223  1.7491 -0.1995 -0.0425
12423TIP3   OH258759   0.342   1.750   0.419 -0.2134 -0.4085 -0.1639
12423TIP3    H158760   0.289   1.698   0.480  0.1574 -0.2689  0.2887
12423TIP3    H258761   0.367   1.827   0.470  1.9399 -1.3403  0.2626
12424TIP3   OH258762   4.177   5.585   3.333  0.0372 -0.3123 -1.0485
12424TIP3    H158763   4.240   5.655   3.353 -0.0617 -0.8443  1.3032
12424TIP3    H258764   4.138   5.564   3.417 -2.7912 -0.5220 -2.3785
12425TIP3   OH258765   4.544   6.610   2.911 -0.0402  0.3366  0.0628
12425TIP3    H158766   4.575   6.595   2.822 -0.8798  0.5248 -0.2581
12425TIP3    H258767   4.553   6.525   2.954  0.5019  0.2823 -0.1561
12426TIP3   OH258768   2.181   0.124  13.723 -0.7711  0.0239  1.0570
12426TIP3    H158769   2.147   0.213  13.719 -0.3621  0.1447 -0.1489
12426TIP3    H258770   2.276   0.135  13.735 -0.7762 -0.2452  1.3351
12427TIP3   OH258771   4.740   4.244   3.509  0.1317 -0.1428  0.1239
12427TIP3    H158772   4.739   4.241   3.413  2.4944 -0.5361  0.1005
12427TIP3    H258773   4.811   4.304   3.531  0.7339 -1.3726  1.6457
12428TIP3   OH258774   4.448   4.289  16.046  0.0626  0.1493  0.0262
12428TIP3    H158775   4.480   4.328  16.127  1.7366  0.6778 -0.8631
12428TIP3    H258776   4.404   4.208  16.073  0.9034  0.1508  1.4195
12429TIP3   OH258777   6.057   3.430  10.471 -0.4052  0.0769 -0.0202
12429TIP3    H158778   6.102   3.356  10.512  0.6974  1.0386  0.5277
12429TIP3    H258779   6.102   3.507  10.504 -1.9501  1.0344 -0.1156
12430TIP3   OH258780   3.641   2.911   4.962 -0.3804 -0.3031 -0.1725
12430TIP3    H158781   3.714   2.968   4.941  0.0302 -0.2956  1.2023
12430TIP3    H258782   3.624   2.928   5.055 -4.1440  2.0030 -1.1854
12431TIP3   OH258783   4.266   6.430   6.566 -0.8552  0.7336 -0.0375
12431TIP3    H158784   4.271   6.510   6.617 -0.5975  1.0170 -0.5048
12431TIP3    H258785   4.354   6.420   6.528 -0.7659  0.0165  0.3470
12432TIP3   OH258786   1.839   0.115  15.323  0.2364 -0.5564 -0.6067
12432TIP3    H158787   1.814   0.160  15.404  3.1880  0.2119 -0.0374
12432TIP3    H258788   1.757   0.100  15.277 -1.3457  0.4649  1.7830
12433TIP3   OH258789   1.900   2.879  12.746  1.1673  0.1042  0.3300
12433TIP3    H158790   1.963   2.937  12.701  1.8706  0.0059  1.1616
12433TIP3    H258791   1.912   2.794  12.704  1.5051  0.1197  0.3865
12434TIP3   OH258792   1.515   5.495   2.594  0.4905  0.2092 -0.0752
12434TIP3    H158793   1.466   5.514   2.514 -2.1630 -0.6569  1.2895
12434TIP3    H258794   1.558   5.411   2.576  0.6565  0.4656 -0.9090
12435TIP3   OH258795   1.201   4.886  13.576  0.0836  0.4828 -0.1510
12435TIP3    H158796   1.242   4.848  13.654  1.4859 -0.3237 -1.2414
12435TIP3    H258797   1.114   4.845  13.572 -0.2178  0.9619  1.2824
12436TIP3   OH258798   2.679   6.053   0.979  0.5860 -0.4184  0.2147
12436TIP3    H158799   2.647   6.130   1.025  2.2701  2.1103 -2.6354
12436TIP3    H258800   2.615   6.038   0.910  0.8571 -0.8694  0.0590
12437TIP3   OH258801   2.759   1.227  15.842  0.1114  0.9803  0.1241
12437TIP3    H158802   2.733   1.319  15.831  0.9863  1.0793 -1.1036
12437TIP3    H258803   2.847   1.231  15.879  1.1784  0.6446 -2.3258
12438TIP3   OH258804   4.672   5.231   5.421 -0.2989 -0.7924  0.1015
12438TIP3    H158805   4.723   5.214   5.341  0.2143  1.9713 -0.1890
12438TIP3    H258806   4.631   5.147   5.441  1.3672 -2.0991 -1.8034
12439TIP3   OH258807   5.211   1.706  15.883 -0.3852 -0.5339 -0.2102
12439TIP3    H158808   5.238   1.751  15.804 -2.1908 -0.3887 -0.7667
12439TIP3    H258809   5.285   1.714  15.943  0.2713  0.9500 -1.2217
12440TIP3   OH258810   5.613   5.662  16.838 -0.9291  0.1498  0.7832
12440TIP3    H158811   5.643   5.752  16.844 -1.0603  0.1053  2.3575
12440TIP3    H258812   5.578   5.654  16.749  1.4670  0.8697 -0.2641
12441TIP3   OH258813   6.757   4.753  14.730 -0.4437 -0.4988  0.3387
12441TIP3    H158814   6.741   4.811  14.655  1.1181 -1.0452 -0.4289
12441TIP3    H258815   6.797   4.810  14.796 -1.7884 -0.0258  0.7797
12442TIP3   OH258816   2.446   1.014   3.741 -0.7220 -0.6075  0.1647
12442TIP3    H158817   2.484   1.043   3.658 -0.8303 -1.3061 -0.1353
12442TIP3    H258818   2.352   1.029   3.732 -0.5598  0.9730  0.8481
12443TIP3   OH258819   4.966   5.580   1.780  0.2818  0.0307 -0.5059
12443TIP3    H158820   5.034   5.603   1.843  0.3534 -1.2175 -0.0971
12443TIP3    H258821   4.886   5.575   1.833  0.3634 -1.1440 -0.4702
12444TIP3   OH258822   4.078   3.616  12.755  0.0217 -0.2409 -0.3790
12444TIP3    H158823   4.011   3.581  12.696 -0.8164 -1.1947  1.1176
12444TIP3    H258824   4.064   3.711  12.752 -0.6520 -0.3529 -0.9647
12445TIP3   OH258825   5.503   4.659   2.616  0.0712 -0.4457 -0.6034
12445TIP3    H158826   5.464   4.591   2.561 -0.6480  1.2146 -2.2137
12445TIP3    H258827   5.552   4.713   2.554  0.4012  0.6483  0.6126
12446TIP3   OH258828   1.915   3.403  13.721  0.5575 -0.2676 -0.5190
12446TIP3    H158829   1.953   3.481  13.681 -0.1013 -0.8949 -2.3892
12446TIP3    H258830   1.821   3.419  13.721  0.4254 -1.0377 -0.8649
12447TIP3   OH258831   2.909   5.641   1.814  0.1635  0.5124 -0.2808
12447TIP3    H158832   2.946   5.717   1.858  0.6556 -0.3484  0.8098
12447TIP3    H258833   2.839   5.610   1.872  2.7316 -2.3821  1.4528
12448TIP3   OH258834   2.557   1.260   4.511 -0.0611 -0.4213  0.3557
12448TIP3    H158835   2.606   1.237   4.590  0.8946  1.7170  0.4239
12448TIP3    H258836   2.606   1.333   4.473  0.3250 -2.3401 -3.0289
12449TIP3   OH258837   1.861   1.450   3.695  0.0763  0.3536 -0.3708
12449TIP3    H158838   1.910   1.430   3.775  1.4612  2.1762 -0.7358
12449TIP3    H258839   1.814   1.531   3.715 -0.2386  0.3591 -1.1236
12450TIP3   OH258840   3.763   6.439   5.326  0.4596  0.9020  0.5459
12450TIP3    H158841   3.715   6.435   5.243 -0.3830  0.5380  1.0392
12450TIP3    H258842   3.784   6.347   5.346  2.6291  1.1724 -0.3810
12451TIP3   OH258843   2.748   4.867  13.472  0.1986  0.4107 -0.2672
12451TIP3    H158844   2.662   4.863  13.514  0.6584  0.2989  0.6670
12451TIP3    H258845   2.730   4.905  13.386 -0.6811  1.1424  0.2230
12452TIP3   OH258846   6.240   4.270  14.991 -0.3371  0.4197  0.0769
12452TIP3    H158847   6.290   4.220  14.927  0.5911  0.8417  0.4716
12452TIP3    H258848   6.265   4.233  15.076 -0.2239  1.0357  0.3163
12453TIP3   OH258849   0.383   5.270  13.410 -0.5344  0.3348 -0.8795
12453TIP3    H158850   0.472   5.294  13.384  0.7042  0.2623  3.0268
12453TIP3    H258851   0.328   5.302  13.338  2.5893  0.4486 -3.3379
12454TIP3   OH258852   0.376   5.570  16.334  0.8150 -0.3480 -0.1578
12454TIP3    H158853   0.419   5.584  16.419 -1.4448  2.1697  0.6373
12454TIP3    H258854   0.289   5.537  16.357 -0.1629  1.2656 -1.3929
12455TIP3   OH258855   1.147   2.300  12.447  0.4999 -0.5220 -0.0012
12455TIP3    H158856   1.073   2.354  12.422 -0.2323 -1.5224 -0.0402
12455TIP3    H258857   1.111   2.211  12.453  1.0366 -0.5995  2.8401
12456TIP3   OH258858   5.705   0.108  13.572  0.4591  0.4025  0.3160
12456TIP3    H158859   5.665   0.035  13.620  1.7400  0.0493  0.8735
12456TIP3    H258860   5.631   0.158  13.538 -0.4629  0.1214  1.8705
12457TIP3   OH258861   5.730   6.020   2.845  0.1668 -0.6029 -0.0197
12457TIP3    H158862   5.794   5.984   2.906 -0.9048 -3.1101 -0.3175
12457TIP3    H258863   5.679   6.082   2.898 -0.7848 -2.7935  1.6839
12458TIP3   OH258864   3.385   6.228  11.781 -0.0646  0.3225  0.2273
12458TIP3    H158865   3.380   6.319  11.808 -0.5437  0.6657 -1.0038
12458TIP3    H258866   3.303   6.189  11.810 -1.3100  1.0962 -2.1950
12459TIP3   OH258867   3.497   1.998   6.432  0.2395 -0.2855  0.6907
12459TIP3    H158868   3.470   2.090   6.433 -2.0724 -0.9186 -0.1132
12459TIP3    H258869   3.592   2.000   6.439  0.2223  2.1834  0.3829
12460TIP3   OH258870   4.801   3.448  16.565 -0.2279  0.0658 -0.0244
12460TIP3    H158871   4.817   3.541  16.548 -0.7999  0.1084 -0.3339
12460TIP3    H258872   4.888   3.407  16.558 -0.1698  0.3696 -1.1956
12461TIP3   OH258873   0.399   1.127   0.669  0.2707 -0.7766 -0.3899
12461TIP3    H158874   0.461   1.057   0.688  0.2455 -0.8629 -0.6155
12461TIP3    H258875   0.436   1.205   0.710 -0.2667 -1.1518  0.8244
12462TIP3   OH258876   4.321   2.186  15.500 -0.1292  0.3015 -0.5375
12462TIP3    H158877   4.396   2.130  15.521 -0.0038  1.5321  2.4851
12462TIP3    H258878   4.245   2.128  15.509  0.2307 -0.1665 -0.4884
12463TIP3   OH258879   1.998   3.735  14.208  0.0368  0.2674  0.2436
12463TIP3    H158880   1.985   3.697  14.121 -0.6486 -0.1461  0.5310
12463TIP3    H258881   1.921   3.710  14.258  0.7745 -0.1433  1.2043
12464TIP3   OH258882   2.492   4.230   1.705  0.3361  0.0729 -0.3241
12464TIP3    H158883   2.522   4.211   1.615  1.3444  1.4327 -0.2892
12464TIP3    H258884   2.426   4.297   1.695  0.3743  0.1510 -0.0545
12465TIP3   OH258885   3.406   3.531  13.875 -0.0914  0.3582  0.4810
12465TIP3    H158886   3.373   3.498  13.958 -1.6946 -0.1283 -0.3275
12465TIP3    H258887   3.330   3.572  13.833  1.0664  2.0132 -0.0573
12466TIP3   OH258888   1.542   0.886  15.396 -0.0152 -0.4576 -0.0939
12466TIP3    H158889   1.613   0.828  15.368  0.8244  0.9189 -0.8627
12466TIP3    H258890   1.514   0.931  15.317  1.0580  2.0387  0.8918
12467TIP3   OH258891   0.786   1.608   5.123  0.0476 -0.1552  0.2112
12467TIP3    H158892   0.704   1.653   5.145  0.2038  0.4835 -0.4869
12467TIP3    H258893   0.855   1.670   5.147  0.2201  0.5495 -2.0214
12468TIP3   OH258894   4.976   0.299   4.719 -0.2039  0.2875 -0.8353
12468TIP3    H158895   5.050   0.359   4.718 -0.8103  1.0390 -2.6960
12468TIP3    H258896   4.960   0.283   4.812  1.5150  1.0623 -0.3778
12469TIP3   OH258897   6.718   6.781  12.391 -0.2063 -0.0916 -0.1612
12469TIP3    H158898   6.676   6.753  12.473  0.9447 -1.1889  0.0670
12469TIP3    H258899   6.783   6.846  12.419 -0.3161  0.0714 -0.2852
12470TIP3   OH258900   4.245   2.692  15.625 -0.6166 -0.2700 -0.1188
12470TIP3    H158901   4.158   2.662  15.650  0.4369 -1.7604  1.8537
12470TIP3    H258902   4.253   2.668  15.532 -1.7937 -1.2857  0.0420
12471TIP3   OH258903   6.158   0.316  11.082 -0.0335  0.7556  0.6906
12471TIP3    H158904   6.064   0.319  11.102  0.1894  1.8106  1.6159
12471TIP3    H258905   6.173   0.227  11.050 -1.2157  0.3676  1.1904
12472TIP3   OH258906   5.049   4.065  16.753 -0.5549 -0.2176 -0.0667
12472TIP3    H158907   4.981   4.030  16.811 -0.2519  0.4953  0.7301
12472TIP3    H258908   5.117   3.998  16.752 -0.4113 -0.0889  0.6788
12473TIP3   OH258909   6.503   0.483   2.437 -0.0782 -0.0381 -0.0167
12473TIP3    H158910   6.509   0.524   2.523  1.7902 -1.4027  0.5411
12473TIP3    H258911   6.551   0.542   2.379  1.0756 -0.5018  0.4449
12474TIP3   OH258912   4.615   5.285  11.227 -0.4700  0.1655 -0.2444
12474TIP3    H158913   4.650   5.357  11.280 -0.1181 -0.2744  0.1216
12474TIP3    H258914   4.687   5.223  11.219 -0.5028  0.2501 -1.2913
12475TIP3   OH258915   6.519   0.843  10.725 -0.9502  0.7113  0.1805
12475TIP3    H158916   6.601   0.807  10.757  0.5683  2.8655 -1.1301
12475TIP3    H258917   6.498   0.914  10.786 -2.2550 -0.3154  0.9450
12476TIP3   OH258918   4.335   5.191   1.105 -0.4401 -0.1210 -0.0369
12476TIP3    H158919   4.359   5.114   1.053  1.3229  1.0390 -0.9698
12476TIP3    H258920   4.246   5.211   1.077 -0.9128 -1.8014  0.1939
12477TIP3   OH258921   5.490   5.520  17.021 -0.2443 -0.1617  0.3659
12477TIP3    H158922   5.529   5.568  16.948 -1.4346 -0.3442 -0.4022
12477TIP3    H258923   5.441   5.585  17.070 -1.9095 -0.5765 -0.7085
12478TIP3   OH258924   3.269   5.590  15.264  0.0594 -0.4620  0.0722
12478TIP3    H158925   3.234   5.501  15.273  0.7729 -0.8689 -1.0710
12478TIP3    H258926   3.210   5.644  15.316  0.8232 -1.9012  2.5312
12479TIP3   OH258927   6.300   4.205  11.366  0.0628 -0.0462 -0.0900
12479TIP3    H158928   6.270   4.143  11.433 -1.9051 -0.1740 -1.0530
12479TIP3    H258929   6.220   4.233  11.322  1.1715  1.3508 -1.2617
12480TIP3   OH258930   5.441   4.512   2.950  0.2935 -0.3920  0.2397
12480TIP3    H158931   5.461   4.537   3.040 -2.5838 -1.5688  1.2455
12480TIP3    H258932   5.399   4.588   2.912  0.8984 -0.1335  0.0751
12481TIP3   OH258933   3.857   1.469  10.505 -0.1880  0.4359 -0.2777
12481TIP3    H158934   3.882   1.470  10.598  0.1394 -2.1897 -0.3024
12481TIP3    H258935   3.937   1.442  10.459 -0.9767 -0.5706 -1.0928
12482TIP3   OH258936   6.206   5.190  15.872 -0.2062 -0.5016  0.5075
12482TIP3    H158937   6.121   5.150  15.892 -0.9300 -0.8022 -2.7572
12482TIP3    H258938   6.191   5.236  15.789  2.9391 -0.9632 -0.3935
12483TIP3   OH258939   0.224   2.539   1.701 -0.1401  0.4342 -0.0405
12483TIP3    H158940   0.280   2.616   1.692  0.9997 -0.4931 -1.1837
12483TIP3    H258941   0.161   2.562   1.769 -0.5512  2.8061 -1.1948
12484TIP3   OH258942   6.616   4.367   4.592  0.3080  0.1989 -0.4918
12484TIP3    H158943   6.561   4.386   4.515  0.1486  1.1696 -0.1356
12484TIP3    H258944   6.559   4.317   4.650  0.2961 -0.1696 -0.8174
12485TIP3   OH258945   2.517   0.040   3.037  0.1558 -0.4001  0.4355
12485TIP3    H158946   2.457   0.099   3.082 -0.4931 -0.7236 -0.0102
12485TIP3    H258947   2.587   0.024   3.101  0.6756  1.3627  0.3355
12486TIP3   OH258948   1.068   5.018  16.477 -0.3817  0.3685 -0.0665
12486TIP3    H158949   1.136   5.008  16.544 -0.9202 -1.0045  0.3024
12486TIP3    H258950   1.053   4.929  16.445 -2.6777  0.5000  0.5429
12487TIP3   OH258951   6.636   6.304  16.967  0.2841  0.0039 -0.1462
12487TIP3    H158952   6.580   6.381  16.963  0.1995 -0.0306  0.3724
12487TIP3    H258953   6.692   6.318  17.043 -0.3180 -0.8416  0.4646
12488TIP3   OH258954   1.031   3.995   4.350 -0.1773  0.1882 -0.3824
12488TIP3    H158955   1.089   4.047   4.294  0.1057 -0.2517 -0.5087
12488TIP3    H258956   0.967   3.958   4.290 -1.7056  2.1390  0.0078
12489TIP3   OH258957   4.986   0.276  12.510  0.0326  0.0427  0.5720
12489TIP3    H158958   5.036   0.238  12.583 -0.1732  0.4494  0.9288
12489TIP3    H258959   4.963   0.201  12.455  0.0883 -0.2836  0.9874
12490TIP3   OH258960   6.626   5.270  13.966 -0.4754  0.1671  0.1446
12490TIP3    H158961   6.709   5.314  13.951 -1.2387  1.3170 -0.8262
12490TIP3    H258962   6.650   5.182  13.996  1.0854  0.2361 -0.8539
12491TIP3   OH258963   1.083   1.116  16.254  0.5445  0.0990  0.3774
12491TIP3    H158964   1.104   1.107  16.347  0.4109 -0.2747  0.3720
12491TIP3    H258965   1.005   1.171  16.252 -0.0449 -0.7301  0.5401
12492TIP3   OH258966   5.303   1.510  12.073  0.1508  0.3781 -0.2905
12492TIP3    H158967   5.348   1.586  12.109 -0.2195 -0.1471  1.3717
12492TIP3    H258968   5.355   1.485  11.997  0.6472  1.8869 -0.4671
12493TIP3   OH258969   5.005   5.724   3.240 -0.2367  0.3454 -0.4838
12493TIP3    H158970   5.089   5.768   3.250 -0.1876 -0.1253  1.3382
12493TIP3    H258971   5.019   5.661   3.170  0.7923  0.5856 -0.4977
12494TIP3   OH258972   4.278   2.359   4.219  0.4813 -0.3577  0.0873
12494TIP3    H158973   4.218   2.385   4.289 -0.6334 -2.7623  0.0657
12494TIP3    H258974   4.325   2.439   4.198 -1.7988  1.3034  1.0235
12495TIP3   OH258975   1.147   2.179   5.436 -0.5173 -0.2873  0.7783
12495TIP3    H158976   1.096   2.256   5.459 -0.7485 -0.4081  0.6679
12495TIP3    H258977   1.105   2.144   5.358 -1.2290 -1.2842  1.5803
12496TIP3   OH258978   1.248   6.251   4.689  0.6249  0.0020  0.2167
12496TIP3    H158979   1.195   6.174   4.708  0.2326  0.4861  1.0986
12496TIP3    H258980   1.245   6.303   4.769  2.7912 -0.1654  0.4330
12497TIP3   OH258981   2.801   5.912  14.694  0.5223  0.0329  0.4592
12497TIP3    H158982   2.726   5.897  14.752 -0.1905  1.8099  0.0331
12497TIP3    H258983   2.818   6.006  14.702  0.3024  0.3514 -2.3172
12498TIP3   OH258984   5.131   2.639   6.378 -0.2791 -0.3412  0.2589
12498TIP3    H158985   5.190   2.584   6.326  0.1227  0.3980 -0.0686
12498TIP3    H258986   5.068   2.577   6.416  0.0677 -1.0065 -0.2432
12499TIP3   OH258987   6.195   3.987   1.701 -0.0654 -0.2419  0.1180
12499TIP3    H158988   6.207   3.908   1.755  0.5860 -0.0133  0.3100
12499TIP3    H258989   6.271   3.988   1.643 -0.5267 -0.2293 -0.4904
12500TIP3   OH258990   2.207   2.642  12.323 -0.3835 -0.0555  0.1357
12500TIP3    H158991   2.235   2.555  12.354 -0.4965 -0.3884 -0.6602
12500TIP3    H258992   2.283   2.674  12.274 -0.9428 -0.4407 -1.0070
12501TIP3   OH258993   6.806   3.653  13.549  0.0649  0.1793 -1.2621
12501TIP3    H158994   6.761   3.687  13.626  1.1885 -1.2536  0.0622
12501TIP3    H258995   6.896   3.684  13.558  0.2835 -0.2795 -1.8249
12502TIP3   OH258996   3.677   6.535  14.032 -0.8793 -0.3973  0.4573
12502TIP3    H158997   3.754   6.551  14.087 -0.6813 -1.1174  0.3884
12502TIP3    H258998   3.603   6.559  14.088 -0.6452 -0.3977  0.7723
12503TIP3   OH258999   4.086   1.473  14.438 -0.1640  0.2169  0.3100
12503TIP3    H159000   4.112   1.383  14.458  1.5213  0.4725 -0.6243
12503TIP3    H259001   4.044   1.467  14.352 -2.0048  0.0260  1.1879
12504TIP3   OH259002   2.935   6.808   5.862  0.3451 -0.1353  0.0260
12504TIP3    H159003   2.872   6.834   5.794  0.1345 -1.1905 -0.1931
12504TIP3    H259004   2.900   6.846   5.942 -1.6802 -2.3651  0.2506
12505TIP3   OH259005   2.587   6.349   1.651 -0.0850  0.2818  0.2785
12505TIP3    H159006   2.644   6.400   1.593 -1.4252  0.7449 -0.6454
12505TIP3    H259007   2.602   6.258   1.624  1.2652  0.2664  1.0014
12506TIP3   OH259008   1.434   6.776  15.395  0.3862  0.3110 -0.0274
12506TIP3    H159009   1.469   6.836  15.461  1.2620  0.8750 -0.9933
12506TIP3    H259010   1.361   6.733  15.439  1.8448 -0.3906  1.8153
12507TIP3   OH259011   0.937   5.228  11.281  0.3725  0.6325 -0.0651
12507TIP3    H159012   0.887   5.196  11.206  2.0032  0.4941 -1.1171
12507TIP3    H259013   1.022   5.252  11.245  0.5178  2.4479  1.4060
12508TIP3   OH259014   3.214   1.901  14.893  0.0549  0.2470  0.2240
12508TIP3    H159015   3.277   1.970  14.876  0.6058 -0.4663 -0.6844
12508TIP3    H259016   3.256   1.821  14.861 -2.2554  0.1136 -2.7670
12509TIP3   OH259017   6.436   6.061   2.806  0.3494  0.0664 -0.5078
12509TIP3    H159018   6.388   6.104   2.736 -2.1890  0.1939  1.2470
12509TIP3    H259019   6.424   6.118   2.882  0.0970 -1.8396  0.9138
12510TIP3   OH259020   1.302   6.689  13.513 -0.0016 -0.1245  0.5249
12510TIP3    H159021   1.250   6.729  13.444 -0.9201  2.7850  2.8020
12510TIP3    H259022   1.239   6.668  13.582  1.4156  1.1716  2.2935
12511TIP3   OH259023   4.512   1.814  14.775 -0.1155 -0.2783  0.1301
12511TIP3    H159024   4.570   1.763  14.832 -0.0017 -0.1853  0.0985
12511TIP3    H259025   4.567   1.840  14.702  0.1682  0.9949  0.7849
12512TIP3   OH259026   4.791   4.671   0.506  0.5514  0.1110 -0.2358
12512TIP3    H159027   4.724   4.669   0.574 -0.0024  1.0447 -0.7559
12512TIP3    H259028   4.742   4.681   0.425  1.1167 -2.2776 -0.9243
12513TIP3   OH259029   2.691   3.996   6.067  0.1840  0.2161  0.0225
12513TIP3    H159030   2.732   3.981   6.152 -0.3146 -1.3596  0.0106
12513TIP3    H259031   2.597   3.984   6.082  0.1243 -0.4458 -0.8135
12514TIP3   OH259032   4.532   1.740  13.926 -0.1414  0.0238  0.5094
12514TIP3    H159033   4.511   1.656  13.886 -2.9354  0.3646  1.1530
12514TIP3    H259034   4.575   1.789  13.857  0.5277 -1.5366 -0.2071
12515TIP3   OH259035   0.832   1.446  14.448  0.3662  1.1216  0.1924
12515TIP3    H159036   0.888   1.403  14.512  0.7098  1.8307  0.3742
12515TIP3    H259037   0.893   1.475  14.380  0.1990  1.7655  0.3194
12516TIP3   OH259038   2.960   0.105  12.524 -0.0115  0.4486  0.2519
12516TIP3    H159039   3.055   0.115  12.523  0.1130 -0.6267 -0.1490
12516TIP3    H259040   2.942   0.048  12.449 -0.9557  0.5468  0.4035
12517TIP3   OH259041   2.195   4.861  15.077 -0.0082  0.0582  0.0690
12517TIP3    H159042   2.195   4.776  15.120 -1.0363  0.7076  1.3643
12517TIP3    H259043   2.271   4.906  15.113 -0.1441  0.1288  0.2682
12518TIP3   OH259044   0.994   1.354   6.411  0.6431 -0.3998  0.0838
12518TIP3    H159045   0.969   1.272   6.455 -1.5205  0.7975  1.2083
12518TIP3    H259046   1.064   1.390   6.465  1.1521 -1.2024 -0.0441
12519TIP3   OH259047   0.274   3.016  15.864 -0.1663  0.2234 -0.2452
12519TIP3    H159048   0.290   3.056  15.779  0.7909  1.6308  0.5781
12519TIP3    H259049   0.303   2.925  15.854 -1.9248 -0.1793 -1.9961
12520TIP3   OH259050   1.092   3.032  15.479 -0.1130  0.1147  0.3559
12520TIP3    H159051   1.178   2.992  15.466 -0.1040  0.5402 -1.0747
12520TIP3    H259052   1.090   3.104  15.415 -0.8135  1.2746  1.6614
12521TIP3   OH259053   0.010   0.816   4.725 -0.3139  0.0004 -0.4772
12521TIP3    H159054   0.077   0.765   4.681  0.5877  0.7267  0.0355
12521TIP3    H259055  -0.017   0.762   4.799 -0.2996 -0.3014 -0.6934
12522TIP3   OH259056   6.494   1.278   1.744 -0.1576  0.3535  0.0300
12522TIP3    H159057   6.538   1.347   1.794  1.5652  0.0952 -1.0933
12522TIP3    H259058   6.414   1.319   1.711  1.0354  1.9512 -0.9508
12523TIP3   OH259059   1.330   1.164  11.414  0.1007  0.5627 -0.2311
12523TIP3    H159060   1.267   1.102  11.377  1.1358  0.3561 -1.6811
12523TIP3    H259061   1.300   1.179  11.504  0.4511 -2.8944  0.5154
12524TIP3   OH259062   5.724   0.141  16.460  0.4331 -0.5873 -0.1495
12524TIP3    H159063   5.797   0.150  16.399  0.9161 -1.3706  0.3020
12524TIP3    H259064   5.659   0.089  16.413  0.0990  0.2457 -0.6070
12525TIP3   OH259065   5.753   6.042   0.852 -0.0846 -0.7171  0.0878
12525TIP3    H159066   5.696   6.054   0.776 -0.4693 -0.4231  0.4163
12525TIP3    H259067   5.754   5.948   0.866 -2.0385 -0.5905  1.2298
12526TIP3   OH259068   4.409   3.216   5.510 -0.1716  0.5077 -0.4190
12526TIP3    H159069   4.370   3.191   5.426 -0.2062  0.9983 -0.5494
12526TIP3    H259070   4.340   3.266   5.555 -0.2569 -0.0018  0.0249
12527TIP3   OH259071   6.545   0.848  11.745  0.7754 -0.0313  0.1093
12527TIP3    H159072   6.556   0.935  11.708 -0.0743 -0.8816 -2.2710
12527TIP3    H259073   6.467   0.854  11.799  1.3308  0.9356  0.8205
12528TIP3   OH259074   0.829   5.297   2.210  0.1329  0.1162 -1.1841
12528TIP3    H159075   0.872   5.289   2.125  0.9928  0.4196 -0.7932
12528TIP3    H259076   0.793   5.386   2.210 -0.3210 -0.0713 -1.4410
12529TIP3   OH259077   4.238   2.477   0.220 -0.7243 -0.3836 -0.2869
12529TIP3    H159078   4.183   2.504   0.294 -1.6530  0.3677 -1.2394
12529TIP3    H259079   4.305   2.545   0.214 -0.4657 -0.6074  0.0550
12530TIP3   OH259080   4.020   1.779   4.613  0.0270  0.2068 -0.2238
12530TIP3    H159081   3.977   1.755   4.530  1.1241  0.4110 -0.8635
12530TIP3    H259082   3.966   1.851   4.647 -1.8609 -1.5073  0.4968
12531TIP3   OH259083   3.074   5.718   2.697 -0.3262 -0.1601 -0.1708
12531TIP3    H159084   3.059   5.631   2.660  2.4789  0.0511 -1.9764
12531TIP3    H259085   3.147   5.705   2.758 -0.2654  0.8160 -0.0366
12532TIP3   OH259086   2.107   1.938  15.786 -0.2177  0.3833  0.0166
12532TIP3    H159087   2.026   1.887  15.790 -0.5036  0.6813 -1.5622
12532TIP3    H259088   2.092   2.001  15.715  2.0424 -0.6918 -1.4712
12533TIP3   OH259089   4.460   2.964  16.629  0.0409  0.1848 -0.4576
12533TIP3    H159090   4.419   2.990  16.712  1.6510 -0.1252  0.4683
12533TIP3    H259091   4.433   3.032  16.567 -1.7110  0.0725  0.1563
12534TIP3   OH259092   1.688   0.800  17.063  0.2166 -0.0675  0.0345
12534TIP3    H159093   1.730   0.817  16.979 -0.7465 -0.0941 -0.4552
12534TIP3    H259094   1.651   0.884  17.088  0.6842 -0.0073  0.5467
12535TIP3   OH259095   3.919   4.581  11.175  0.8173  0.0969  0.6152
12535TIP3    H159096   3.986   4.531  11.129  0.5560 -0.4553  0.8356
12535TIP3    H259097   3.918   4.666  11.131  0.0124 -0.6970 -0.9402
12536TIP3   OH259098   4.840   5.814   3.801  0.5144 -0.2203  0.2255
12536TIP3    H159099   4.824   5.744   3.738  0.7837 -0.6375  0.6125
12536TIP3    H259100   4.820   5.774   3.886  0.6606  0.1797  0.4477
12537TIP3   OH259101   2.019   6.810   2.829 -0.0349  0.4585 -0.0656
12537TIP3    H159102   1.933   6.809   2.787  0.5207  0.9371 -1.2193
12537TIP3    H259103   2.068   6.878   2.783  1.3884 -0.6595 -0.2578
12538TIP3   OH259104   0.878   4.746   3.057  0.0538  0.6364 -0.4289
12538TIP3    H159105   0.839   4.706   2.979  0.6237 -2.3245  0.7351
12538TIP3    H259106   0.945   4.805   3.022  1.2001 -1.6094 -2.2103
12539TIP3   OH259107   5.336   4.066   3.507 -0.0557 -0.0833 -0.2215
12539TIP3    H159108   5.345   4.002   3.577 -1.5124 -0.7409 -0.6025
12539TIP3    H259109   5.277   4.133   3.544 -0.4874 -0.2168 -0.6674
12540TIP3   OH259110   5.702   6.204   1.789  0.0942 -0.6225  0.4859
12540TIP3    H159111   5.769   6.138   1.774 -0.0778 -0.8122  0.5556
12540TIP3    H259112   5.671   6.188   1.879 -0.7536 -1.1789  0.1029
12541TIP3   OH259113   3.742   4.188   3.896 -0.1824 -0.0845  0.0928
12541TIP3    H159114   3.652   4.204   3.923 -0.5504 -1.4728 -0.2448
12541TIP3    H259115   3.743   4.207   3.802 -0.1007  0.0173  0.1142
12542TIP3   OH259116   2.191   2.856  15.485  0.3166  0.9612  0.3699
12542TIP3    H159117   2.244   2.927  15.521  0.8037  1.2641 -0.8980
12542TIP3    H259118   2.245   2.819  15.415 -0.4634  0.1895  0.1638
12543TIP3   OH259119   5.570   2.931  16.282 -0.4727 -0.2457 -0.1046
12543TIP3    H159120   5.548   2.858  16.339 -2.0825  1.2462  1.2444
12543TIP3    H259121   5.582   2.891  16.196 -1.5410 -2.0697  0.5618
12544TIP3   OH259122   0.646   0.403   5.192 -0.2671  0.0839  0.0235
12544TIP3    H159123   0.555   0.419   5.166 -0.1991  1.7990  0.7976
12544TIP3    H259124   0.654   0.445   5.277  0.4241 -2.7127  1.3911
12545TIP3   OH259125   0.097   0.185  13.515 -0.1563 -0.3607 -0.6459
12545TIP3    H159126   0.175   0.232  13.485  0.0585 -1.0223 -1.1556
12545TIP3    H259127   0.129   0.097  13.534 -0.3290  0.0178  1.4347
12546TIP3   OH259128   3.357   1.845  14.409 -0.1659 -0.2920 -0.3406
12546TIP3    H159129   3.291   1.900  14.452  1.1137 -0.5631  2.0777
12546TIP3    H259130   3.410   1.907  14.358 -0.7116  0.2755 -0.2288
12547TIP3   OH259131   3.413   2.093  16.117  0.0091 -0.2629 -0.1818
12547TIP3    H159132   3.501   2.096  16.154 -0.1490  0.6919  0.1414
12547TIP3    H259133   3.362   2.152  16.172 -0.7137 -0.4211 -0.6782
12548TIP3   OH259134   0.380   6.018   5.508  0.0759 -0.2644  0.1460
12548TIP3    H159135   0.439   6.024   5.433 -1.9519 -0.2063 -1.5003
12548TIP3    H259136   0.376   5.924   5.527 -0.6115 -0.4382 -0.8276
12549TIP3   OH259137   1.708   4.886  14.135 -0.2306  0.2393  0.2592
12549TIP3    H159138   1.708   4.982  14.129  0.6149  0.2505  0.3686
12549TIP3    H259139   1.616   4.862  14.126 -0.3692  1.0199 -0.5195
12550TIP3   OH259140   0.470   5.678   2.738 -0.5057 -0.8363 -0.7671
12550TIP3    H159141   0.456   5.765   2.701  1.0069 -0.6127 -0.8401
12550TIP3    H259142   0.543   5.689   2.798 -0.9264 -1.8630 -0.0646
12551TIP3   OH259143   6.780   6.133  16.555 -0.3151 -0.2231 -0.5134
12551TIP3    H159144   6.875   6.124  16.557 -0.0779  2.1881  2.9258
12551TIP3    H259145   6.749   6.089  16.634 -1.8633  0.6834 -0.5868
12552TIP3   OH259146   3.845   1.739  15.740 -0.0910  0.2338  0.9788
12552TIP3    H159147   3.936   1.769  15.740  0.0623 -0.1929  2.0404
12552TIP3    H259148   3.845   1.664  15.800 -0.6115 -1.3857 -1.0139
12553TIP3   OH259149   5.756   2.309   4.874  0.6671 -0.1134 -0.0510
12553TIP3    H159150   5.697   2.375   4.839  0.2927 -0.0803  0.6337
12553TIP3    H259151   5.718   2.225   4.846 -0.4202 -0.1464  1.4544
12554TIP3   OH259152   2.250   3.257   2.713 -0.2994  0.4152 -0.8545
12554TIP3    H159153   2.256   3.269   2.808 -1.3284 -1.3349 -0.5628
12554TIP3    H259154   2.329   3.208   2.690  0.9624  2.5531 -1.2154
12555TIP3   OH259155   4.922   0.036   3.682  0.3455 -0.4638  0.7010
12555TIP3    H159156   4.916   0.089   3.762  1.0194  0.0106  0.4467
12555TIP3    H259157   4.833   0.008   3.664  0.1479 -0.3088  1.4501
12556TIP3   OH259158   5.851   1.941  12.864 -0.3172 -0.3111  0.0270
12556TIP3    H159159   5.898   2.013  12.824  2.1735 -0.9491  1.6757
12556TIP3    H259160   5.781   1.983  12.915  1.4997  1.0220  1.4973
12557TIP3   OH259161   4.458   0.023   0.784  0.3765 -0.3620  0.0123
12557TIP3    H159162   4.395   0.028   0.856 -1.4260  4.0043 -1.6314
12557TIP3    H259163   4.436  -0.058   0.738 -1.3706 -0.9702  1.8459
12558TIP3   OH259164   5.161   0.692   0.169  0.0067  0.2194  0.2394
12558TIP3    H159165   5.150   0.597   0.158  1.1285  0.1531 -0.4400
12558TIP3    H259166   5.126   0.710   0.256 -3.8058 -0.1700 -1.1364
12559TIP3   OH259167   4.698   2.700   5.253 -0.5180  0.6451  0.3404
12559TIP3    H159168   4.723   2.643   5.325  2.2336  0.3744 -0.7411
12559TIP3    H259169   4.607   2.678   5.234  0.2555 -2.8973  0.3986
12560TIP3   OH259170   6.270   1.294  12.674 -0.1404 -0.4732  0.0071
12560TIP3    H159171   6.228   1.357  12.615  0.0972  0.1826  0.5433
12560TIP3    H259172   6.269   1.336  12.760  2.1191 -0.1938 -0.0720
12561TIP3   OH259173   1.058   0.269  14.980 -0.4057 -0.2701 -0.2078
12561TIP3    H159174   1.151   0.246  14.983 -0.3379  0.1430  1.1547
12561TIP3    H259175   1.054   0.345  14.923  0.2151  0.2425  0.4245
12562TIP3   OH259176   5.538   3.365   2.352  0.2894  0.2370 -0.3274
12562TIP3    H159177   5.463   3.339   2.299  1.6424 -1.7713 -1.3660
12562TIP3    H259178   5.555   3.456   2.329  1.1508 -0.7393 -3.7949
12563TIP3   OH259179   1.729   4.633   5.829 -0.2405 -0.1278  0.5497
12563TIP3    H159180   1.766   4.546   5.815  0.4743 -0.0271  1.6805
12563TIP3    H259181   1.678   4.651   5.751  0.5181 -1.1032 -0.1811
12564TIP3   OH259182   4.624   3.024  14.551  0.4883 -0.1590 -0.3351
12564TIP3    H159183   4.609   3.077  14.629 -0.1608 -0.1854 -0.4396
12564TIP3    H259184   4.637   3.088  14.481 -0.9230 -0.1206 -0.5838
12565TIP3   OH259185   5.777   4.998   2.257  0.5433  0.1189  1.0451
12565TIP3    H159186   5.701   5.016   2.202  0.5597 -2.1978  0.2012
12565TIP3    H259187   5.757   5.040   2.340 -1.3114  0.1767  0.5858
12566TIP3   OH259188   2.768   6.502   3.325  0.2136  0.2971  0.4232
12566TIP3    H159189   2.708   6.532   3.393 -0.0090  0.2847  0.2322
12566TIP3    H259190   2.716   6.502   3.245  0.7370  1.2263  0.0718
12567TIP3   OH259191   2.644   5.489  16.119  0.1542  0.0057  0.2824
12567TIP3    H159192   2.565   5.452  16.156 -0.1106  0.0415 -0.2433
12567TIP3    H259193   2.653   5.574  16.163 -0.5096  0.3281 -0.2002
12568TIP3   OH259194   6.075   0.339  11.571 -0.1395 -0.6183 -0.1324
12568TIP3    H159195   6.040   0.357  11.483 -0.8084 -2.5136 -0.2672
12568TIP3    H259196   6.018   0.271  11.606  0.3992 -0.1869  1.6126
12569TIP3   OH259197   0.962   0.484   5.254 -0.3882 -0.1495 -0.0587
12569TIP3    H159198   0.974   0.479   5.159  2.2742 -2.0007  0.3305
12569TIP3    H259199   1.025   0.550   5.282 -1.7535  0.9941  0.3553
12570TIP3   OH259200   0.373   4.628   2.307  0.7764  0.4852 -0.0479
12570TIP3    H159201   0.340   4.636   2.218 -0.5068  0.0605  0.3701
12570TIP3    H259202   0.397   4.718   2.332 -1.8328  1.1399  0.2692
12571TIP3   OH259203   1.893   1.013  17.187  0.6405  0.0747  0.0553
12571TIP3    H159204   1.954   1.027  17.259  0.7752  1.2013 -0.2681
12571TIP3    H259205   1.904   0.921  17.163  1.2536 -0.0641  0.8695
12572TIP3   OH259206   2.545   4.565  14.983  0.3313 -0.1434 -0.0864
12572TIP3    H159207   2.627   4.520  15.006  0.3506  0.4861  1.1483
12572TIP3    H259208   2.538   4.636  15.047 -1.3820 -0.4263  0.0660
12573TIP3   OH259209   6.573   6.690  12.589  0.3311 -0.2690 -0.1459
12573TIP3    H159210   6.624   6.647  12.657 -1.5610 -0.0645  1.4363
12573TIP3    H259211   6.503   6.628  12.568 -0.5309  0.6919 -0.1454
12574TIP3   OH259212   6.404   3.379  16.144  0.0254 -0.3390  0.2687
12574TIP3    H159213   6.367   3.392  16.056  0.7745 -0.3755 -0.0547
12574TIP3    H259214   6.337   3.413  16.203 -0.5799 -0.5117 -0.3075
12575TIP3   OH259215   4.252   3.485  16.353  0.0564 -0.0698 -0.0289
12575TIP3    H159216   4.325   3.543  16.329 -0.2317  0.8043  1.1420
12575TIP3    H259217   4.207   3.468  16.270  1.4133 -0.3827 -0.7104
12576TIP3   OH259218   5.010   5.727   1.099 -0.7486  0.3811  0.4670
12576TIP3    H159219   5.050   5.795   1.044  0.8740 -1.5920 -0.8927
12576TIP3    H259220   5.028   5.754   1.189 -2.4253  3.0736  0.0441
12577TIP3   OH259221   2.868   0.956  15.970  0.7356  0.0210  0.3186
12577TIP3    H159222   2.914   0.872  15.968  0.1297 -0.3506  1.7960
12577TIP3    H259223   2.830   0.964  15.882  1.6557 -0.7582 -0.1541
12578TIP3   OH259224   2.611   6.113  14.010 -1.0281  0.2004 -0.3837
12578TIP3    H159225   2.648   6.178  13.950 -0.2209  0.7233  0.6691
12578TIP3    H259226   2.570   6.165  14.079  0.0502 -0.3934  0.7274
12579TIP3   OH259227   4.486   4.101   5.019  0.6137  0.0579 -0.4111
12579TIP3    H159228   4.399   4.129   5.044  0.2824 -0.5908 -0.8308
12579TIP3    H259229   4.484   4.098   4.923  1.3597  0.8825 -0.4673
12580TIP3   OH259230   2.629   5.557  13.096  0.2151 -0.6068  0.2849
12580TIP3    H159231   2.544   5.594  13.075  0.8271  1.6835  1.6937
12580TIP3    H259232   2.682   5.576  13.018 -0.0766 -0.4512  0.1219
12581TIP3   OH259233   5.651   3.777  17.070 -0.1235  0.8141 -0.9032
12581TIP3    H159234   5.715   3.709  17.048  0.4806  1.6491 -1.7599
12581TIP3    H259235   5.704   3.854  17.088 -0.7899  0.9810  0.4140
12582TIP3   OH259236   5.294   4.469   3.496 -0.0348  0.5624  0.3501
12582TIP3    H159237   5.382   4.436   3.480 -0.3242  0.9931 -2.3784
12582TIP3    H259238   5.251   4.400   3.546  2.3731  1.1467  3.3437
12583TIP3   OH259239   1.218   0.734  11.865 -0.0118  0.1833 -0.3649
12583TIP3    H159240   1.226   0.825  11.834 -0.3810  0.2342 -0.3091
12583TIP3    H259241   1.126   0.726  11.892  0.0359 -0.1917 -0.3201
12584TIP3   OH259242   0.362   4.516   0.253  0.2369 -0.6657  0.6681
12584TIP3    H159243   0.382   4.479   0.339 -0.3349  0.5706  1.3392
12584TIP3    H259244   0.267   4.526   0.252  0.4068  1.1369  0.6544
12585TIP3   OH259245   5.242   3.653   0.354 -0.1398  0.3411 -0.2337
12585TIP3    H159246   5.312   3.716   0.370  0.5786 -0.6509  0.6371
12585TIP3    H259247   5.161   3.701   0.375  0.4361  0.8191  0.9636
12586TIP3   OH259248   6.366   5.215  13.345 -0.3830  0.1558 -0.3141
12586TIP3    H159249   6.411   5.250  13.268 -2.3846  2.4310 -0.5093
12586TIP3    H259250   6.321   5.137  13.313  0.4831 -0.0887 -0.9486
12587TIP3   OH259251   3.856   6.495  15.178 -0.0348  0.2400 -0.1092
12587TIP3    H159252   3.816   6.578  15.151  0.7580  1.2761  1.7700
12587TIP3    H259253   3.826   6.484  15.269  0.2896 -1.2705 -0.1826
12588TIP3   OH259254   6.736   3.162  12.882  0.4558 -0.1336 -0.2427
12588TIP3    H159255   6.662   3.118  12.839  0.4444 -0.8974  0.5399
12588TIP3    H259256   6.700   3.196  12.964  0.4372  1.4740 -0.9040
12589TIP3   OH259257   5.971   5.449  15.703  0.0289 -0.4414 -0.1021
12589TIP3    H159258   5.978   5.396  15.782 -2.1270 -2.1904 -1.0294
12589TIP3    H259259   6.045   5.422  15.649  1.2796  0.4704  1.1361
12590TIP3   OH259260   2.030   2.691  17.091  0.1997 -0.4885 -0.4212
12590TIP3    H159261   1.972   2.631  17.044 -1.7333 -0.4668  1.7985
12590TIP3    H259262   2.048   2.647  17.174  0.3794  1.0819  0.4096
12591TIP3   OH259263   2.281   1.683  16.895 -0.1895  0.4442 -0.1773
12591TIP3    H159264   2.330   1.723  16.823 -0.9279  0.4492 -0.6722
12591TIP3    H259265   2.269   1.755  16.957 -1.2404  0.9201 -0.9278
12592TIP3   OH259266   6.610   2.456   0.514  0.1908  0.1718  0.4415
12592TIP3    H159267   6.665   2.534   0.526 -0.7956  0.9430 -0.0594
12592TIP3    H259268   6.578   2.463   0.424  0.7425 -1.2338  0.1291
12593TIP3   OH259269   2.303   3.604   4.787 -0.4117  0.1996  0.3094
12593TIP3    H159270   2.274   3.544   4.718 -1.0780  1.1900 -0.2780
12593TIP3    H259271   2.289   3.556   4.868 -1.0841 -0.3869 -0.1511
12594TIP3   OH259272   2.198   1.222   4.614 -0.3501  0.0142 -0.5627
12594TIP3    H159273   2.265   1.280   4.650 -0.0532 -0.1090 -0.9269
12594TIP3    H259274   2.144   1.199   4.690  0.0023  0.1285 -0.2777
12595TIP3   OH259275   2.873   5.359  12.670  0.4790 -0.0454  0.1224
12595TIP3    H159276   2.780   5.364  12.648  0.7095  0.4942 -0.7505
12595TIP3    H259277   2.909   5.444  12.646  1.2778 -0.3875  0.0619
12596TIP3   OH259278   1.911   1.690  12.320 -0.0678  0.3702 -0.2695
12596TIP3    H159279   1.868   1.616  12.276 -1.5243  0.8248  0.3434
12596TIP3    H259280   1.970   1.649  12.383  1.0342 -0.2777 -1.7029
12597TIP3   OH259281   4.004   2.870  15.703 -0.3628 -0.0728 -0.2464
12597TIP3    H159282   4.063   2.877  15.778 -1.1874  1.7180  0.2741
12597TIP3    H259283   3.951   2.792  15.720  1.9233 -1.7694 -0.7886
12598TIP3   OH259284   1.145   3.644   5.049  0.1642  0.2963  0.5459
12598TIP3    H159285   1.240   3.651   5.062  0.2247 -0.5576  0.5740
12598TIP3    H259286   1.128   3.550   5.050 -0.7232  0.4595  0.8332
12599TIP3   OH259287   0.628   0.081   3.972 -0.2391  0.2067 -0.1379
12599TIP3    H159288   0.556   0.076   3.909  0.3416 -2.1222 -0.6544
12599TIP3    H259289   0.599   0.027   4.046  1.5019 -1.9498 -0.9478
12600TIP3   OH259290   4.985   6.375  14.773  0.4565  0.4104 -0.2849
12600TIP3    H159291   4.910   6.315  14.777 -0.3107  1.2566 -1.5942
12600TIP3    H259292   4.983   6.420  14.857  0.6612 -0.9290  0.4641
12601TIP3   OH259293   6.427   0.437   4.923 -0.3540  0.0640  0.4582
12601TIP3    H159294   6.454   0.504   4.861  0.9393 -0.9358 -0.0695
12601TIP3    H259295   6.435   0.478   5.009 -1.9367  1.3779 -0.0002
12602TIP3   OH259296   3.695   2.153   3.477 -0.1567  0.0899  0.4569
12602TIP3    H159297   3.620   2.193   3.522  1.2590  1.9217  1.2263
12602TIP3    H259298   3.737   2.098   3.543 -0.1776 -0.0899  0.3240
12603TIP3   OH259299   6.288   1.204   2.586 -0.6450  0.1171 -0.3370
12603TIP3    H159300   6.291   1.283   2.533  1.1288  0.0625 -0.3297
12603TIP3    H259301   6.301   1.234   2.676  1.4382 -0.3014 -0.4756
12604TIP3   OH259302   1.268   1.958   0.379  0.2566  0.8931  0.6346
12604TIP3    H159303   1.188   1.972   0.327  1.3112  1.0994 -0.9834
12604TIP3    H259304   1.309   1.881   0.340  0.7704  0.6912  1.5620
12605TIP3   OH259305   0.881   6.123  11.386 -0.3392 -0.0400 -0.0727
12605TIP3    H159306   0.851   6.214  11.374 -0.9221 -0.0450  1.2503
12605TIP3    H259307   0.848   6.077  11.309 -2.4896  0.2799  0.6067
12606TIP3   OH259308   5.159   3.474  14.806  0.0606 -0.0096  0.0333
12606TIP3    H159309   5.180   3.412  14.875 -2.3700  0.6360  1.4175
12606TIP3    H259310   5.081   3.437  14.763  2.6765 -1.4777 -3.8119
12607TIP3   OH259311   3.855   3.611  17.215 -0.1098  0.2010 -0.0983
12607TIP3    H159312   3.942   3.602  17.253  0.9667 -0.1639 -2.6183
12607TIP3    H259313   3.868   3.664  17.136 -2.4623  1.7605  0.4893
12608TIP3   OH259314   4.481   4.284  12.976 -0.4819  0.1095 -0.6498
12608TIP3    H159315   4.416   4.246  13.035  0.0911  0.7031  0.3831
12608TIP3    H259316   4.546   4.215  12.964  0.1770  0.4862  0.6312
12609TIP3   OH259317   6.359   1.295  16.982 -0.5006  0.0001 -0.3688
12609TIP3    H159318   6.330   1.366  16.926 -2.2410  0.8310  1.5223
12609TIP3    H259319   6.395   1.338  17.060  1.0501 -1.1398 -0.4209
12610TIP3   OH259320   0.920   2.372   3.091  0.4823 -0.1496 -0.4067
12610TIP3    H159321   0.891   2.281   3.106  0.4736  0.0546  0.9191
12610TIP3    H259322   0.880   2.396   3.008 -1.1227 -0.7274  0.1644
12611TIP3   OH259323   3.224   2.536   6.119 -0.3333 -0.0017 -0.3512
12611TIP3    H159324   3.199   2.549   6.210 -1.4048 -1.0180 -0.4947
12611TIP3    H259325   3.301   2.479   6.123 -1.2303 -1.2115 -0.1379
12612TIP3   OH259326   4.203   0.290   3.641  0.2841 -0.5006  0.4141
12612TIP3    H159327   4.237   0.231   3.709  2.1612 -0.3194 -0.3522
12612TIP3    H259328   4.218   0.243   3.559  2.7453  1.4301 -0.3030
12613TIP3   OH259329   3.478   3.813  15.019 -0.1114  0.3215  0.4648
12613TIP3    H159330   3.387   3.831  15.042 -0.2633  0.3775 -0.1825
12613TIP3    H259331   3.519   3.899  15.009 -0.1666  0.2972  0.0368
12614TIP3   OH259332   4.768   0.427   4.585  0.1305 -0.0601  0.2972
12614TIP3    H159333   4.819   0.387   4.656  0.5534  1.1625  0.6971
12614TIP3    H259334   4.756   0.357   4.521 -0.7409 -1.3403  1.8356
12615TIP3   OH259335   0.008   1.023  17.045  0.1449  0.0351 -0.4705
12615TIP3    H159336   0.093   1.042  17.006  0.2741  0.7362  0.1307
12615TIP3    H259337  -0.054   1.074  16.993  0.2258  0.3794 -0.2304
12616TIP3   OH259338   6.684   0.841   3.952 -0.1650 -0.6149 -0.8693
12616TIP3    H159339   6.609   0.887   3.915  0.4957  0.8162 -0.4599
12616TIP3    H259340   6.690   0.760   3.901 -3.0373 -1.5895  0.2568
12617TIP3   OH259341   4.151   0.492   2.982 -0.7144  0.2405 -0.3226
12617TIP3    H159342   4.120   0.479   2.892  1.0468 -0.4916 -0.8413
12617TIP3    H259343   4.084   0.450   3.036 -0.5153 -1.5942 -1.4355
12618TIP3   OH259344   4.134   4.309   5.678 -0.6828  0.5187  0.2525
12618TIP3    H159345   4.051   4.305   5.631 -1.3164 -1.9555  1.4688
12618TIP3    H259346   4.142   4.223   5.719  4.1446 -0.6447 -2.6614
12619TIP3   OH259347   2.451   0.246   4.566 -0.3811 -0.6918 -0.0361
12619TIP3    H159348   2.473   0.170   4.511  0.8216 -0.4695  0.1173
12619TIP3    H259349   2.373   0.219   4.614 -1.6985 -0.7507 -2.1425
12620TIP3   OH259350   3.758   0.076   4.787 -0.4108 -0.2870  0.2613
12620TIP3    H159351   3.697   0.076   4.713 -0.2867  0.5575  0.1549
12620TIP3    H259352   3.819   0.005   4.767 -0.9637 -0.7116  0.0485
12621TIP3   OH259353   5.374   3.533  13.960  0.1718 -0.4155 -0.6186
12621TIP3    H159354   5.459   3.540  13.915 -0.2535 -0.1611 -1.3964
12621TIP3    H259355   5.325   3.471  13.907 -1.2581  1.8229 -1.9765
12622TIP3   OH259356   5.629   3.752   1.772  0.4670 -0.2209 -0.1304
12622TIP3    H159357   5.682   3.828   1.747 -0.7671  1.4851  2.2298
12622TIP3    H259358   5.539   3.783   1.769  0.0170 -1.2327  1.9977
12623TIP3   OH259359   5.118   3.951   1.227 -0.2164  0.4421  0.4489
12623TIP3    H159360   5.197   3.913   1.188 -0.5349  0.8160 -0.5749
12623TIP3    H259361   5.137   3.956   1.321  0.5602 -0.4677  0.3472
12624TIP3   OH259362   2.525   4.134   2.308  0.4357 -0.5061 -0.0139
12624TIP3    H159363   2.601   4.085   2.339  1.1216  0.4681 -0.1137
12624TIP3    H259364   2.548   4.226   2.325 -0.6407 -0.1942 -0.2150
12625TIP3   OH259365   1.518   0.617   3.268 -0.6459  0.3426 -0.3879
12625TIP3    H159366   1.608   0.632   3.239 -0.6792 -0.6212 -1.0345
12625TIP3    H259367   1.508   0.522   3.263 -1.4078  0.3681  0.5701
12626TIP3   OH259368   6.403   4.596  12.950 -0.4356  0.5680 -0.3327
12626TIP3    H159369   6.433   4.507  12.932 -2.6368  0.0497 -1.6764
12626TIP3    H259370   6.356   4.622  12.871 -2.6023  1.6912  1.2569
12627TIP3   OH259371   3.137   6.075  16.940 -0.8935  0.3423 -0.2487
12627TIP3    H159372   3.056   6.092  16.987 -0.0423  0.1547  1.2985
12627TIP3    H259373   3.134   6.135  16.865 -2.4069  0.3999 -0.1525
12628TIP3   OH259374   3.105   3.211  11.904 -0.0131  0.3719  0.0819
12628TIP3    H159375   3.016   3.212  11.938 -0.6799 -0.4876 -1.5795
12628TIP3    H259376   3.137   3.300  11.918 -1.7043  1.1304 -0.7414
12629TIP3   OH259377   0.022   1.622  12.042  0.6405 -0.5879 -0.3115
12629TIP3    H159378   0.102   1.579  12.012 -0.0474 -0.7724 -1.9735
12629TIP3    H259379   0.051   1.682  12.110  2.0977 -1.1626 -0.4089
12630TIP3   OH259380   5.862   2.149  16.243  0.4504  0.1511  0.7062
12630TIP3    H159381   5.855   2.063  16.284  1.1678 -0.5022 -0.5107
12630TIP3    H259382   5.800   2.147  16.171 -0.8540  1.3241  1.7582
12631TIP3   OH259383   4.925   0.001   4.682  0.2953 -0.1163 -0.0836
12631TIP3    H159384   4.893  -0.036   4.764  0.8966 -0.0560  0.1845
12631TIP3    H259385   4.966   0.084   4.708  0.1766  0.0667 -0.4905
12632TIP3   OH259386   4.642   5.753  15.841  0.4043 -0.2652 -0.6640
12632TIP3    H159387   4.701   5.794  15.779 -0.3919  2.4121  0.2725
12632TIP3    H259388   4.646   5.809  15.919  0.4595 -2.8546  1.2616
12633TIP3   OH259389   1.714   0.570   1.827 -0.2191  0.4647  0.4718
12633TIP3    H159390   1.675   0.657   1.823 -0.6895  0.2961  1.2596
12633TIP3    H259391   1.751   0.564   1.915 -2.1665 -0.9752  1.2257
12634TIP3   OH259392   1.535   4.647   1.469 -0.7410 -0.5057 -0.4183
12634TIP3    H159393   1.491   4.662   1.553 -0.6208  2.4192 -0.8267
12634TIP3    H259394   1.463   4.643   1.405 -0.6182  1.3861 -0.6989
12635TIP3   OH259395   5.901   2.029  14.794 -0.6549 -0.3827 -0.1025
12635TIP3    H159396   5.889   1.943  14.754 -0.8123  0.4997 -1.9706
12635TIP3    H259397   5.975   2.018  14.854  0.4598 -1.3553 -1.6493
12636TIP3   OH259398   5.743   6.001  15.669  0.3013  0.3841  0.5055
12636TIP3    H159399   5.708   6.082  15.707 -0.5683  0.3847 -0.2791
12636TIP3    H259400   5.689   5.932  15.706  0.5559  0.2270  0.5854
12637TIP3   OH259401   1.415   1.811  10.728  0.4104 -0.7793  0.3193
12637TIP3    H159402   1.419   1.891  10.781  0.3513 -1.6980  1.7674
12637TIP3    H259403   1.322   1.798  10.712  0.5205  0.2823 -1.2719
12638TIP3   OH259404   5.816   5.452   4.345 -0.4360  0.6031 -0.3569
12638TIP3    H159405   5.804   5.474   4.253  0.5100 -1.2352 -0.9651
12638TIP3    H259406   5.910   5.433   4.352 -0.4627  0.9648  1.0387
12639TIP3   OH259407   3.500   5.748   3.226 -0.3436  0.1347  0.5519
12639TIP3    H159408   3.512   5.773   3.134  0.8093 -1.6803  0.1738
12639TIP3    H259409   3.431   5.806   3.258 -0.8493  0.7154 -1.4955
12640TIP3   OH259410   4.535   1.462   2.346 -0.4544 -0.0921 -0.1679
12640TIP3    H159411   4.567   1.490   2.432 -0.9929  1.5718 -0.4952
12640TIP3    H259412   4.614   1.452   2.293 -0.0629 -1.7945  0.6918
12641TIP3   OH259413   4.476   2.757   5.527  0.1339 -0.0925  0.3230
12641TIP3    H159414   4.557   2.783   5.572  0.0340 -0.4195  0.6981
12641TIP3    H259415   4.440   2.838   5.493 -0.4503  0.3444  1.9219
12642TIP3   OH259416   1.824   6.333  11.673 -0.2462  0.0406 -0.0465
12642TIP3    H159417   1.877   6.254  11.684 -1.6111 -0.9714 -0.5167
12642TIP3    H259418   1.872   6.401  11.719  1.4322 -0.8516 -0.4384
12643TIP3   OH259419   3.778   1.693  16.710  0.7305 -0.1681  0.2077
12643TIP3    H159420   3.835   1.626  16.748  0.7335 -0.6592 -0.6530
12643TIP3    H259421   3.777   1.673  16.616  1.2440  1.4185 -0.1492
12644TIP3   OH259422   3.439   1.139  13.367 -0.3617  0.0494  0.2114
12644TIP3    H159423   3.423   1.045  13.376  1.2725 -0.2097  0.4571
12644TIP3    H259424   3.532   1.146  13.349 -0.5653  1.6062 -0.2937
12645TIP3   OH259425   5.812   5.956  11.285 -0.8882  0.5358  0.2531
12645TIP3    H159426   5.768   6.040  11.303 -1.3354 -0.0981  2.2408
12645TIP3    H259427   5.904   5.979  11.276 -0.9873  1.2384  0.9261
12646TIP3   OH259428   6.054   1.683   4.223  0.5118 -0.4365  0.0995
12646TIP3    H159429   6.089   1.710   4.308  1.6857  0.4272 -0.6481
12646TIP3    H259430   6.017   1.763   4.186 -0.6973 -0.9748  0.1191
12647TIP3   OH259431   5.610   4.156  16.114 -0.3998 -0.8964  0.1233
12647TIP3    H159432   5.627   4.198  16.198 -0.7444  0.0552 -0.2767
12647TIP3    H259433   5.525   4.191  16.086 -0.5027 -1.5470 -0.4098
12648TIP3   OH259434   1.156   1.193   5.487 -0.6866  0.1353 -0.4633
12648TIP3    H159435   1.199   1.119   5.531 -0.4649  1.4116  1.5300
12648TIP3    H259436   1.208   1.269   5.510 -0.3934  0.8379 -3.2616
12649TIP3   OH259437   1.677   1.671   1.905  0.3971  0.1644 -1.0248
12649TIP3    H159438   1.697   1.759   1.937 -0.6138 -0.3778  1.2171
12649TIP3    H259439   1.761   1.626   1.901  1.0589  1.4873 -3.1478
12650TIP3   OH259440   6.044   4.770   4.924  0.5250  0.1363  0.2842
12650TIP3    H159441   5.997   4.833   4.979  0.9545 -0.7900  1.7479
12650TIP3    H259442   5.984   4.695   4.916 -0.0345  0.7545 -1.5468
12651TIP3   OH259443   0.915   6.532   1.142 -0.2929 -0.0214  0.2632
12651TIP3    H159444   0.983   6.465   1.135  0.2266  0.5125  0.1908
12651TIP3    H259445   0.835   6.488   1.113  0.2941 -0.2252 -1.0493
12652TIP3   OH259446   0.499   2.132   2.971 -0.0256 -0.3711  0.9886
12652TIP3    H159447   0.562   2.184   2.920  0.6503 -1.3366  0.8136
12652TIP3    H259448   0.415   2.176   2.958  0.1896 -0.4307 -0.7181
12653TIP3   OH259449   2.645   5.268  15.202  0.8196  0.0371  0.8361
12653TIP3    H159450   2.570   5.210  15.192  0.3124  0.9811 -1.0197
12653TIP3    H259451   2.716   5.210  15.231 -0.0602 -1.2383  0.4958
12654TIP3   OH259452   6.369   3.361   5.107 -0.1141 -0.7499 -0.4447
12654TIP3    H159453   6.299   3.426   5.102 -1.0318 -1.7566 -1.2475
12654TIP3    H259454   6.322   3.278   5.123  1.1147 -1.0211  1.8387
12655TIP3   OH259455   0.034   3.471   0.809 -0.3688  0.7456  0.0239
12655TIP3    H159456   0.091   3.430   0.745  0.1468  0.2286  0.8096
12655TIP3    H259457  -0.022   3.400   0.841 -0.5051  0.9668  0.2831
12656TIP3   OH259458   5.408   3.860  14.040  0.0274 -0.6068 -0.0369
12656TIP3    H159459   5.314   3.845  14.035  0.1765 -1.9623  1.1029
12656TIP3    H259460   5.439   3.851  13.949 -0.5546 -2.7944 -0.0411
12657TIP3   OH259461   4.293   2.807  13.122 -0.1249 -0.2743 -0.0293
12657TIP3    H159462   4.282   2.721  13.080  0.8759  0.6999 -2.3754
12657TIP3    H259463   4.323   2.787  13.210  0.9661 -2.3201 -0.8273
12658TIP3   OH259464   4.474   2.339   5.634 -0.1942  0.6093  0.1377
12658TIP3    H159465   4.552   2.395   5.633  1.0566 -1.1350 -1.3986
12658TIP3    H259466   4.401   2.401   5.630  1.1468  2.1730 -0.8830
12659TIP3   OH259467   4.481   4.041  11.737  0.3696 -0.2175 -0.1183
12659TIP3    H159468   4.538   3.975  11.777  1.9106  0.7717 -0.6597
12659TIP3    H259469   4.473   4.109  11.805 -0.1324 -0.3323 -0.0606
12660TIP3   OH259470   2.882   6.513  15.601  0.0212  0.4484 -0.5063
12660TIP3    H159471   2.793   6.529  15.633 -0.1987 -0.9145 -0.3678
12660TIP3    H259472   2.876   6.526  15.506 -0.0790  1.3631 -0.3750
12661TIP3   OH259473   3.913   1.761  12.590 -0.1540 -0.4317 -0.1365
12661TIP3    H159474   3.881   1.843  12.553  0.1675 -0.0346  0.4444
12661TIP3    H259475   3.834   1.706  12.599 -0.5555  0.2557  0.5731
12662TIP3   OH259476   0.518   2.646   3.238  0.0939 -0.0346 -0.5210
12662TIP3    H159477   0.439   2.631   3.185 -0.1140 -1.9811  0.3011
12662TIP3    H259478   0.591   2.635   3.177 -0.1817 -1.2079 -0.6483
12663TIP3   OH259479   2.709   5.659  13.739  0.3685  0.0268 -0.4517
12663TIP3    H159480   2.620   5.693  13.729  0.5585  0.3449 -1.1045
12663TIP3    H259481   2.698   5.564  13.748 -0.0945  0.1595  0.3825
12664TIP3   OH259482   6.499   4.661  11.979  0.0866 -0.2981 -0.4989
12664TIP3    H159483   6.433   4.634  12.042 -0.8701 -0.6316 -1.6250
12664TIP3    H259484   6.541   4.580  11.951  0.5228 -0.1494 -0.2869
12665TIP3   OH259485   6.643   4.087   5.627  0.0726 -0.3647 -0.4975
12665TIP3    H159486   6.682   4.124   5.707 -1.5252 -1.0801  0.6310
12665TIP3    H259487   6.642   3.993   5.642 -1.8953 -0.3853 -0.5641
12666TIP3   OH259488   0.469   0.124   0.213 -0.6657 -0.0181 -0.5736
12666TIP3    H159489   0.501   0.050   0.264 -3.9640 -1.4449 -0.5064
12666TIP3    H259490   0.533   0.133   0.142  2.1744 -0.0615  1.8880
12667TIP3   OH259491   4.691   4.335  14.416 -0.5571 -0.7715 -0.3967
12667TIP3    H159492   4.630   4.406  14.437 -1.6106 -0.8394 -2.9430
12667TIP3    H259493   4.653   4.257  14.456  0.1823 -0.0545  1.7355
12668TIP3   OH259494   0.368   1.841   3.542 -0.5493  0.3950 -0.0380
12668TIP3    H159495   0.297   1.799   3.591  0.2179 -0.3434  0.4608
12668TIP3    H259496   0.353   1.935   3.552 -1.4603  0.2489  0.0457
12669TIP3   OH259497   2.768   0.046  11.500 -0.2553  0.4426  0.4756
12669TIP3    H159498   2.760   0.043  11.595  2.2824 -0.6373  0.6876
12669TIP3    H259499   2.858   0.072  11.484 -0.0150 -1.4491 -1.6124
12670TIP3   OH259500   2.527   3.719   1.226 -0.4164  0.5738  0.1462
12670TIP3    H159501   2.435   3.745   1.232 -0.8778 -0.9501  0.0124
12670TIP3    H259502   2.533   3.638   1.277  0.0734 -1.2280 -2.6574
12671TIP3   OH259503   4.885   2.709  10.862 -0.4159  0.6199 -0.7046
12671TIP3    H159504   4.966   2.703  10.911 -0.6420  0.4816 -0.3487
12671TIP3    H259505   4.859   2.801  10.868 -0.7163  0.4998 -0.1261
12672TIP3   OH259506   1.770   5.716  14.550  0.3358  0.7178  0.0672
12672TIP3    H159507   1.759   5.739  14.458  1.3301  0.5579 -0.1045
12672TIP3    H259508   1.834   5.780  14.582  0.1977  0.6014  0.5732
12673TIP3   OH259509   5.387   2.307  16.021  0.0014 -0.4469  0.4099
12673TIP3    H159510   5.340   2.391  16.019  0.7625 -0.0149  0.3291
12673TIP3    H259511   5.445   2.314  16.097  0.7646 -0.5133 -0.1600
12674TIP3   OH259512   4.274   4.529  11.324  0.1324  0.2212  0.0559
12674TIP3    H159513   4.350   4.475  11.344 -0.4626 -0.1187  1.4738
12674TIP3    H259514   4.226   4.480  11.258  1.8603  1.0989 -1.8908
12675TIP3   OH259515   0.849   1.158   2.083 -0.1647  0.2881  0.0572
12675TIP3    H159516   0.875   1.070   2.110  0.2459  0.3125 -0.2437
12675TIP3    H259517   0.754   1.155   2.080 -0.1648 -0.0550  0.3537
12676TIP3   OH259518   0.331   1.783  12.803 -0.3312 -0.3250  0.3952
12676TIP3    H159519   0.381   1.840  12.744 -1.9310 -0.8930 -1.5574
12676TIP3    H259520   0.240   1.808  12.788 -0.7222  0.1188  3.2944
12677TIP3   OH259521   5.538   5.466  14.076  0.1096 -1.1224 -0.0453
12677TIP3    H159522   5.530   5.474  13.981 -2.0881 -0.0479  0.2069
12677TIP3    H259523   5.559   5.554  14.107  1.6436 -1.6281  0.4182
12678TIP3   OH259524   6.665   4.997   1.074 -0.1040  0.1069 -0.0522
12678TIP3    H159525   6.706   4.975   1.158 -0.6633  0.7328  0.3950
12678TIP3    H259526   6.572   5.000   1.094 -0.1138  1.9916 -0.2862
12679TIP3   OH259527   3.483   5.411   0.615  0.0962 -0.3451  0.7282
12679TIP3    H159528   3.393   5.443   0.609  0.2782  0.2441  1.0898
12679TIP3    H259529   3.537   5.490   0.611  0.6077 -0.7087  0.2996
12680TIP3   OH259530   2.574   4.648  10.232  0.5042 -0.3740 -0.2555
12680TIP3    H159531   2.512   4.602  10.174  1.6149 -2.6761  0.3211
12680TIP3    H259532   2.535   4.641  10.319  0.0269  0.9838 -0.3439
12681TIP3   OH259533   4.696   2.351   0.760 -0.3137  0.2992  0.6996
12681TIP3    H159534   4.617   2.386   0.718  0.3839 -0.1665 -1.0601
12681TIP3    H259535   4.692   2.257   0.743  1.0765  0.3996 -0.2035
12682TIP3   OH259536   4.487   3.469  10.619 -0.0859 -1.1418  0.0092
12682TIP3    H159537   4.494   3.538  10.684 -2.3357 -0.1834 -0.7035
12682TIP3    H259538   4.528   3.506  10.540 -2.0226 -0.2451 -0.6157
12683TIP3   OH259539   4.780   1.881   4.233 -0.1459  0.0646 -0.0294
12683TIP3    H159540   4.740   1.807   4.279  0.9257 -0.8649 -0.5805
12683TIP3    H259541   4.706   1.935   4.207 -0.8239  0.2323  2.1465
12684TIP3   OH259542   0.852   2.538  15.057 -0.0686 -0.3037 -0.6433
12684TIP3    H159543   0.863   2.571  15.146  0.9802  1.0155 -1.2525
12684TIP3    H259544   0.775   2.584  15.024 -0.7508 -1.1513 -0.2744
12685TIP3   OH259545   4.028   5.270  16.924 -0.0417 -0.3757 -1.0502
12685TIP3    H159546   4.018   5.281  17.018  0.4113 -3.0754 -0.6380
12685TIP3    H259547   3.965   5.202  16.901  1.5715 -1.5341 -2.2335
12686TIP3   OH259548   6.700   3.559   3.865 -0.2452 -0.0886  0.3108
12686TIP3    H159549   6.620   3.562   3.919 -0.2849  0.9988  0.2108
12686TIP3    H259550   6.684   3.623   3.796 -0.0495 -1.2336 -0.8138
12687TIP3   OH259551   3.497   5.967  11.815 -0.5543 -0.1648  0.3717
12687TIP3    H159552   3.464   5.898  11.757 -0.4877 -0.0175  0.1573
12687TIP3    H259553   3.435   6.039  11.805 -0.1144  0.1537 -0.1121
12688TIP3   OH259554   1.694   6.410  16.956  0.3916 -0.0564  0.0243
12688TIP3    H159555   1.621   6.348  16.953  0.0794  0.2089  1.6316
12688TIP3    H259556   1.688   6.450  17.043 -0.0495  3.0002 -1.3491
12689TIP3   OH259557   6.460   5.061   3.497 -0.6927 -0.5164 -0.0364
12689TIP3    H159558   6.481   5.049   3.405 -0.0575 -1.0746  0.1829
12689TIP3    H259559   6.522   5.006   3.544 -0.7783  0.0385  0.7454
12690TIP3   OH259560   6.658   4.429  12.400 -0.4830 -0.0425  0.0705
12690TIP3    H159561   6.723   4.408  12.332  0.9253 -2.3137  2.0167
12690TIP3    H259562   6.586   4.369  12.383 -0.9825  0.7363 -0.5749
12691TIP3   OH259563   1.928   4.675   6.057 -0.4731  0.2783  0.3621
12691TIP3    H159564   1.963   4.589   6.081  0.0066  0.9668  2.2521
12691TIP3    H259565   1.866   4.657   5.986  2.1038 -1.2104 -1.5937
12692TIP3   OH259566   5.232   3.214   5.070 -0.0502  0.1557  0.6152
12692TIP3    H159567   5.221   3.120   5.055 -3.3746  0.3356  1.5039
12692TIP3    H259568   5.326   3.227   5.070  0.4392 -2.9235 -1.0593
12693TIP3   OH259569   5.365   3.119   6.117 -0.7337 -0.2875  0.1375
12693TIP3    H159570   5.412   3.037   6.106  1.0007  0.7052 -0.0502
12693TIP3    H259571   5.307   3.104   6.191  1.1798 -1.0011  1.5451
12694TIP3   OH259572   6.108   5.844   0.838  0.2258 -0.6105 -0.3241
12694TIP3    H159573   6.171   5.791   0.887  0.8897  0.1202 -0.3795
12694TIP3    H259574   6.157   5.923   0.813 -0.5218 -0.3294 -0.9235
12695TIP3   OH259575   2.441   6.080   1.257  0.2248 -0.3487 -0.5627
12695TIP3    H159576   2.531   6.111   1.265 -0.2170  0.5058  1.3374
12695TIP3    H259577   2.395   6.153   1.216  0.3188 -0.6861 -1.2883
12696TIP3   OH259578   4.732   3.385  16.885 -0.3082 -0.4949  0.2022
12696TIP3    H159579   4.757   3.473  16.913 -0.2914 -0.6908  0.7967
12696TIP3    H259580   4.741   3.387  16.790 -0.3748  0.1700  0.2053
12697TIP3   OH259581   0.686   4.856  14.912  0.3900 -0.1559  0.9762
12697TIP3    H159582   0.764   4.898  14.950  0.8470  0.1315 -0.2547
12697TIP3    H259583   0.613   4.912  14.940  0.8624  0.7693  0.3772
12698TIP3   OH259584   4.943   5.626  11.641  0.2788 -0.2055  0.2270
12698TIP3    H159585   4.986   5.673  11.713 -0.1520 -2.2269  1.8448
12698TIP3    H259586   5.013   5.574  11.601  0.9914  2.5158 -2.2470
12699TIP3   OH259587   5.640   2.812   1.136 -0.0908 -0.1347 -0.5850
12699TIP3    H159588   5.626   2.724   1.102  0.4616 -0.1663 -0.7478
12699TIP3    H259589   5.704   2.801   1.207 -1.4838 -0.1063  0.6932
12700TIP3   OH259590   6.063   1.243  13.874 -0.0864 -0.0900  0.0795
12700TIP3    H159591   6.026   1.325  13.839  1.3335  0.1086 -0.9879
12700TIP3    H259592   6.156   1.260  13.884 -0.2522 -0.5657  2.8741
12701TIP3   OH259593   6.133   2.417  16.780 -0.4558 -0.6283  0.1715
12701TIP3    H159594   6.062   2.473  16.748  0.0245 -0.0111  0.1539
12701TIP3    H259595   6.200   2.423  16.711  0.4641  0.4630  1.1262
12702TIP3   OH259596   6.814   3.053  10.410 -0.4956 -0.3206 -0.0907
12702TIP3    H159597   6.845   3.054  10.319  2.0241  1.5336  0.7423
12702TIP3    H259598   6.848   2.971  10.446  1.1118  0.3726  0.0124
12703TIP3   OH259599   0.262   2.245   5.003  0.3576  0.5608  0.1760
12703TIP3    H159600   0.227   2.334   4.993 -0.8047  0.2172  1.0609
12703TIP3    H259601   0.273   2.234   5.097  0.8179 -0.1215  0.0498
12704TIP3   OH259602   3.476   3.342  12.445  0.0967 -0.0790  0.1361
12704TIP3    H159603   3.524   3.411  12.399  0.6975 -1.6120 -1.6524
12704TIP3    H259604   3.389   3.343  12.405 -0.2874  0.4450  0.9776
12705TIP3   OH259605   6.798   4.796   4.639 -0.4848 -0.7440 -0.2440
12705TIP3    H159606   6.776   4.889   4.633  2.2127  0.2041  2.8846
12705TIP3    H259607   6.812   4.769   4.548 -1.2810  1.9063 -1.2065
12706TIP3   OH259608   6.182   6.807  10.564 -0.5943  0.1402 -0.2177
12706TIP3    H159609   6.275   6.807  10.543 -0.4202  1.8298  0.4997
12706TIP3    H259610   6.171   6.880  10.624 -1.6856 -2.4498  2.9132
12707TIP3   OH259611   3.046   1.901   1.650  0.4768 -0.2527 -0.3507
12707TIP3    H159612   3.040   1.988   1.688  0.7068  0.2791 -1.5122
12707TIP3    H259613   2.957   1.883   1.618  0.2572 -0.7428  0.5407
12708TIP3   OH259614   5.802   3.426   0.539  0.6520  0.2177 -0.5446
12708TIP3    H159615   5.830   3.517   0.536 -2.7266  1.4634  2.4932
12708TIP3    H259616   5.745   3.416   0.462  3.0078 -0.1352 -2.3111
12709TIP3   OH259617   1.192   6.708   2.311 -0.2864 -0.1733 -0.4231
12709TIP3    H159618   1.278   6.666   2.318  0.2536  0.8427 -0.8756
12709TIP3    H259619   1.209   6.801   2.323 -1.7753 -0.2454  2.7656
12710TIP3   OH259620   3.172   3.958  15.700  0.8070  0.0020  0.3911
12710TIP3    H159621   3.149   3.972  15.608  1.8250 -0.2698  0.0972
12710TIP3    H259622   3.260   3.993  15.709  0.7022  0.0527  1.2753
12711TIP3   OH259623   5.721   5.399   2.249  0.0625  0.0308 -0.4341
12711TIP3    H159624   5.776   5.436   2.181  0.7850  0.2227  0.2474
12711TIP3    H259625   5.660   5.470   2.272  0.4739  0.3010 -0.1757
12712TIP3   OH259626   3.497   1.913   4.074 -0.0682 -0.1885  0.5506
12712TIP3    H159627   3.572   1.860   4.045  1.0339  1.4187  0.4127
12712TIP3    H259628   3.425   1.887   4.016  1.0230  0.0139 -0.9181
12713TIP3   OH259629   4.871   6.601  13.845  0.0445 -0.2963 -0.2450
12713TIP3    H159630   4.801   6.582  13.782 -1.7629 -1.5586  2.0348
12713TIP3    H259631   4.927   6.523  13.844 -0.5589 -0.7551  0.3797
12714TIP3   OH259632   5.136   0.961  14.743 -0.0199  0.1737 -0.0654
12714TIP3    H159633   5.169   0.928  14.826  1.3476 -0.1312 -0.7055
12714TIP3    H259634   5.085   0.889  14.707  1.7795 -0.7671 -0.8034
12715TIP3   OH259635   1.438   1.905   3.071 -0.1512  0.1696  0.8936
12715TIP3    H159636   1.387   1.826   3.089 -1.0753  0.2393 -1.3325
12715TIP3    H259637   1.433   1.955   3.153 -1.5137 -1.0009  1.5512
12716TIP3   OH259638   2.412   0.685  14.581 -0.0404 -0.6694  0.2507
12716TIP3    H159639   2.356   0.708  14.655 -0.7910  0.5682 -0.6911
12716TIP3    H259640   2.434   0.768  14.540  2.1921 -1.1622  0.3699
12717TIP3   OH259641   5.239   2.786  15.551  0.1157 -0.5103 -0.2517
12717TIP3    H159642   5.296   2.835  15.492 -0.0488 -1.0487 -0.8618
12717TIP3    H259643   5.296   2.719  15.590  0.1125 -0.4564 -0.1524
12718TIP3   OH259644   4.202   3.064  10.336 -0.3435 -0.7182 -0.2505
12718TIP3    H159645   4.157   3.148  10.336  0.9064 -0.0387 -1.3218
12718TIP3    H259646   4.134   3.000  10.314 -0.7129  0.3380 -2.2402
12719TIP3   OH259647   1.022   0.456  17.234  0.3884  0.2684 -0.3394
12719TIP3    H159648   0.985   0.499  17.157  0.6440  1.3153  0.1105
12719TIP3    H259649   1.115   0.481  17.233  0.0848  1.5531  1.1261
12720TIP3   OH259650   2.907   0.940   5.779  1.0704 -0.4973 -0.1878
12720TIP3    H159651   2.839   0.914   5.717  0.7779  1.0012 -0.5093
12720TIP3    H259652   2.860   0.980   5.852  1.3916 -2.6011  1.2120
12721TIP3   OH259653   5.916   6.267   5.131 -0.1289  0.2635 -0.5568
12721TIP3    H159654   5.871   6.304   5.055 -1.1812 -1.1806 -0.6786
12721TIP3    H259655   6.001   6.310   5.133 -1.1721  2.3667 -0.8905
12722TIP3   OH259656   0.274   3.978   2.367  0.3117  0.6112  0.3239
12722TIP3    H159657   0.328   3.953   2.441 -0.5826 -2.8186 -0.0901
12722TIP3    H259658   0.308   3.927   2.294 -1.5344  0.6936 -0.6281
12723TIP3   OH259659   0.417   0.451  15.035 -0.1795  0.0715 -0.3410
12723TIP3    H159660   0.412   0.534  14.988 -0.9223  0.6911  0.7996
12723TIP3    H259661   0.511   0.436  15.049 -0.0712  1.0311 -0.0227
12724TIP3   OH259662   1.895   5.777   2.716  0.1458 -0.1273 -0.0061
12724TIP3    H159663   1.820   5.746   2.665  0.0573 -0.9559  0.6170
12724TIP3    H259664   1.883   5.737   2.802  0.5992  0.8034  0.4975
12725TIP3   OH259665   0.356   1.014  14.929 -0.2336  0.4617  0.4752
12725TIP3    H159666   0.311   1.046  15.007  1.4776  0.5487  1.4512
12725TIP3    H259667   0.294   1.029  14.858 -1.6091  0.8718  1.7311
12726TIP3   OH259668   1.953   5.406  14.433 -0.0145 -0.4668 -0.0076
12726TIP3    H159669   2.041   5.441  14.443 -0.1295  0.3339 -1.6198
12726TIP3    H259670   1.925   5.385  14.522  1.4880  0.0208  0.5939
12727TIP3   OH259671   3.361   4.412   1.322 -0.0881 -0.2369  0.3391
12727TIP3    H159672   3.343   4.477   1.255  1.0114  0.6670  0.9014
12727TIP3    H259673   3.456   4.397   1.316 -0.0457 -0.4457  1.4208
12728TIP3   OH259674   6.258   0.343  14.213 -0.0381 -0.2773  0.1408
12728TIP3    H159675   6.234   0.311  14.300  1.2412 -0.0649  0.5905
12728TIP3    H259676   6.230   0.435  14.213  1.1484  0.0975  0.8279
12729TIP3   OH259677   6.223   5.072  12.257 -0.0629 -0.0941 -0.4047
12729TIP3    H159678   6.132   5.094  12.275  0.3981  2.4618 -1.0735
12729TIP3    H259679   6.254   5.029  12.337 -1.2259  0.9834  0.6359
12730TIP3   OH259680   5.735   6.149  14.371 -0.2322  0.4775 -0.1461
12730TIP3    H159681   5.740   6.165  14.277  0.9202  0.7186 -0.0628
12730TIP3    H259682   5.666   6.208  14.402 -1.4114 -0.4431 -0.9987
12731TIP3   OH259683   3.022   0.439   2.584  0.3123 -0.6054 -0.5124
12731TIP3    H159684   2.938   0.399   2.564  0.3711 -0.6335 -0.7110
12731TIP3    H259685   3.004   0.533   2.590  0.4510 -0.4927 -1.6171
12732TIP3   OH259686   0.260   5.156   2.292 -0.5399  0.0980 -0.1064
12732TIP3    H159687   0.170   5.141   2.320 -0.3605  0.9602  0.9376
12732TIP3    H259688   0.294   5.220   2.354  0.9900 -0.6906 -0.1046
12733TIP3   OH259689   2.539   4.971   4.182 -0.0883 -0.0615  0.0666
12733TIP3    H159690   2.448   5.002   4.186 -0.5495 -1.5596  1.7718
12733TIP3    H259691   2.542   4.915   4.104 -0.3611  0.7876 -0.5630
12734TIP3   OH259692   0.298   3.750  15.165 -0.1619 -0.1931  0.5893
12734TIP3    H159693   0.297   3.789  15.078 -1.1757 -1.2703  0.0987
12734TIP3    H259694   0.301   3.824  15.225 -1.0507  0.6101 -0.3432
12735TIP3   OH259695   2.478   2.469   5.674  0.1387 -0.1789  0.0492
12735TIP3    H159696   2.486   2.407   5.601 -0.7246  0.1370 -0.3241
12735TIP3    H259697   2.484   2.416   5.753 -2.0910 -0.9438 -0.2688
12736TIP3   OH259698   1.591   6.026   4.853  0.0578 -0.0288  0.4243
12736TIP3    H159699   1.503   5.993   4.871  0.4164 -0.6672  1.0369
12736TIP3    H259700   1.639   6.011   4.935  1.1035 -0.9569 -0.3454
12737TIP3   OH259701   2.853   6.304   4.962  0.1545 -0.2713  0.6414
12737TIP3    H159702   2.925   6.344   5.011 -0.2913  1.1324  0.1867
12737TIP3    H259703   2.845   6.358   4.883  1.1101 -2.6865 -1.1930
12738TIP3   OH259704   5.428   5.643  13.229  0.0329  0.1175  0.4828
12738TIP3    H159705   5.515   5.606  13.211 -0.4377 -2.4952  3.0904
12738TIP3    H259706   5.445   5.724  13.276  1.0803 -0.5804  1.3224
12739TIP3   OH259707   5.630   3.963   3.744 -0.3525  0.3023 -0.2740
12739TIP3    H159708   5.645   3.960   3.838  0.1607  1.6542 -0.3158
12739TIP3    H259709   5.708   3.922   3.706 -0.5222 -0.1681 -0.1220
12740TIP3   OH259710   0.588   4.427   3.732  0.1598 -0.3529 -0.4454
12740TIP3    H159711   0.582   4.497   3.667  1.5525 -1.4025 -1.7319
12740TIP3    H259712   0.521   4.449   3.797 -1.1400  0.8038 -2.1392
12741TIP3   OH259713   0.566   3.376   5.701  0.6839  0.0147  0.5153
12741TIP3    H159714   0.527   3.463   5.706 -1.5335 -0.8371 -1.1261
12741TIP3    H259715   0.564   3.344   5.791 -2.4547  0.0359  0.5262
12742TIP3   OH259716   0.310   4.977   5.717  0.1732 -0.5018 -0.5988
12742TIP3    H159717   0.227   5.024   5.715  0.9120  0.8328 -0.3737
12742TIP3    H259718   0.324   4.950   5.626 -1.6062 -2.7391 -0.2603
12743TIP3   OH259719   6.512   0.699  11.082  0.7265  0.3581  0.0858
12743TIP3    H159720   6.586   0.666  11.030  0.0191  0.2864 -0.9073
12743TIP3    H259721   6.472   0.621  11.120  0.0623  0.2113 -0.8902
12744TIP3   OH259722   6.261   3.524  12.201  0.1107  0.0435  0.2659
12744TIP3    H159723   6.303   3.601  12.240  1.9728  0.2349 -1.9420
12744TIP3    H259724   6.170   3.550  12.186  0.3477  1.2813  0.9494
12745TIP3   OH259725   4.839   5.921   2.607  0.2645  0.5025 -0.0533
12745TIP3    H159726   4.796   5.900   2.524 -1.3627  0.6180  0.7443
12745TIP3    H259727   4.933   5.921   2.586  0.0177 -1.9603 -1.3283
12746TIP3   OH259728   4.634   0.559   1.290  0.1786  0.7684 -0.7807
12746TIP3    H159729   4.725   0.548   1.318  0.5983  2.4879 -1.4469
12746TIP3    H259730   4.632   0.525   1.201  0.4667  1.8454 -1.2120
12747TIP3   OH259731   6.257   0.888   3.889 -0.2807 -0.5636 -0.2948
12747TIP3    H159732   6.202   0.964   3.872 -0.3559 -0.7389 -0.8350
12747TIP3    H259733   6.346   0.923   3.894 -0.5228 -0.1375  1.5192
12748TIP3   OH259734   6.642   5.182   0.339 -0.5396 -0.2164 -0.3249
12748TIP3    H159735   6.683   5.266   0.362 -0.0283 -0.5337 -0.0623
12748TIP3    H259736   6.703   5.116   0.371 -0.6213 -0.6896 -1.1194
12749TIP3   OH259737   5.364   4.943  14.067 -0.6334  0.1399 -0.1961
12749TIP3    H159738   5.397   5.031  14.084  0.3183 -0.0662 -0.9363
12749TIP3    H259739   5.304   4.926  14.139  0.5314  0.7072  0.9312
12750TIP3   OH259740   4.724   4.801   4.572  0.9783 -0.3666  0.1019
12750TIP3    H159741   4.660   4.871   4.588 -0.2745 -1.7767  1.4189
12750TIP3    H259742   4.674   4.730   4.532  1.9231 -1.0935  0.1774
12751TIP3   OH259743   6.300   5.622  16.583  0.5522 -0.7191  0.1983
12751TIP3    H159744   6.273   5.682  16.514 -1.3564  0.2903  1.7584
12751TIP3    H259745   6.391   5.644  16.601  0.6906 -0.1764 -1.1590
12752TIP3   OH259746   4.389   4.612   3.719 -0.0267  0.2664 -0.2246
12752TIP3    H159747   4.483   4.602   3.735 -0.2134  0.7870  1.2337
12752TIP3    H259748   4.380   4.701   3.686 -0.2167  0.8273  1.3234
12753TIP3   OH259749   1.439   2.511  10.622 -0.3017 -0.1202  0.1655
12753TIP3    H159750   1.349   2.492  10.596 -0.0108  2.0541 -2.6591
12753TIP3    H259751   1.441   2.606  10.633  1.4568 -0.2284  1.0096
12754TIP3   OH259752   4.899   2.615  12.952  0.3078 -0.1326 -0.1585
12754TIP3    H159753   4.821   2.627  13.005  0.1831 -0.0810 -0.3546
12754TIP3    H259754   4.875   2.547  12.889  0.0555  0.6607 -0.9272
12755TIP3   OH259755   3.063   4.959  15.335 -0.5133 -0.2603 -0.2353
12755TIP3    H159756   2.976   4.985  15.365  0.0555  1.8578 -0.3133
12755TIP3    H259757   3.118   4.964  15.414 -0.1106  0.1610 -0.5385
12756TIP3   OH259758   4.615   3.256  14.405 -0.0598  0.3886 -0.0131
12756TIP3    H159759   4.629   3.236  14.313 -1.8687  1.0226 -0.4247
12756TIP3    H259760   4.652   3.343  14.417  0.3895  0.2101 -0.0682
12757TIP3   OH259761   0.356   0.529  17.026 -0.2767 -0.4098  0.2480
12757TIP3    H159762   0.439   0.483  17.013 -1.2564 -2.5479  1.1695
12757TIP3    H259763   0.322   0.543  16.938  0.4839 -0.6809 -0.0866
12758TIP3   OH259764   5.655   1.841   5.243 -0.2302  0.0675  0.0285
12758TIP3    H159765   5.682   1.750   5.232 -1.2189 -0.2721  0.3704
12758TIP3    H259766   5.710   1.874   5.314  0.6984 -0.0131 -0.6321
12759TIP3   OH259767   4.063   3.256   3.064 -0.0010 -0.1431 -0.4556
12759TIP3    H159768   4.096   3.329   3.116 -1.3896 -0.7036  1.2482
12759TIP3    H259769   4.141   3.209   3.036  0.7648 -0.2255  1.7179
12760TIP3   OH259770   6.706   3.122   5.296 -0.3640 -0.2872  0.3277
12760TIP3    H159771   6.740   3.150   5.211  1.2564 -2.6308  0.1464
12760TIP3    H259772   6.618   3.160   5.301  0.7249  2.5322 -0.9746
12761TIP3   OH259773   1.984   5.918  16.769  0.0168  0.2517  0.7311
12761TIP3    H159774   1.905   5.941  16.719  1.9643  3.2606 -1.1734
12761TIP3    H259775   2.016   6.002  16.801  1.0234 -1.2467  3.7346
12762TIP3   OH259776   1.926   2.578   2.401 -0.0626 -0.5284  0.6858
12762TIP3    H159777   1.953   2.648   2.460 -1.2129  0.6157 -0.1309
12762TIP3    H259778   1.888   2.512   2.459  0.7849 -0.3821  1.4314
12763TIP3   OH259779   2.423   1.700   5.551 -0.1855 -0.1382 -0.5108
12763TIP3    H159780   2.458   1.789   5.557  2.7299 -1.2441 -0.1340
12763TIP3    H259781   2.363   1.693   5.625  1.8028  0.6070  1.2499
12764TIP3   OH259782   0.344   0.372   0.311 -0.2461  0.2295  0.3030
12764TIP3    H159783   0.379   0.289   0.278  1.0198  0.7206  0.3811
12764TIP3    H259784   0.285   0.347   0.381  0.5681 -0.5836  0.7122
12765TIP3   OH259785   3.645   0.840  13.679  0.0709 -0.4225 -0.0602
12765TIP3    H159786   3.675   0.920  13.636  1.0305  0.9735  3.0591
12765TIP3    H259787   3.689   0.769  13.632  3.0638  1.2047  0.2111
12766TIP3   OH259788   6.017   6.751   0.056  0.7303  0.3142  0.2899
12766TIP3    H159789   6.107   6.780   0.074  0.2727  0.8615  1.7850
12766TIP3    H259790   5.995   6.694   0.130  0.4483 -1.1974 -0.9553
12767TIP3   OH259791   6.631   3.675  13.823  0.0528 -0.0212 -0.0658
12767TIP3    H159792   6.646   3.586  13.792 -1.6116  0.2511 -1.7543
12767TIP3    H259793   6.635   3.669  13.918  0.1059 -1.8602 -0.1709
12768TIP3   OH259794   6.816   4.944  13.367  0.4969 -0.3761  0.0566
12768TIP3    H159795   6.903   4.958  13.404  0.3576  1.1110 -0.1733
12768TIP3    H259796   6.802   5.018  13.308 -1.3085 -0.0679  0.8264
12769TIP3   OH259797   6.125   4.110   1.030 -0.1197 -0.0812  0.0529
12769TIP3    H159798   6.059   4.063   1.081 -1.6881  0.3986 -1.5017
12769TIP3    H259799   6.167   4.169   1.094 -3.2191  1.7593  0.4966
12770TIP3   OH259800   1.445   3.560   6.067  0.1457 -0.8689  0.5693
12770TIP3    H159801   1.540   3.557   6.058  0.0573 -0.1354 -0.5998
12770TIP3    H259802   1.430   3.545   6.161  1.4251 -0.5672  0.8334
12771TIP3   OH259803   0.172   0.001   4.789 -0.0294 -0.4949  0.5651
12771TIP3    H159804   0.214   0.063   4.730  0.3631 -1.0044  0.3033
12771TIP3    H259805   0.227  -0.077   4.785 -0.2777 -0.7078  1.2261
12772TIP3   OH259806   3.218   5.208   1.607  0.4326  0.3822 -0.2570
12772TIP3    H159807   3.220   5.169   1.694 -2.0328  0.3880 -0.1665
12772TIP3    H259808   3.181   5.296   1.620  1.3012  0.8996 -1.1356
12773TIP3   OH259809   6.257   1.185   3.856 -0.2333 -0.1555  0.1180
12773TIP3    H159810   6.268   1.269   3.812 -0.7701  0.0081  0.2902
12773TIP3    H259811   6.206   1.205   3.935  1.9987 -0.1906  1.6153
12774TIP3   OH259812   5.628   1.072  15.427 -1.2718  0.6792  0.2701
12774TIP3    H159813   5.676   1.054  15.346  0.2103 -0.4307  1.3631
12774TIP3    H259814   5.626   1.167  15.433  0.3157  0.7562 -0.1015
12775TIP3   OH259815   6.494   5.904   1.921  0.4448  0.3434  0.1369
12775TIP3    H159816   6.536   5.968   1.863 -1.0418  1.9101  0.7482
12775TIP3    H259817   6.400   5.916   1.905  0.0861 -0.3782  1.6423
12776TIP3   OH259818   6.597   2.703  11.653 -0.1642 -0.8759  0.2035
12776TIP3    H159819   6.571   2.749  11.573 -0.0268 -0.2268  0.5263
12776TIP3    H259820   6.649   2.767  11.701  0.9297 -1.7282  0.1704
12777TIP3   OH259821   6.652   0.394   2.163 -0.1845 -0.1367  0.2340
12777TIP3    H159822   6.644   0.445   2.244 -1.1536 -0.4976  0.3743
12777TIP3    H259823   6.721   0.331   2.182  1.0984  1.1677  0.0263
12778TIP3   OH259824   3.251   3.727   5.009  0.0491 -0.2723 -0.0478
12778TIP3    H159825   3.201   3.681   4.941  0.2089  1.1962 -1.1770
12778TIP3    H259826   3.318   3.775   4.961  0.2057  0.7388  1.1571
12779TIP3   OH259827   3.024   6.291   1.722 -0.2040  0.4240  0.0579
12779TIP3    H159828   3.008   6.358   1.655  1.0845  0.1529 -0.5428
12779TIP3    H259829   2.951   6.230   1.714 -1.5729  1.9252  0.8330
12780TIP3   OH259830   1.543   6.313   6.139  0.1882  0.4864 -0.1073
12780TIP3    H159831   1.454   6.281   6.124 -0.2793  1.7661 -0.0670
12780TIP3    H259832   1.594   6.276   6.066 -0.1958 -0.9029  0.3067
12781TIP3   OH259833   2.293   5.739   0.281  0.2561  0.1950  0.5786
12781TIP3    H159834   2.266   5.825   0.247  0.1930  0.1612  0.5421
12781TIP3    H259835   2.385   5.750   0.306  0.3540  0.1730  0.2338
12782TIP3   OH259836   5.184   6.530  15.508  0.8546 -0.1910 -0.2684
12782TIP3    H159837   5.102   6.566  15.475 -0.2731 -0.8294  1.7416
12782TIP3    H259838   5.161   6.444  15.543  2.4942 -0.6496 -0.2328
12783TIP3   OH259839   6.071   1.875  12.988  0.3489  0.9109 -0.0358
12783TIP3    H159840   6.112   1.961  12.994 -1.0496  1.4725  1.9101
12783TIP3    H259841   5.995   1.889  12.932 -0.2438  1.1027  0.8061
12784TIP3   OH259842   0.176   3.996   1.545  0.5462  0.4149  0.1884
12784TIP3    H159843   0.179   3.902   1.531 -0.0003  0.3560  0.4624
12784TIP3    H259844   0.096   4.011   1.594  0.2020  1.1094 -0.5662
12785TIP3   OH259845   3.426   2.928  16.314 -0.3699 -0.0286 -0.6244
12785TIP3    H159846   3.438   2.833  16.314 -1.0559 -0.1177 -1.4214
12785TIP3    H259847   3.485   2.959  16.246 -0.0834  0.1221 -0.3064
12786TIP3   OH259848   2.987   1.150   0.354 -0.0241  0.1132 -0.3096
12786TIP3    H159849   2.999   1.208   0.279 -2.3893 -0.6039 -1.2856
12786TIP3    H259850   3.019   1.065   0.323  0.1263  0.0943 -0.0996
12787TIP3   OH259851   2.414   4.631   3.301 -0.1940  0.0953 -0.1088
12787TIP3    H159852   2.447   4.578   3.374  0.7731  0.7737 -0.0353
12787TIP3    H259853   2.409   4.719   3.337  0.9851  0.5630 -1.0678
12788TIP3   OH259854   6.410   6.506  16.969 -0.2687  0.0526  0.2328
12788TIP3    H159855   6.321   6.542  16.970 -0.4096 -0.2749 -0.4019
12788TIP3    H259856   6.467   6.581  16.954 -0.5399  0.0735 -0.7492
12789TIP3   OH259857   6.666   4.744   6.494 -0.6601 -0.6685 -0.0704
12789TIP3    H159858   6.716   4.666   6.520 -0.5309 -0.5170  0.1356
12789TIP3    H259859   6.726   4.792   6.437 -0.8576 -0.8809 -0.4607
12790TIP3   OH259860   1.327   5.065   4.915  0.0956 -0.1616 -0.9212
12790TIP3    H159861   1.296   5.128   4.850  1.6676  0.7810 -0.7788
12790TIP3    H259862   1.367   5.119   4.983  0.4880 -1.2593 -0.2749
12791TIP3   OH259863   2.032   2.650  15.343 -0.0194 -0.0012 -0.0405
12791TIP3    H159864   2.073   2.736  15.348 -1.8023  0.8438  0.5755
12791TIP3    H259865   2.087   2.594  15.397  1.0532  0.7920 -0.2923
12792TIP3   OH259866   6.774   0.152   2.079 -0.0583 -0.0177  0.4175
12792TIP3    H159867   6.703   0.190   2.027 -0.2242 -1.0385 -0.1315
12792TIP3    H259868   6.853   0.197   2.049 -0.4522  1.0204  0.9253
12793TIP3   OH259869   0.468   0.097   3.721 -0.0886 -0.9926  0.2564
12793TIP3    H159870   0.520   0.029   3.677  1.8146  0.1665  0.6660
12793TIP3    H259871   0.435   0.151   3.649  2.6839  0.6605  0.1725
12794TIP3   OH259872   6.167   2.670  12.682 -0.3076  0.4257  0.1943
12794TIP3    H159873   6.250   2.688  12.639 -0.0301 -0.9383  0.1235
12794TIP3    H259874   6.169   2.721  12.763  1.2382 -0.7648  0.9160
12795TIP3   OH259875   1.038   4.888  12.942 -0.6727 -0.3132 -0.0591
12795TIP3    H159876   0.999   4.963  12.897 -0.0146  0.1160  0.0683
12795TIP3    H259877   1.121   4.874  12.897 -0.0120  0.1121  1.0129
12796TIP3   OH259878   5.926   0.337   3.385  1.1419 -0.2940  0.1076
12796TIP3    H159879   5.863   0.402   3.351  1.1502 -0.2348  0.2046
12796TIP3    H259880   5.875   0.284   3.447  1.4618  0.4786  1.0521
12797TIP3   OH259881   0.134   5.798   2.234 -0.0049  0.1389 -0.4451
12797TIP3    H159882   0.169   5.865   2.293  1.7540 -0.2968 -0.9740
12797TIP3    H259883   0.061   5.840   2.190  0.8005  1.5622 -0.4404
12798TIP3   OH259884   5.345   4.196  12.748 -0.0232 -0.1092 -0.0314
12798TIP3    H159885   5.288   4.120  12.763 -1.0869  0.3426 -1.6641
12798TIP3    H259886   5.323   4.257  12.818 -0.6405 -0.4655  0.0914
12799TIP3   OH259887   5.635   2.300   5.249 -0.0321  0.5473  0.2923
12799TIP3    H159888   5.661   2.359   5.178 -0.8807 -0.4201 -0.8485
12799TIP3    H259889   5.633   2.355   5.327  1.6460  1.4662 -0.2972
12800TIP3   OH259890   0.291   5.669   4.854 -0.3449  0.2438 -0.1290
12800TIP3    H159891   0.262   5.581   4.877  0.2394 -0.6934 -2.7656
12800TIP3    H259892   0.357   5.692   4.920 -0.1068 -1.5189  0.2574
12801TIP3   OH259893   5.320   4.220  12.219  0.0935 -0.0275  0.1199
12801TIP3    H159894   5.256   4.187  12.156 -0.4559  1.0824  0.0792
12801TIP3    H259895   5.289   4.308  12.240  1.3693  0.3514  0.4436
12802TIP3   OH259896   3.324   1.979   2.355 -0.4321  0.1356 -0.1734
12802TIP3    H159897   3.363   1.929   2.284 -1.1151 -0.1498 -0.3483
12802TIP3    H259898   3.339   1.925   2.433  0.8400  0.7245  0.0030
12803TIP3   OH259899   6.350   1.326   0.064  0.0474  0.2119 -0.0769
12803TIP3    H159900   6.299   1.247   0.051  1.0478 -0.5836  0.7500
12803TIP3    H259901   6.289   1.398   0.045 -1.3458 -0.7104  0.8496
12804TIP3   OH259902   3.969   2.491   4.256 -0.0558  0.1266 -0.6050
12804TIP3    H159903   3.920   2.554   4.204  1.9482  1.3736 -1.0678
12804TIP3    H259904   4.039   2.543   4.296  0.4622 -1.4560  0.5896
12805TIP3   OH259905   2.309   4.209   0.604  0.2161 -0.2552 -0.1995
12805TIP3    H159906   2.366   4.149   0.654 -1.3241  0.7010  2.8669
12805TIP3    H259907   2.363   4.286   0.588  0.8019 -0.6610 -0.1907
12806TIP3   OH259908   0.710   1.978  11.142  0.0654  0.1291 -0.5404
12806TIP3    H159909   0.795   1.991  11.183  0.1749 -1.1038 -0.3693
12806TIP3    H259910   0.722   1.903  11.084 -0.3925  1.1250 -1.9606
12807TIP3   OH259911   5.143   3.132  12.669 -0.3518 -0.1189 -0.2559
12807TIP3    H159912   5.099   3.163  12.590  1.0716 -0.2076 -1.0985
12807TIP3    H259913   5.132   3.037  12.668 -2.8281  0.0988  1.1917
12808TIP3   OH259914   0.593   5.153   5.453 -0.0927  0.2667 -0.0009
12808TIP3    H159915   0.633   5.099   5.521 -2.1985 -0.6971  0.5044
12808TIP3    H259916   0.659   5.157   5.384  0.8075 -1.4417  0.7321
12809TIP3   OH259917   5.282   0.213  11.411  0.8435 -0.2600  0.4995
12809TIP3    H159918   5.195   0.213  11.370  2.0155 -1.4738 -2.0502
12809TIP3    H259919   5.317   0.300  11.393 -0.2019  0.6393  2.4878
12810TIP3   OH259920   5.541   2.089  13.646 -0.1897  0.3291 -0.1439
12810TIP3    H159921   5.467   2.045  13.688 -0.0142 -0.4081 -0.6147
12810TIP3    H259922   5.601   2.019  13.623  0.1560  0.8309 -0.7749
12811TIP3   OH259923   4.015   3.776  11.807 -0.0473  0.1548  0.5742
12811TIP3    H159924   4.012   3.717  11.883  0.6896 -2.7631 -1.6031
12811TIP3    H259925   4.108   3.792  11.793 -0.2211  1.3966  0.7734
12812TIP3   OH259926   4.613   1.894  10.464  0.6039 -0.5069 -0.5891
12812TIP3    H159927   4.572   1.830  10.406  1.3279 -0.6204 -0.9746
12812TIP3    H259928   4.706   1.871  10.463  1.1052  1.4677 -1.9153
12813TIP3   OH259929   0.427   5.620   4.211 -0.2477  0.2188 -0.0672
12813TIP3    H159930   0.444   5.654   4.123  3.0080 -2.1403 -0.4590
12813TIP3    H259931   0.411   5.526   4.197  0.9173 -0.3023  1.8545
12814TIP3   OH259932   4.922   4.001   4.735 -0.3831 -0.5032 -0.4379
12814TIP3    H159933   4.892   4.049   4.812  0.3625 -1.0694  0.2135
12814TIP3    H259934   4.976   4.063   4.687 -0.3695 -0.3336 -0.2034
12815TIP3   OH259935   5.890   2.383   4.635 -0.0470 -0.1735  0.1680
12815TIP3    H159936   5.859   2.315   4.695  0.2766 -0.9954 -0.5751
12815TIP3    H259937   5.977   2.405   4.668  1.0742 -2.2446 -1.2745
12816TIP3   OH259938   2.575   3.302   5.887 -0.6943  0.3472  0.2856
12816TIP3    H159939   2.539   3.224   5.845  1.2816 -0.3447 -0.1988
12816TIP3    H259940   2.593   3.275   5.977  1.6150 -0.3215 -0.3450
12817TIP3   OH259941   2.325   1.402  15.106 -0.4362  0.1982  0.8167
12817TIP3    H159942   2.285   1.485  15.083 -1.0445 -0.6583 -1.3768
12817TIP3    H259943   2.271   1.336  15.061 -0.1284 -1.4025  2.7109
12818TIP3   OH259944   5.745   3.852   0.238 -0.0167  0.4365 -0.2141
12818TIP3    H159945   5.678   3.921   0.235 -0.2540  0.1914 -0.6420
12818TIP3    H259946   5.783   3.851   0.150 -1.2719 -1.2029 -0.7710
12819TIP3   OH259947   1.818   0.395  16.126  0.3331  0.3873  0.3879
12819TIP3    H159948   1.836   0.314  16.173 -0.3811 -0.8650 -1.4530
12819TIP3    H259949   1.726   0.387  16.100  0.6120  1.2461 -0.8640
12820TIP3   OH259950   5.867   4.584  12.622  0.1287 -0.3482 -0.5794
12820TIP3    H159951   5.843   4.665  12.668  1.3834  0.0210 -0.5394
12820TIP3    H259952   5.909   4.614  12.542 -0.3002 -0.9783 -1.0407
12821TIP3   OH259953   2.888   5.444  16.309 -0.1167 -0.0648 -0.3856
12821TIP3    H159954   2.947   5.482  16.374  1.5302 -0.0258 -1.8678
12821TIP3    H259955   2.803   5.483  16.328  0.9722  2.2597 -0.1339
12822TIP3   OH259956   0.105   4.693  13.810 -0.0412 -0.1464  0.1268
12822TIP3    H159957   0.197   4.721  13.810  0.4027 -1.4892 -1.9511
12822TIP3    H259958   0.060   4.758  13.756  0.3005 -1.2390 -1.5204
12823TIP3   OH259959   3.559   1.878   1.381 -0.1294  0.3842  0.1607
12823TIP3    H159960   3.616   1.860   1.456 -0.7735 -1.0110  0.3318
12823TIP3    H259961   3.521   1.964   1.400  0.1214  0.2819  1.1769
12824TIP3   OH259962   1.804   6.475  11.027  0.4081  0.5500 -0.0986
12824TIP3    H159963   1.816   6.411  10.956  0.6987 -0.0876  0.5199
12824TIP3    H259964   1.849   6.554  10.997  0.6937  0.2196 -0.5373
12825TIP3   OH259965   3.128   4.982  10.569 -0.4098 -0.2828 -0.0851
12825TIP3    H159966   3.164   5.039  10.638 -0.8344 -1.1752  0.8948
12825TIP3    H259967   3.200   4.971  10.507 -0.3429  1.3643 -0.3253
12826TIP3   OH259968   2.840   2.270  15.899  0.8074 -0.1224  0.5551
12826TIP3    H159969   2.779   2.267  15.825  1.5203 -3.5639  0.0344
12826TIP3    H259970   2.797   2.329  15.962 -2.4362 -1.4070 -0.3168
12827TIP3   OH259971   3.713   4.403   1.629 -0.0868  0.7013 -0.3043
12827TIP3    H159972   3.697   4.352   1.708  2.7678  0.9390  0.5057
12827TIP3    H259973   3.728   4.338   1.560  3.2885  0.3143  0.6703
12828TIP3   OH259974   0.549   1.788   5.177 -0.5237 -0.2048 -0.1536
12828TIP3    H159975   0.627   1.813   5.227 -0.2035 -0.5038 -0.4910
12828TIP3    H259976   0.479   1.782   5.242 -0.0343 -0.9431  0.3207
12829TIP3   OH259977   4.009   2.829  12.320  0.0650  0.0031 -0.0712
12829TIP3    H159978   3.946   2.758  12.305 -0.2571  0.5407 -1.2971
12829TIP3    H259979   4.094   2.789  12.304  0.0043 -0.5290  0.8606
12830TIP3   OH259980   1.826   2.467   4.740 -0.0578  0.5809 -0.2600
12830TIP3    H159981   1.858   2.557   4.743  0.3594  0.4339 -0.2677
12830TIP3    H259982   1.871   2.423   4.811  0.0091  0.2928 -0.4790
12831TIP3   OH259983   0.459   0.253  16.539  0.0601  0.2916 -0.0749
12831TIP3    H159984   0.488   0.193  16.471  0.1530 -0.5780  0.7195
12831TIP3    H259985   0.485   0.339  16.508 -1.1460  0.0506 -1.7952
12832TIP3   OH259986   6.798   4.215  12.798  0.0097 -0.3968  0.2249
12832TIP3    H159987   6.819   4.150  12.864 -0.0245 -0.0864  0.5414
12832TIP3    H259988   6.761   4.165  12.726  0.6695 -0.8088  0.1674
12833TIP3   OH259989   5.704   6.597   0.916 -0.0663  0.6128  0.1674
12833TIP3    H159990   5.683   6.671   0.972 -2.9206 -0.0837  0.0867
12833TIP3    H259991   5.627   6.540   0.921  1.3144 -1.4547 -1.2126
12834TIP3   OH259992   4.310   4.340   1.419  0.2151 -0.2498  0.5496
12834TIP3    H159993   4.239   4.287   1.383  0.3122  0.6246 -0.9736
12834TIP3    H259994   4.389   4.306   1.379  0.5866 -0.7267  1.6687
12835TIP3   OH259995   4.470   3.771  14.221 -0.2635 -0.9407 -0.0761
12835TIP3    H159996   4.525   3.845  14.247 -1.4105 -0.5658  1.3471
12835TIP3    H259997   4.451   3.785  14.128 -0.4873  0.5649  0.1967
12836TIP3   OH259998   3.965   0.839   2.952 -0.4339  0.0955 -0.1626
12836TIP3    H159999   3.924   0.827   3.037  0.3773  0.9852  0.3617
12836TIP3    H260000   4.034   0.904   2.967 -0.4412  0.4467 -1.5404
12837TIP3   OH260001   3.646   6.049   3.690  0.3936 -0.2658  0.2282
12837TIP3    H160002   3.562   6.063   3.735  0.7374  1.4162  0.3573
12837TIP3    H260003   3.709   6.037   3.761  1.0304  2.9118  0.2697
12838TIP3   OH260004   4.188   0.002   0.033  0.1264 -0.5348  0.1725
12838TIP3    H160005   4.186   0.079   0.090 -1.6679 -0.7084  0.3918
12838TIP3    H260006   4.275   0.003  -0.007  0.4549  1.0733  0.8934
12839TIP3   OH260007   4.213   4.844   2.808  0.2518  0.0695  0.4536
12839TIP3    H160008   4.274   4.881   2.743 -1.7723  2.1291 -0.3193
12839TIP3    H260009   4.215   4.906   2.881  1.1897 -1.3483  1.6746
12840TIP3   OH260010   4.783   3.518  15.846  0.2263 -0.6830 -0.0845
12840TIP3    H160011   4.726   3.536  15.771  0.5401 -1.8137 -0.6071
12840TIP3    H260012   4.855   3.580  15.837  0.8573 -1.5733 -1.3713
12841TIP3   OH260013   0.070   6.729  13.383  0.1845  0.2168  0.2745
12841TIP3    H160014   0.102   6.763  13.299 -1.9568  0.5112 -0.4558
12841TIP3    H260015  -0.020   6.704  13.366 -0.5791  1.1218  2.7153
12842TIP3   OH260016   4.066   0.687  12.183  0.0431 -0.6492  0.6035
12842TIP3    H160017   4.039   0.748  12.252 -0.9278 -2.1902  1.6241
12842TIP3    H260018   4.000   0.696  12.115 -0.7096 -1.3010  1.2265
12843TIP3   OH260019   4.421   6.301   3.551  0.4159  0.0369  0.1541
12843TIP3    H160020   4.494   6.354   3.520  0.2676 -0.7555 -1.6225
12843TIP3    H260021   4.343   6.351   3.525  0.3094 -0.0741  0.2651
12844TIP3   OH260022   6.310   2.441  11.851  0.0062 -0.3137 -0.4727
12844TIP3    H160023   6.215   2.434  11.847  0.0123 -0.6726 -0.1032
12844TIP3    H260024   6.329   2.532  11.830 -0.5052  0.0728  0.6745
12845TIP3   OH260025   1.125   1.081   0.012  0.3917 -0.1749  0.0792
12845TIP3    H160026   1.046   1.103  -0.037 -0.0691 -1.6945  0.0855
12845TIP3    H260027   1.193   1.136  -0.025 -0.2421 -0.3341 -1.3651
12846TIP3   OH260028   2.208   3.025   2.380 -0.2790 -1.0935  0.3622
12846TIP3    H160029   2.120   3.057   2.359  0.3536  1.7558  1.8135
12846TIP3    H260030   2.200   2.986   2.466 -0.0711 -0.5534  0.6294
12847TIP3   OH260031   6.096   6.583  16.398 -0.2085  0.3124 -0.0485
12847TIP3    H160032   6.059   6.565  16.484 -0.1787  0.7026  0.0484
12847TIP3    H260033   6.179   6.536  16.398 -1.6084 -2.2651 -1.0226
12848TIP3   OH260034   4.236   1.966   1.310  0.4382  0.5178  0.2632
12848TIP3    H160035   4.239   2.013   1.394  1.0755 -0.2538  0.6896
12848TIP3    H260036   4.326   1.972   1.277  0.4124  0.0082  0.0962
12849TIP3   OH260037   0.207   0.249  15.853 -0.1137  0.3834  0.5372
12849TIP3    H160038   0.180   0.162  15.823 -1.0910  0.7184  0.4309
12849TIP3    H260039   0.127   0.289  15.886  0.8311  0.2566  3.0718
12850TIP3   OH260040   1.712   1.368  17.124  0.1295 -0.1928  0.3144
12850TIP3    H160041   1.750   1.300  17.068  2.0275 -0.8090  2.2828
12850TIP3    H260042   1.764   1.365  17.203 -3.6573 -0.6089  2.9282
12851TIP3   OH260043   3.985   3.255  10.854 -0.7325 -0.0306 -0.1314
12851TIP3    H160044   4.003   3.188  10.920 -0.5941  0.9535  0.8470
12851TIP3    H260045   4.068   3.267  10.809 -0.3394  0.6324  0.7662
12852TIP3   OH260046   2.432   3.120   5.702  0.1798  0.0546  0.2519
12852TIP3    H160047   2.417   3.148   5.611 -1.7077  0.0427  0.5442
12852TIP3    H260048   2.422   3.025   5.700 -2.4240  0.2727  0.9106
12853TIP3   OH260049   3.400   4.249   2.622 -0.1699 -0.5630  0.1398
12853TIP3    H160050   3.484   4.204   2.627 -1.3476 -2.6868  1.4636
12853TIP3    H260051   3.411   4.327   2.676  0.5020 -1.6010  1.5385
12854TIP3   OH260052   1.126   4.438  14.212  0.5490 -0.7386 -0.0654
12854TIP3    H160053   1.120   4.343  14.215 -0.9559 -0.6389  0.1227
12854TIP3    H260054   1.042   4.470  14.246  2.0556  0.6832  2.4915
12855TIP3   OH260055   0.597   1.279   5.243  0.3101 -0.0620 -0.6163
12855TIP3    H160056   0.542   1.356   5.231  1.0741  0.5891  0.0137
12855TIP3    H260057   0.588   1.230   5.162  0.6661  1.2327 -1.4564
12856TIP3   OH260058   2.273   3.531   5.065  0.1696  0.1435  0.3844
12856TIP3    H160059   2.189   3.558   5.028  0.5354 -0.7959 -1.1300
12856TIP3    H260060   2.263   3.549   5.159 -1.1000  1.6371  0.0042
12857TIP3   OH260061   0.038   2.194  15.901  0.5855  0.1038 -0.5246
12857TIP3    H160062   0.070   2.129  15.839  1.8445 -0.0155  0.2313
12857TIP3    H260063   0.001   2.263  15.846  0.5907 -0.5582 -1.3713
12858TIP3   OH260064   0.425   0.641  11.813  0.1215  0.5473  0.0115
12858TIP3    H160065   0.519   0.627  11.799  0.1585 -0.7741  1.3766
12858TIP3    H260066   0.417   0.654  11.908 -0.9013  2.1562 -0.2900
12859TIP3   OH260067   2.196   3.860   2.550  0.0091  0.2802 -0.3970
12859TIP3    H160068   2.240   3.937   2.516  0.4815  0.1039 -0.1891
12859TIP3    H260069   2.109   3.863   2.511  0.5688  0.0366 -1.6985
12860TIP3   OH260070   6.378   4.457   3.279  0.2288 -0.9356 -0.3367
12860TIP3    H160071   6.390   4.533   3.336 -1.3430 -0.8552 -0.0795
12860TIP3    H260072   6.392   4.490   3.191 -1.2430 -0.1419 -0.2910
12861TIP3   OH260073   3.545   3.010  15.639  0.1231 -0.0097  0.0438
12861TIP3    H160074   3.624   3.044  15.597 -0.7730  0.2688 -1.4380
12861TIP3    H260075   3.511   3.085  15.689 -0.3481  0.5021 -1.0218
12862TIP3   OH260076   0.237   5.887   5.187  0.3537  0.3170 -0.0789
12862TIP3    H160077   0.176   5.815   5.206  0.2785  0.5452  0.5761
12862TIP3    H260078   0.314   5.845   5.150 -0.3144  0.0468 -1.1866
12863TIP3   OH260079   2.005   3.807  11.124 -0.0076 -0.5926  0.0030
12863TIP3    H160080   2.055   3.813  11.042  0.3243 -0.5217  0.2077
12863TIP3    H260081   1.914   3.816  11.097  0.0905 -0.7360 -0.3796
12864TIP3   OH260082   0.684   5.051   5.694 -0.1367 -0.4312  0.6666
12864TIP3    H160083   0.778   5.071   5.690 -0.1913 -0.3304 -0.0786
12864TIP3    H260084   0.656   5.086   5.779  0.4779 -0.3758  0.8502
12865TIP3   OH260085   2.359   5.042  14.016  0.2523 -0.5419  0.3783
12865TIP3    H160086   2.384   4.973  13.954 -0.1301  0.4774 -0.9215
12865TIP3    H260087   2.423   5.035  14.086  1.1158 -1.2496 -0.4590
12866TIP3   OH260088   5.737   3.644  12.053 -0.1294  0.2330  0.6283
12866TIP3    H160089   5.765   3.726  12.012 -0.4190  0.4303  0.8247
12866TIP3    H260090   5.763   3.576  11.990  0.4734  0.4393  0.6524
12867TIP3   OH260091   5.275   1.422  13.333 -0.1029  0.6310  0.9872
12867TIP3    H160092   5.260   1.390  13.422 -0.4943 -0.9939  0.3608
12867TIP3    H260093   5.209   1.489  13.320 -0.0167  0.9135  1.9320
12868TIP3   OH260094   4.275   4.227   2.154  0.8112 -0.4987  0.2176
12868TIP3    H160095   4.244   4.255   2.240  0.0732  0.7297 -0.4234
12868TIP3    H260096   4.214   4.159   2.128  0.8293 -0.6323  0.5243
12869TIP3   OH260097   6.148   2.857   0.580 -0.5142 -0.8776  0.2947
12869TIP3    H160098   6.200   2.906   0.516  1.3498  2.0426  3.8245
12869TIP3    H260099   6.061   2.898   0.577 -0.5001 -0.8965 -0.4779
12870TIP3   OH260100   3.655   2.912  13.491 -0.0081  0.4426 -0.4733
12870TIP3    H160101   3.639   3.004  13.514 -0.9757  0.1681 -0.0353
12870TIP3    H260102   3.630   2.907  13.398  0.5070  0.7231 -0.6335
12871TIP3   OH260103   2.704   4.965   1.521  0.5244  0.3681 -0.1168
12871TIP3    H160104   2.751   4.978   1.604  0.4034  0.9500 -0.1346
12871TIP3    H260105   2.754   4.897   1.475  1.5024  1.1535 -0.2405
12872TIP3   OH260106   0.035   0.860   2.057  0.0109 -0.0456 -0.5002
12872TIP3    H160107   0.013   0.936   2.111  0.3709 -0.4123  0.1762
12872TIP3    H260108  -0.040   0.848   2.000 -0.7532 -0.1565  0.5117
12873TIP3   OH260109   5.215   2.228   4.763  1.0242  0.0662 -0.1392
12873TIP3    H160110   5.151   2.196   4.699  2.7392  0.0949 -1.8882
12873TIP3    H260111   5.212   2.163   4.833  0.0209 -0.6264 -0.8003
12874TIP3   OH260112   2.960   4.527  13.141 -0.6076  0.4504 -0.1757
12874TIP3    H160113   2.883   4.584  13.143 -0.5711  0.5260 -0.7510
12874TIP3    H260114   2.925   4.441  13.116 -0.8764 -0.1420  2.1211
12875TIP3   OH260115   5.241   2.274   0.782 -0.2826  0.6752  0.0517
12875TIP3    H160116   5.265   2.365   0.799  2.4861 -0.2021  1.1624
12875TIP3    H260117   5.229   2.236   0.869 -1.5579 -0.0006 -0.4036
12876TIP3   OH260118   5.333   3.150  16.123 -0.1092 -0.0702  0.0957
12876TIP3    H160119   5.288   3.212  16.067  0.1420 -0.0805 -0.1194
12876TIP3    H260120   5.264   3.097  16.162 -0.2737 -0.1332 -0.2875
12877TIP3   OH260121   0.661   0.191   4.577  0.1643 -0.0585 -0.1099
12877TIP3    H160122   0.622   0.267   4.534 -0.0623  0.3507  0.8259
12877TIP3    H260123   0.751   0.216   4.595  0.9218 -1.0260 -2.3251
12878TIP3   OH260124   0.843   6.730   4.003 -0.4132  0.2269  0.3211
12878TIP3    H160125   0.797   6.813   4.014 -2.6354 -0.8581 -0.5199
12878TIP3    H260126   0.895   6.720   4.083  1.1053  3.1387 -0.2376
12879TIP3   OH260127   3.700   6.181   5.502  0.0913  0.1317 -0.0592
12879TIP3    H160128   3.718   6.101   5.453  0.3594 -1.6616  2.8382
12879TIP3    H260129   3.605   6.182   5.511  0.0226  0.5954 -0.8183
12880TIP3   OH260130   2.185   1.096  16.651  0.2495  0.2786 -0.8190
12880TIP3    H160131   2.175   1.132  16.739  1.6078 -1.7830  0.2317
12880TIP3    H260132   2.261   1.143  16.615  3.4276 -2.8921  1.3736
12881TIP3   OH260133   4.251   6.730  11.331 -0.0990  0.2604  0.5561
12881TIP3    H160134   4.169   6.760  11.370  0.8586  1.7633  1.4610
12881TIP3    H260135   4.310   6.716  11.406  1.1413  1.2874 -0.1960
12882TIP3   OH260136   4.061   6.190   4.723 -0.5022  0.2525  0.3890
12882TIP3    H160137   4.040   6.267   4.776  0.8702  0.2199  0.9997
12882TIP3    H260138   4.103   6.130   4.785  1.0276  0.1710 -0.7341
12883TIP3   OH260139   6.765   1.968   0.767 -0.6399  0.2907  0.5343
12883TIP3    H160140   6.678   1.935   0.791 -0.4561  0.4740  1.4727
12883TIP3    H260141   6.811   1.977   0.850 -0.6647  2.8712  0.3098
12884TIP3   OH260142   2.112   4.514  16.111  0.0529 -0.5634  0.2169
12884TIP3    H160143   2.089   4.423  16.133  0.0620 -0.5832  0.1459
12884TIP3    H260144   2.027   4.557  16.098  0.0106 -0.1360  1.9260
12885TIP3   OH260145   3.254   0.275  17.291  0.2006  0.3868 -0.0953
12885TIP3    H160146   3.315   0.261  17.363 -0.0276  2.8702  0.6163
12885TIP3    H260147   3.168   0.258  17.329  0.1719  0.5109 -0.1039
12886TIP3   OH260148   1.456   0.172   1.183 -1.0730 -0.4222 -0.4799
12886TIP3    H160149   1.385   0.220   1.226  0.2093  2.7425 -1.7722
12886TIP3    H260150   1.534   0.194   1.233 -0.1922  0.2259 -2.1025
12887TIP3   OH260151   3.812   5.424   1.396  0.0370 -0.2162 -0.2699
12887TIP3    H160152   3.841   5.395   1.310 -0.5350 -0.9533 -0.2206
12887TIP3    H260153   3.722   5.455   1.382  0.5444  1.2845 -0.2669
12888TIP3   OH260154   4.401   4.628  15.348  0.1788 -0.1687  0.4582
12888TIP3    H160155   4.392   4.548  15.400  1.2297 -0.0498  0.8287
12888TIP3    H260156   4.456   4.685  15.400 -0.7451  0.9022  0.2913
12889TIP3   OH260157   3.670   1.423   0.564 -0.1536 -0.2199  0.4102
12889TIP3    H160158   3.579   1.441   0.538 -0.5068  2.1470  3.0087
12889TIP3    H260159   3.719   1.499   0.533  0.4893 -0.3223  1.1583
12890TIP3   OH260160   0.831   4.763   5.379 -0.1212  0.0682  0.1825
12890TIP3    H160161   0.787   4.728   5.302 -1.0921  0.9648  0.3228
12890TIP3    H260162   0.760   4.796   5.434  0.6800  0.9369  0.7009
12891TIP3   OH260163   0.867   6.652  13.340 -0.3376  0.2607  0.0941
12891TIP3    H160164   0.953   6.688  13.317  0.4515 -0.4987  1.7667
12891TIP3    H260165   0.820   6.648  13.257  0.6540  2.2345 -0.5851
12892TIP3   OH260166   5.582   0.990   1.042  0.2627  0.0550  0.3364
12892TIP3    H160167   5.607   0.930   1.112 -1.7565 -0.1365  0.9042
12892TIP3    H260168   5.521   0.941   0.987 -1.2747  1.5110  0.7076
12893TIP3   OH260169   6.268   3.578   3.101  0.2134  0.0392 -0.0865
12893TIP3    H160170   6.267   3.490   3.139 -0.3577 -0.2692 -0.8095
12893TIP3    H260171   6.325   3.570   3.024 -1.4482 -0.1920 -1.3123
12894TIP3   OH260172   0.724   1.449   3.428 -0.0172 -0.2283 -0.2034
12894TIP3    H160173   0.727   1.461   3.333 -0.6740 -1.5957 -0.4028
12894TIP3    H260174   0.653   1.507   3.457  1.0603  1.2047 -0.3668
12895TIP3   OH260175   1.270   1.075   4.097  0.6337 -0.5309 -0.6422
12895TIP3    H160176   1.238   1.115   4.016  0.6944  1.5522  0.3291
12895TIP3    H260177   1.360   1.107   4.106  0.1717  0.3787  0.9434
12896TIP3   OH260178   0.694   6.168   5.183  0.2466 -0.0623 -0.2278
12896TIP3    H160179   0.686   6.117   5.264  1.8489 -0.5351 -0.3424
12896TIP3    H260180   0.749   6.242   5.207 -0.0451  0.2933 -0.6592
12897TIP3   OH260181   1.498   0.078   0.214 -0.4666 -0.8533  0.2951
12897TIP3    H160182   1.425   0.137   0.232 -0.8755 -1.6132  1.1109
12897TIP3    H260183   1.544   0.071   0.297 -0.1034 -1.2599  0.0587
12898TIP3   OH260184   2.193   3.579   4.450  0.2598 -0.1513 -0.3625
12898TIP3    H160185   2.237   3.516   4.393 -0.6572  0.0723 -1.3402
12898TIP3    H260186   2.226   3.665   4.421  0.8646 -0.1265  0.3945
12899TIP3   OH260187   5.115   3.702  16.895  0.3360  0.3250 -0.0665
12899TIP3    H160188   5.089   3.670  16.808 -1.4649  1.7115 -0.0790
12899TIP3    H260189   5.202   3.740  16.881 -0.0243  0.7171 -1.3269
12900TIP3   OH260190   5.268   1.724  11.125 -0.0881 -0.1107  0.6771
12900TIP3    H160191   5.219   1.730  11.043 -1.0616  0.7465  1.2962
12900TIP3    H260192   5.360   1.723  11.099 -0.4232 -1.5486 -0.5002
12901TIP3   OH260193   2.296   5.781  10.502 -0.2664 -0.1732  0.0534
12901TIP3    H160194   2.291   5.691  10.470 -0.3933 -0.3615  0.5917
12901TIP3    H260195   2.343   5.829  10.434  1.7303 -1.1091  0.7288
12902TIP3   OH260196   4.981   2.290  15.353 -0.2254  0.2314 -0.1655
12902TIP3    H160197   4.895   2.312  15.389  0.1440  0.2806  0.6856
12902TIP3    H260198   4.984   2.334  15.268 -0.4910  1.3831  0.4163
12903TIP3   OH260199   5.998   6.461  11.480  0.3534  0.3332  0.3185
12903TIP3    H160200   5.973   6.420  11.398  1.1628  1.4859 -0.5143
12903TIP3    H260201   6.087   6.429  11.496  0.4818  0.7025  0.3514
12904TIP3   OH260202   4.852   6.344   5.364 -0.5146  0.2876  0.0068
12904TIP3    H160203   4.834   6.286   5.291  0.6489 -1.3172  0.9730
12904TIP3    H260204   4.937   6.383   5.345 -0.3148  0.0411  0.3814
12905TIP3   OH260205   2.812   4.993  16.708  0.2603 -0.2368  0.1180
12905TIP3    H160206   2.801   5.068  16.767 -0.2406  0.4509 -0.8276
12905TIP3    H260207   2.879   4.939  16.750 -0.2139  0.1487  1.3996
12906TIP3   OH260208   5.547   3.517  16.656  0.0620  0.2160  0.3560
12906TIP3    H160209   5.537   3.596  16.603  1.7114  2.6359  3.4671
12906TIP3    H260210   5.460   3.501  16.692 -0.3965  0.2632 -0.7201
12907TIP3   OH260211   0.549   3.060   3.414 -0.2075  1.3297 -0.4741
12907TIP3    H160212   0.488   2.987   3.424  0.1688  1.4185  3.1155
12907TIP3    H260213   0.502   3.136   3.447  0.6897  2.0306 -0.7844
12908TIP3   OH260214   1.786   4.995  16.412 -0.2430  0.5447 -0.0439
12908TIP3    H160215   1.753   4.906  16.401 -1.1395  0.7279  1.0296
12908TIP3    H260216   1.852   4.988  16.481  0.0436  0.6359 -0.3055
12909TIP3   OH260217   3.282   2.220  14.123  0.2870  0.0261 -0.0779
12909TIP3    H160218   3.203   2.179  14.087 -1.0847  2.0949  0.4595
12909TIP3    H260219   3.317   2.272  14.051 -0.4800  1.3823  0.5112
12910TIP3   OH260220   2.495   6.677  15.532 -0.2517  0.0826 -0.1094
12910TIP3    H160221   2.512   6.682  15.626  0.3666 -0.6165 -0.1775
12910TIP3    H260222   2.525   6.761  15.497 -1.7949  0.9186  0.5034
12911TIP3   OH260223   2.405   1.101   0.703 -0.2531 -0.2533  0.3985
12911TIP3    H160224   2.405   1.196   0.693 -2.0518 -0.3473 -0.6629
12911TIP3    H260225   2.411   1.087   0.798 -1.4860  0.9510  0.6733
12912TIP3   OH260226   0.041   4.634   2.346 -0.2406  0.2384 -0.6823
12912TIP3    H160227   0.015   4.542   2.337  0.4076 -0.0242  0.0505
12912TIP3    H260228   0.083   4.655   2.263 -2.4432  0.5702 -1.7620
12913TIP3   OH260229   5.825   4.393  15.564  0.5239  0.2828  0.1095
12913TIP3    H160230   5.784   4.470  15.602  0.9096  0.7890 -0.4679
12913TIP3    H260231   5.852   4.422  15.476  1.8937 -0.0952  0.3954
12914TIP3   OH260232   5.229   3.124   2.691  0.2259  0.4029  0.7047
12914TIP3    H160233   5.252   3.200   2.638  1.3992  1.0660  2.1161
12914TIP3    H260234   5.150   3.151   2.738 -0.9642 -0.2812 -0.8782
12915TIP3   OH260235   6.107   6.400   5.916  0.8165  0.2468 -0.4314
12915TIP3    H160236   6.071   6.485   5.941  0.1595 -0.0911 -0.1953
12915TIP3    H260237   6.078   6.387   5.826  2.0364  0.8610 -0.9109
12916TIP3   OH260238   6.811   3.209   2.389 -0.1101 -0.4095 -0.4512
12916TIP3    H160239   6.731   3.176   2.429  1.0994 -1.8208  0.8844
12916TIP3    H260240   6.847   3.270   2.453  0.2423 -0.3125 -0.7367
12917TIP3   OH260241   5.148   0.527  16.191 -0.3946 -0.0502  0.2119
12917TIP3    H160242   5.221   0.468  16.172  0.0067 -0.0307  1.6916
12917TIP3    H260243   5.180   0.613  16.165 -0.1844 -0.1592  0.1077
12918TIP3   OH260244   2.117   5.013  17.177 -0.0923  0.3859  0.6163
12918TIP3    H160245   2.170   5.085  17.144  0.6576 -0.5105 -0.1569
12918TIP3    H260246   2.068   5.051  17.250  1.6883  1.1996  1.4043
12919TIP3   OH260247   6.006   4.325  14.841 -0.2224  0.1972  0.0884
12919TIP3    H160248   5.943   4.294  14.907 -1.0486  0.5790 -0.5192
12919TIP3    H260249   6.090   4.321  14.886 -0.4964 -1.6193  0.4656
12920TIP3   OH260250   5.671   1.606   4.749 -0.0629  0.3084 -0.1408
12920TIP3    H160251   5.626   1.652   4.820 -0.6509 -0.0337 -0.2818
12920TIP3    H260252   5.743   1.560   4.792 -0.1931  0.4004  0.1823
12921TIP3   OH260253   3.751   4.670  17.232 -0.2085  0.6737 -0.4591
12921TIP3    H160254   3.768   4.699  17.322 -1.0338  1.5405 -0.5774
12921TIP3    H260255   3.659   4.691  17.217 -0.5132 -0.9327 -0.9735
12922TIP3   OH260256   0.028   1.000  11.750 -0.0410 -0.9026  0.2384
12922TIP3    H160257   0.067   0.932  11.696  0.3459 -1.7231  1.5228
12922TIP3    H260258   0.072   1.081  11.723 -0.9687 -1.0389 -1.7519
12923TIP3   OH260259   1.666   6.761  11.997 -0.3079  0.4667 -0.0474
12923TIP3    H160260   1.599   6.786  11.933 -1.0725  0.2168  0.6464
12923TIP3    H260261   1.639   6.804  12.078 -0.4852 -0.8927  0.6286
12924TIP3   OH260262   0.044   0.414  13.671 -0.2356 -0.3427  0.7919
12924TIP3    H160263   0.095   0.460  13.605 -0.5303 -0.9231  0.1490
12924TIP3    H260264   0.028   0.327  13.633  0.6314 -1.1163  2.1369
12925TIP3   OH260265   1.556   3.998   4.269  0.2283  0.6780  0.4819
12925TIP3    H160266   1.523   3.927   4.214 -1.1389  1.5094  0.2194
12925TIP3    H260267   1.521   3.979   4.356  0.9756  0.3076  0.7100
12926TIP3   OH260268   6.407   6.230   2.568 -0.0888  0.3701  0.3954
12926TIP3    H160269   6.333   6.198   2.619 -0.3842  0.8565  0.2821
12926TIP3    H260270   6.366   6.275   2.493  0.3414 -1.4556 -0.9693
12927TIP3   OH260271   1.857   4.339   3.879  0.1562  0.0694  0.0994
12927TIP3    H160272   1.851   4.257   3.927 -0.0335 -0.0158 -0.0673
12927TIP3    H260273   1.909   4.396   3.935 -1.0292  0.3477  0.9441
12928TIP3   OH260274   5.467   2.305  14.284 -0.1580  0.2469 -0.3211
12928TIP3    H160275   5.455   2.349  14.200  0.9366 -0.4378 -0.8458
12928TIP3    H260276   5.561   2.311  14.301 -0.2396 -0.4339  0.4056
12929TIP3   OH260277   1.778   2.677   4.132  0.4058 -0.3797  0.1035
12929TIP3    H160278   1.692   2.674   4.175  0.7349 -1.6253  0.6742
12929TIP3    H260279   1.776   2.759   4.082 -1.5328 -0.9265 -0.7773
12930TIP3   OH260280   0.233   0.378   3.759 -0.5216  0.3573 -0.5764
12930TIP3    H160281   0.140   0.391   3.741 -0.6000  0.2873 -0.2307
12930TIP3    H260282   0.268   0.344   3.677 -1.3073 -2.0519  0.0302
12931TIP3   OH260283   6.748   1.095   6.546 -0.3159  0.1178 -0.0517
12931TIP3    H160284   6.763   1.086   6.452  0.5598 -0.5858  0.1561
12931TIP3    H260285   6.666   1.048   6.561 -0.5561  0.3869 -0.4816
12932TIP3   OH260286   4.488   0.198   0.461  0.3147 -0.0170  0.4007
12932TIP3    H160287   4.523   0.266   0.403 -0.4177 -0.6483 -0.8084
12932TIP3    H260288   4.438   0.141   0.403  1.3794 -1.9120  1.2971
12933TIP3   OH260289   5.847   5.452   4.866  0.3348  0.7741  0.0114
12933TIP3    H160290   5.848   5.545   4.842  0.1581  0.8709  0.3849
12933TIP3    H260291   5.930   5.439   4.913 -1.2688  1.5855  3.1917
12934TIP3   OH260292   2.600   4.732   4.745 -0.2895  0.2289  0.0511
12934TIP3    H160293   2.607   4.827   4.741  0.9111  0.1355 -0.1696
12934TIP3    H260294   2.526   4.711   4.688 -1.3426  1.1175  1.0641
12935TIP3   OH260295   0.554   6.153  15.021  0.7952 -0.3182 -0.0515
12935TIP3    H160296   0.513   6.238  15.008  0.4020 -0.3521  0.9760
12935TIP3    H260297   0.629   6.171  15.078 -0.0093 -0.8392  1.1944
12936TIP3   OH260298   1.622   1.485   5.125 -0.8555  0.5420  0.4158
12936TIP3    H160299   1.660   1.567   5.156  0.5137  0.1418 -0.1590
12936TIP3    H260300   1.556   1.511   5.061  0.0721  1.1777 -0.2957
12937TIP3   OH260301   5.394   4.784   0.531 -0.3748  0.1679  0.2289
12937TIP3    H160302   5.447   4.821   0.460 -0.5384 -0.4586 -0.2234
12937TIP3    H260303   5.387   4.855   0.594  0.0982  0.6113 -0.2028
12938TIP3   OH260304   4.452   0.212   1.988 -0.3041 -0.0465 -0.0885
12938TIP3    H160305   4.524   0.212   2.051 -0.7111 -1.2719  0.3968
12938TIP3    H260306   4.375   0.239   2.039 -0.4950 -0.3340 -0.2207
12939TIP3   OH260307   5.554   5.709  11.650 -0.0664 -0.1618 -0.0758
12939TIP3    H160308   5.594   5.792  11.626  0.4127 -0.4919 -0.4314
12939TIP3    H260309   5.582   5.648  11.582  1.1826 -1.0661  1.1934
12940TIP3   OH260310   1.270   0.213   3.728 -0.0048 -0.4896 -0.1136
12940TIP3    H160311   1.284   0.272   3.654 -0.0779  0.9527  1.0120
12940TIP3    H260312   1.213   0.144   3.693  0.5239 -0.1898 -1.5806
12941TIP3   OH260313   5.800   2.108   1.658 -0.2009 -0.4539 -0.4185
12941TIP3    H160314   5.841   2.140   1.738  1.2027 -1.0805 -0.8704
12941TIP3    H260315   5.818   2.177   1.593 -0.0910 -0.6055 -0.5493
12942TIP3   OH260316   3.608   1.064  14.733  0.2122 -0.1339 -0.2953
12942TIP3    H160317   3.557   0.983  14.735  2.7031 -1.7363 -0.3607
12942TIP3    H260318   3.654   1.061  14.649 -2.6975  3.3143 -2.1698
12943TIP3   OH260319   4.710   1.231  17.062 -0.8147  0.0392 -0.3134
12943TIP3    H160320   4.805   1.222  17.074 -1.0170 -2.1647 -0.2542
12943TIP3    H260321   4.693   1.324  17.079  0.7644 -0.3135  3.8109
12944TIP3   OH260322   0.384   3.624   4.000  0.6023 -0.1554 -0.2418
12944TIP3    H160323   0.296   3.592   3.981  0.1671 -0.7478  2.6319
12944TIP3    H260324   0.394   3.701   3.943 -2.9889  1.8201  1.6753
12945TIP3   OH260325   5.467   5.067  14.697 -0.1965 -0.6836  0.5490
12945TIP3    H160326   5.397   5.107  14.749  0.3321  1.5789 -0.4163
12945TIP3    H260327   5.548   5.106  14.732  0.1463  1.0449 -2.0836
12946TIP3   OH260328   6.744   5.468   4.372  0.5107  0.0689 -0.7068
12946TIP3    H160329   6.837   5.489   4.376  0.2002  1.4061 -0.3207
12946TIP3    H260330   6.701   5.539   4.420 -0.8441  0.4031 -2.3498
12947TIP3   OH260331   0.041   1.328  15.077 -0.1296  0.0690 -0.1414
12947TIP3    H160332  -0.020   1.255  15.081 -0.4900  0.2869 -1.2760
12947TIP3    H260333  -0.015   1.404  15.060  0.4487  0.2690 -1.1979
12948TIP3   OH260334   2.111   0.555   0.938 -0.0606  0.0556  0.4296
12948TIP3    H160335   2.031   0.553   0.885 -0.3687  1.1799  0.8530
12948TIP3    H260336   2.108   0.639   0.983  0.0491 -1.0090  2.4845
12949TIP3   OH260337   3.059   4.092  13.889  0.2909  0.6529  0.8385
12949TIP3    H160338   3.108   4.030  13.943 -0.3025 -0.1270  0.4965
12949TIP3    H260339   3.105   4.091  13.805  0.5102  0.9671  0.9546
12950TIP3   OH260340   6.544   1.486  17.136  0.1378 -0.6191  0.3401
12950TIP3    H160341   6.506   1.499  17.223 -0.6251 -1.6161  0.1710
12950TIP3    H260342   6.507   1.556  17.082 -0.4840 -0.8359  0.4882
12951TIP3   OH260343   4.959   5.508  14.088  0.3089 -0.9848  0.4179
12951TIP3    H160344   4.917   5.526  14.172  1.1402 -0.3382  0.7006
12951TIP3    H260345   5.046   5.475  14.111  0.0435 -2.1114 -0.1654
12952TIP3   OH260346   3.246   0.719   4.449 -0.2752  0.0125 -0.1336
12952TIP3    H160347   3.237   0.656   4.378  0.6346  0.0788 -0.3210
12952TIP3    H260348   3.212   0.674   4.526  1.1237 -1.0303 -0.0960
12953TIP3   OH260349   2.930   5.726   4.300 -0.1011  0.3850 -0.3932
12953TIP3    H160350   2.848   5.774   4.286  0.0461  0.4439 -1.0785
12953TIP3    H260351   2.956   5.748   4.389 -1.6460 -0.8674  0.3863
12954TIP3   OH260352   0.628   3.263  15.673 -0.4581  0.5679  0.0069
12954TIP3    H160353   0.633   3.191  15.610  1.0640  0.1043  0.6350
12954TIP3    H260354   0.704   3.318  15.654  0.1245  0.3229  1.5449
12955TIP3   OH260355   3.586   3.324  14.974  0.1679  0.0807  0.2464
12955TIP3    H160356   3.623   3.346  14.888  1.8774 -1.1205  0.6536
12955TIP3    H260357   3.653   3.353  15.037 -0.5181 -0.2002  1.1128
12956TIP3   OH260358   5.489   3.045  15.094 -0.1134  0.0975  0.1783
12956TIP3    H160359   5.490   3.063  15.000 -0.9865 -0.2047  0.1063
12956TIP3    H260360   5.532   2.960  15.103 -0.5429 -0.1426 -0.0123
12957TIP3   OH260361   2.738   4.026  10.755 -0.7959 -0.8037  0.2240
12957TIP3    H160362   2.661   4.011  10.700 -2.7096  0.9930  2.3278
12957TIP3    H260363   2.773   4.110  10.726 -2.0078  0.3145  1.9066
12958TIP3   OH260364   4.656   3.327   4.096 -0.3202 -0.1428 -0.3967
12958TIP3    H160365   4.710   3.365   4.165 -0.1077 -0.4183 -0.4099
12958TIP3    H260366   4.696   3.359   4.015 -0.5924  0.2119 -0.3917
12959TIP3   OH260367   4.143   3.809  14.446  0.1920  0.3276  0.1816
12959TIP3    H160368   4.180   3.724  14.471  1.0032  0.6820  0.2032
12959TIP3    H260369   4.120   3.799  14.354 -0.9570 -0.3453  0.5372
12960TIP3   OH260370   5.551   0.507   0.951 -0.2472  0.2128  0.1488
12960TIP3    H160371   5.515   0.518   0.863 -0.5134  1.0485  0.3618
12960TIP3    H260372   5.599   0.424   0.947 -0.2180  0.2717 -0.7975
12961TIP3   OH260373   3.887   3.109  12.700  0.2151  0.2970 -0.3511
12961TIP3    H160374   3.941   3.112  12.778 -0.7529  1.1269  0.2951
12961TIP3    H260375   3.867   3.016  12.689  1.6697 -0.0090 -0.5477
12962TIP3   OH260376   3.676   2.389  12.418  0.0871  0.4337  0.8254
12962TIP3    H160377   3.596   2.416  12.464 -0.4008  0.9308 -0.2830
12962TIP3    H260378   3.738   2.368  12.487 -0.9369  0.2706  1.6991
12963TIP3   OH260379   0.679   4.222   1.835 -0.0861 -0.1671  0.9543
12963TIP3    H160380   0.768   4.201   1.864 -0.2242  1.6592  2.7827
12963TIP3    H260381   0.681   4.211   1.740  1.6883 -1.5751  1.1360
12964TIP3   OH260382   4.753   2.215  17.152 -0.1178  0.2782  0.7050
12964TIP3    H160383   4.833   2.216  17.204  0.9484  1.9304 -0.9308
12964TIP3    H260384   4.703   2.290  17.183 -0.6376 -0.2419  1.1233
12965TIP3   OH260385   0.681   2.563   0.016  0.1504 -0.4540 -0.8663
12965TIP3    H160386   0.645   2.630   0.075  0.1277 -0.4892 -0.8407
12965TIP3    H260387   0.679   2.605  -0.070  0.7517 -0.1833 -0.7496
12966TIP3   OH260388   2.141   1.218  13.113 -0.6018  0.1646 -0.2204
12966TIP3    H160389   2.202   1.218  13.187 -1.0101  0.6825  0.1160
12966TIP3    H260390   2.168   1.293  13.060 -0.1806 -0.3260 -0.7066
12967TIP3   OH260391   5.813   2.043   1.150  0.1103 -0.3095  0.0344
12967TIP3    H160392   5.735   1.989   1.164  0.3197 -0.3806  1.0188
12967TIP3    H260393   5.848   2.015   1.066 -1.3038  0.2009 -0.7204
12968TIP3   OH260394   0.848   5.056   0.842  0.2056  0.4867 -0.1594
12968TIP3    H160395   0.823   5.106   0.920 -1.6946 -2.0853  0.9744
12968TIP3    H260396   0.935   5.020   0.864  1.5190  3.1029 -0.9342
12969TIP3   OH260397   0.985   6.603   0.688 -0.6004 -0.0818 -0.0210
12969TIP3    H160398   0.963   6.670   0.623 -0.6136  0.0189  0.0854
12969TIP3    H260399   1.076   6.580   0.669 -0.9474 -0.8545 -0.7692
12970TIP3   OH260400   5.762   2.022   3.211  0.1130 -0.1543  0.3970
12970TIP3    H160401   5.696   2.043   3.277 -0.7439 -1.6099  0.0310
12970TIP3    H260402   5.844   2.052   3.249 -0.5371  0.1536  1.5935
12971TIP3   OH260403   5.142   1.572   2.002 -0.1941  0.3241  0.1880
12971TIP3    H160404   5.113   1.573   2.094 -1.5573  0.5608 -0.2238
12971TIP3    H260405   5.106   1.490   1.967  0.2624  0.2700 -0.1500
12972TIP3   OH260406   5.415   1.601  12.747 -0.2736  0.0387 -0.6144
12972TIP3    H160407   5.354   1.603  12.672 -0.8480  0.3870 -0.1452
12972TIP3    H260408   5.415   1.691  12.780 -0.9435 -0.3669  0.5353
12973TIP3   OH260409   4.420   4.227  15.272 -0.3322  0.2411 -0.3416
12973TIP3    H160410   4.510   4.201  15.252 -1.4409 -2.3257 -2.2040
12973TIP3    H260411   4.388   4.159  15.331 -1.5052  0.4232 -0.7735
12974TIP3   OH260412   5.312   1.656  14.974 -0.2926 -0.1005 -0.2457
12974TIP3    H160413   5.356   1.740  14.986 -0.6751 -0.0672  0.9768
12974TIP3    H260414   5.229   1.665  15.020 -0.4188 -1.0812 -0.2688
12975TIP3   OH260415   5.380   6.574  13.320  0.4090  0.2834  0.3675
12975TIP3    H160416   5.383   6.596  13.413  1.7545  1.1915  0.1335
12975TIP3    H260417   5.421   6.488  13.315  1.8649  0.9550  0.4352
12976TIP3   OH260418   2.745   0.511  12.879  0.5856 -0.0019  0.0643
12976TIP3    H160419   2.826   0.553  12.906  0.6442  0.2900 -0.5782
12976TIP3    H260420   2.711   0.471  12.960  1.7994 -0.8549  0.1724
12977TIP3   OH260421   4.489   5.022   6.183 -0.3671  0.0284  0.2828
12977TIP3    H160422   4.451   5.046   6.267  0.1295  0.5803  0.3581
12977TIP3    H260423   4.460   5.092   6.124 -1.5749 -0.9024 -0.2570
12978TIP3   OH260424   2.585   2.853   0.105 -0.0973  0.1486  0.2866
12978TIP3    H160425   2.538   2.793   0.047 -1.0548 -0.1842  1.3991
12978TIP3    H260426   2.519   2.917   0.132  0.6993  1.1904 -0.1621
12979TIP3   OH260427   4.336   3.399  12.018 -0.3986  0.3541 -0.1905
12979TIP3    H160428   4.295   3.343  11.953  0.8652  0.2192 -0.8787
12979TIP3    H260429   4.293   3.376  12.100 -0.5799 -0.9189 -0.6386
12980TIP3   OH260430   5.541   0.311  16.597 -0.3410  0.3559 -0.0983
12980TIP3    H160431   5.561   0.402  16.576 -0.7396  0.3691 -0.4322
12980TIP3    H260432   5.596   0.261  16.537 -1.4777  0.3940 -1.1954
12981TIP3   OH260433   5.454   1.123   0.017  0.7746 -0.3938  0.5450
12981TIP3    H160434   5.392   1.182   0.059 -1.5802 -3.7675  2.0076
12981TIP3    H260435   5.525   1.112   0.080  1.5616  1.3417 -0.0139
12982TIP3   OH260436   1.189   1.430   1.541  0.2692  0.1566 -0.0886
12982TIP3    H160437   1.118   1.378   1.581 -0.6045  0.8709 -0.6813
12982TIP3    H260438   1.147   1.474   1.467  1.0755  1.4581  0.2151
12983TIP3   OH260439   5.133   1.010  11.594 -0.2332  0.4419 -0.0373
12983TIP3    H160440   5.083   0.970  11.523 -0.1803 -1.0178  0.7400
12983TIP3    H260441   5.199   0.945  11.618  0.7412  1.5351  0.3264
12984TIP3   OH260442   1.689   2.573   6.072  0.2680 -0.1993 -0.1891
12984TIP3    H160443   1.710   2.666   6.083  0.0337 -0.2520  0.7728
12984TIP3    H260444   1.672   2.542   6.161  1.0879 -1.3431 -0.4174
12985TIP3   OH260445   0.552   1.102  10.997  0.0916  0.3505 -0.2703
12985TIP3    H160446   0.542   1.018  11.043  1.5678  0.6861  0.7093
12985TIP3    H260447   0.561   1.078  10.905  1.6605 -0.6687  0.1278
12986TIP3   OH260448   5.612   2.205  15.887 -0.1077  0.0078  0.0667
12986TIP3    H160449   5.523   2.233  15.908  0.0745  1.3309 -0.8964
12986TIP3    H260450   5.636   2.256  15.810  1.6234 -0.0809  0.5192
12987TIP3   OH260451   2.684   3.272  14.300 -0.3096  0.0055  0.1792
12987TIP3    H160452   2.681   3.344  14.237 -1.5213  0.4979  0.7831
12987TIP3    H260453   2.766   3.226  14.280  1.0642  2.2097  0.5327
12988TIP3   OH260454   3.075   2.629   5.917 -0.1957 -0.1631 -0.4245
12988TIP3    H160455   3.147   2.616   5.979 -1.8650  0.1998  1.6571
12988TIP3    H260456   3.010   2.562   5.940 -1.2020  0.5230 -1.2136
12989TIP3   OH260457   4.554   5.310   1.345  0.7391 -0.3894  0.1964
12989TIP3    H160458   4.525   5.274   1.261  2.0884  1.2925 -1.0160
12989TIP3    H260459   4.480   5.364   1.374 -0.0029 -1.5192  0.4411
12990TIP3   OH260460   6.272   5.816  12.782  0.3482  0.6242  0.0858
12990TIP3    H160461   6.214   5.892  12.786 -0.2814  0.2676 -1.5541
12990TIP3    H260462   6.242   5.768  12.705  2.0206 -0.2254 -0.0581
12991TIP3   OH260463   2.281   5.558   6.593  0.1608  0.3050  0.2706
12991TIP3    H160464   2.214   5.542   6.660  2.1419 -1.4338  1.8815
12991TIP3    H260465   2.299   5.652   6.599 -0.7505  0.4295  1.1341
12992TIP3   OH260466   2.124   5.581  14.136 -0.7730 -0.4288  0.0696
12992TIP3    H160467   2.146   5.513  14.072  1.0086  0.0735  0.1453
12992TIP3    H260468   2.186   5.652  14.120 -2.4328  1.1071  0.1716
12993TIP3   OH260469   3.775   1.372  14.024  0.3131 -1.0783 -0.3742
12993TIP3    H160470   3.805   1.420  13.946  0.9709 -0.7410  0.0742
12993TIP3    H260471   3.680   1.371  14.017  0.3672 -0.9928 -1.1533
12994TIP3   OH260472   2.707   4.517  13.903  0.0660  0.1678  0.0436
12994TIP3    H160473   2.657   4.588  13.943  0.2711  0.3616 -0.0420
12994TIP3    H260474   2.673   4.438  13.944  1.3772  0.4884  1.7867
12995TIP3   OH260475   2.856   3.971   5.569  0.0334 -0.2315  0.2558
12995TIP3    H160476   2.877   3.974   5.662 -0.8015 -0.7024  0.4603
12995TIP3    H260477   2.803   3.892   5.558 -0.1630  0.0053 -0.5541
12996TIP3   OH260478   5.485   5.517   2.202  0.1283 -0.9784  0.6469
12996TIP3    H160479   5.472   5.611   2.187  0.7240 -0.7178  1.7478
12996TIP3    H260480   5.398   5.484   2.224 -0.1503 -0.7601 -0.1020
12997TIP3   OH260481   5.053   1.707   0.989  0.0331  0.0100 -0.0546
12997TIP3    H160482   4.974   1.657   1.013 -0.1481 -1.0405 -2.6888
12997TIP3    H260483   5.021   1.773   0.927  1.2396 -0.5169 -1.2485
12998TIP3   OH260484   2.200   5.953  15.660 -0.0132 -0.4996  0.7057
12998TIP3    H160485   2.162   6.039  15.640  0.3802 -0.4535  0.1353
12998TIP3    H260486   2.151   5.922  15.735 -0.1911  0.2100  0.8876
12999TIP3   OH260487   3.130   2.961  14.851 -0.0742  0.0819 -0.0836
12999TIP3    H160488   3.057   2.912  14.812  1.0056 -0.3906 -1.5385
12999TIP3    H260489   3.088   3.038  14.890 -1.6728 -1.5719  1.4955
13000TIP3   OH260490   1.478   6.445   5.270  0.6328  0.1613  0.6467
13000TIP3    H160491   1.413   6.514   5.271  0.5637  0.1541 -1.4791
13000TIP3    H260492   1.428   6.364   5.262  0.9113  0.2280 -2.1576
13001TIP3   OH260493   5.117   3.803  15.095  0.1929 -0.0231  0.3642
13001TIP3    H160494   5.143   3.726  15.145  0.1578 -0.7038 -0.6575
13001TIP3    H260495   5.161   3.793  15.011 -0.8721  0.4040 -0.2445
13002TIP3   OH260496   4.335   2.574   1.353  0.2653  0.2008 -0.1398
13002TIP3    H160497   4.256   2.553   1.302 -0.5114  0.9457  0.7460
13002TIP3    H260498   4.377   2.489   1.368  1.6804  0.1260 -3.8525
13003TIP3   OH260499   5.355   0.851   0.910  0.1759  0.2665  0.2606
13003TIP3    H160500   5.317   0.768   0.881 -0.3910  1.3214 -2.1915
13003TIP3    H260501   5.328   0.859   1.001  0.4204 -2.3251  0.5964
13004TIP3   OH260502   6.098   5.976  15.351  0.3599 -0.4662 -0.4760
13004TIP3    H160503   6.171   5.922  15.382 -0.3098 -2.5543 -2.4316
13004TIP3    H260504   6.108   5.977  15.256 -0.7402  1.3243 -0.5921
13005TIP3   OH260505   5.723   0.805  16.364  0.6222  0.8025 -0.3738
13005TIP3    H160506   5.795   0.784  16.304  2.0317  1.8269  0.8940
13005TIP3    H260507   5.764   0.859  16.432 -0.8626 -0.5576  1.6641
13006TIP3   OH260508   6.259   5.766   1.308 -0.1016 -0.0809  0.8968
13006TIP3    H160509   6.267   5.682   1.263 -2.2096  1.4228 -2.4773
13006TIP3    H260510   6.350   5.792   1.324  0.6459 -1.8143 -0.2975
13007TIP3   OH260511   2.754   5.095  10.389 -0.0327  0.6299 -0.6221
13007TIP3    H160512   2.722   5.005  10.388 -2.8092  1.5555  0.4820
13007TIP3    H260513   2.765   5.117  10.296  0.8465 -0.8601 -0.9002
13008TIP3   OH260514   5.957   4.907  17.166  0.1118 -0.1906 -0.1951
13008TIP3    H160515   5.996   4.875  17.247  1.0424 -1.2387 -1.0538
13008TIP3    H260516   5.941   5.000  17.183 -2.3567 -0.9819  2.2143
13009TIP3   OH260517   5.257   0.663   4.833 -0.2733 -0.0487  0.0957
13009TIP3    H160518   5.183   0.722   4.815 -0.9715 -0.9317  0.0352
13009TIP3    H260519   5.333   0.709   4.798 -1.0971 -0.0579 -1.7707
13010TIP3   OH260520   1.816   1.785   4.236  0.2713  0.0334 -0.0561
13010TIP3    H160521   1.837   1.700   4.274 -2.5023 -1.1658 -1.0631
13010TIP3    H260522   1.793   1.840   4.312  0.5043 -0.5981  0.4782
13011TIP3   OH260523   3.844   5.381  11.989 -0.0601 -0.3816 -0.2594
13011TIP3    H160524   3.858   5.367  11.896  1.2307  1.9128 -0.4314
13011TIP3    H260525   3.831   5.293  12.025 -1.6998 -1.1959 -2.7484
13012TIP3   OH260526   3.496   5.580  16.175 -0.2012 -0.0880 -0.3012
13012TIP3    H160527   3.401   5.588  16.174 -0.1278  1.0259 -2.0796
13012TIP3    H260528   3.523   5.623  16.256 -1.1501  0.6174 -0.3400
13013TIP3   OH260529   2.387   5.771   2.630  0.2196 -0.1868  0.0343
13013TIP3    H160530   2.295   5.781   2.607  0.6046  2.4771 -0.5152
13013TIP3    H260531   2.393   5.803   2.720  0.6223 -0.1797  0.0070
13014TIP3   OH260532   2.231   3.495  13.980 -0.0115  0.3455  0.3647
13014TIP3    H160533   2.229   3.515  14.074 -0.7088  0.5014  0.3259
13014TIP3    H260534   2.268   3.572  13.939 -0.5579  0.6445  0.4291
13015TIP3   OH260535   4.380   2.419  11.096 -0.2269  0.4877 -0.0847
13015TIP3    H160536   4.389   2.418  11.191 -0.2805 -0.6773 -0.0855
13015TIP3    H260537   4.434   2.346  11.066 -2.4839 -0.9630 -0.7325
13016TIP3   OH260538   6.775   6.263   0.555 -0.1518 -0.2540  0.0813
13016TIP3    H160539   6.807   6.318   0.626 -0.5404  2.1116 -1.5073
13016TIP3    H260540   6.755   6.324   0.484 -1.0609 -2.4048 -1.5970
13017TIP3   OH260541   4.179   0.399  16.908 -0.0011 -0.2629 -0.1787
13017TIP3    H160542   4.159   0.488  16.879  0.0149 -0.9884 -2.5440
13017TIP3    H260543   4.266   0.405  16.947 -0.4242  0.9465  0.5808
13018TIP3   OH260544   6.606   5.366  12.700  0.0066 -0.3133 -0.0892
13018TIP3    H160545   6.537   5.304  12.674  0.5868 -0.1977 -1.9930
13018TIP3    H260546   6.685   5.313  12.705 -0.0048 -0.2305  0.9669
13019TIP3   OH260547   4.168   3.543  15.865 -0.1709  0.1362  0.1411
13019TIP3    H160548   4.263   3.531  15.855 -0.4779 -3.2588  0.8632
13019TIP3    H260549   4.143   3.598  15.791  2.4063  1.4536  0.1662
13020TIP3   OH260550   1.938   5.529   2.440  0.1058  0.1559 -0.3074
13020TIP3    H160551   2.032   5.520   2.428  0.5657  0.6089  2.5085
13020TIP3    H260552   1.899   5.467   2.379  2.2329 -0.2909 -1.2397
13021TIP3   OH260553   2.026   3.075   0.006 -0.2784 -0.1941 -0.5281
13021TIP3    H160554   2.105   3.111  -0.034 -0.2347 -1.0675 -1.2574
13021TIP3    H260555   1.987   3.021  -0.063 -0.6175 -1.0952  0.3515
13022TIP3   OH260556   5.425   4.666  15.907 -0.0909 -0.0154 -0.2340
13022TIP3    H160557   5.368   4.590  15.904  1.0450 -0.9313  1.0635
13022TIP3    H260558   5.449   4.681  15.816 -0.3415 -1.1790 -0.5005
13023TIP3   OH260559   5.980   1.627  16.939 -0.5385  0.1686  0.1033
13023TIP3    H160560   6.017   1.540  16.951 -1.3907 -0.1423  0.5265
13023TIP3    H260561   6.042   1.672  16.882 -0.2882 -0.8423 -0.4357
13024TIP3   OH260562   6.537   4.451   3.605  0.4609  0.4029 -0.2312
13024TIP3    H160563   6.590   4.429   3.528  1.6593 -1.2597  1.0362
13024TIP3    H260564   6.600   4.482   3.669 -0.0691 -1.6912  1.3415
13025TIP3   OH260565   3.830   2.664  15.691 -0.5803 -0.3694 -0.4249
13025TIP3    H160566   3.901   2.646  15.630  0.0079 -0.1309  0.1844
13025TIP3    H260567   3.751   2.634  15.646 -0.3037  0.9711 -1.8120
13026TIP3   OH260568   3.448   4.640  11.443 -0.3843 -0.1589 -0.0259
13026TIP3    H160569   3.401   4.600  11.515  1.3445  1.0627  1.8410
13026TIP3    H260570   3.512   4.575  11.416  1.3012  0.6461  1.8950
13027TIP3   OH260571   5.057   1.608  16.537  0.5081  0.4489 -0.2282
13027TIP3    H160572   5.032   1.528  16.583  2.2075  0.0148 -0.0327
13027TIP3    H260573   4.977   1.661  16.536 -0.1634 -0.5040  1.1923
13028TIP3   OH260574   5.472   5.009  11.317  0.0211 -0.0913  0.0092
13028TIP3    H160575   5.474   5.021  11.222  1.9071 -1.8348 -0.2087
13028TIP3    H260576   5.444   4.918  11.329 -0.6388  0.2481  1.1605
13029TIP3   OH260577   6.326   3.130   0.979  0.0068  0.7270  0.5139
13029TIP3    H160578   6.361   3.114   1.066 -1.6744  1.3972  1.3226
13029TIP3    H260579   6.244   3.082   0.976  0.4257  0.0716 -0.9833
13030TIP3   OH260580   6.566   0.775   0.159 -0.2540  0.0100  0.2537
13030TIP3    H160581   6.574   0.765   0.254  1.8863  0.8885  0.1957
13030TIP3    H260582   6.609   0.698   0.122  0.7522  0.6805 -0.0038
13031TIP3   OH260583   3.096   2.485   5.361 -0.4044  0.1843 -0.0070
13031TIP3    H160584   3.079   2.560   5.303 -2.8316  0.4232  0.9618
13031TIP3    H260585   3.014   2.437   5.363  0.2980 -1.0038  1.5957
13032TIP3   OH260586   5.872   6.346  12.012 -0.3859  0.0055  0.4196
13032TIP3    H160587   5.925   6.267  12.017 -0.4212  0.0141  1.0520
13032TIP3    H260588   5.857   6.360  11.919 -3.6281 -2.9201  0.4011
13033TIP3   OH260589   0.830   4.141   4.176  0.0841 -0.5033  0.3518
13033TIP3    H160590   0.866   4.229   4.163 -0.4774 -0.0514  1.7707
13033TIP3    H260591   0.754   4.154   4.233 -0.2638 -1.8600  0.2142
13034TIP3   OH260592   2.624   1.796  15.996  0.1468  1.1285  0.3993
13034TIP3    H160593   2.701   1.784  15.940  0.3070  0.0199  0.8413
13034TIP3    H260594   2.560   1.733  15.962 -1.2140  3.2277 -1.0631
13035TIP3   OH260595   1.100   3.118   5.125  0.5694 -0.2965  0.3435
13035TIP3    H160596   1.034   3.137   5.191 -1.1429 -1.5776 -0.9547
13035TIP3    H260597   1.133   3.031   5.148 -1.3799 -1.5854 -1.4893
13036TIP3   OH260598   0.184   4.028   3.309 -0.2870 -0.0035 -0.2690
13036TIP3    H160599   0.219   4.116   3.296 -0.1380  0.3451  2.3017
13036TIP3    H260600   0.245   3.985   3.368 -0.6095 -1.7032 -1.1157
13037TIP3   OH260601   0.495   4.628  12.425  0.2118  0.4378  0.0658
13037TIP3    H160602   0.557   4.590  12.362 -0.3768  0.3516 -0.4758
13037TIP3    H260603   0.453   4.698  12.376 -0.0584  0.5474  0.4578
13038TIP3   OH260604   1.568   3.733   4.151 -1.0072 -0.0986 -0.0615
13038TIP3    H160605   1.601   3.707   4.237  0.1704  1.5733  0.0326
13038TIP3    H260606   1.544   3.651   4.108  0.5181 -1.1299  1.0154
13039TIP3   OH260607   3.607   5.135   4.782  0.3179 -0.0550  0.0828
13039TIP3    H160608   3.700   5.115   4.794  0.4422 -1.1742 -2.3660
13039TIP3    H260609   3.606   5.224   4.747  0.3396  0.6885  1.9494
13040TIP3   OH260610   6.778   1.224   1.233 -0.4320 -0.0129 -0.2889
13040TIP3    H160611   6.712   1.287   1.263 -2.7700 -0.9992 -3.0876
13040TIP3    H260612   6.862   1.266   1.253 -1.8966  2.5705  0.7683
13041TIP3   OH260613   1.249   1.536   4.288 -0.0868  0.2097  0.3321
13041TIP3    H160614   1.340   1.555   4.265  1.6251 -4.5559  2.4006
13041TIP3    H260615   1.239   1.569   4.378 -0.1150  0.0268  0.3983
13042TIP3   OH260616   1.038   5.747  16.924 -0.2864  0.5789 -0.3230
13042TIP3    H160617   0.990   5.811  16.871  0.1962 -0.5221 -2.1294
13042TIP3    H260618   1.130   5.767  16.909 -0.1481  0.3028  0.1590
13043TIP3   OH260619   1.042   2.867   2.187  0.3298 -0.2208 -0.2241
13043TIP3    H160620   1.011   2.957   2.178 -3.1136 -1.2171  0.8845
13043TIP3    H260621   1.049   2.853   2.281  0.4097 -1.2736 -0.3780
13044TIP3   OH260622   0.268   4.292   4.234 -0.2705 -0.0906  0.3863
13044TIP3    H160623   0.217   4.211   4.239  0.2133 -0.4427 -0.3560
13044TIP3    H260624   0.319   4.293   4.316  0.2329 -0.8824  0.0847
13045TIP3   OH260625   3.404   1.281  16.079 -0.5175  0.2901  0.2337
13045TIP3    H160626   3.351   1.302  16.002  0.6090  0.0167 -0.6349
13045TIP3    H260627   3.421   1.366  16.120 -0.1460  0.5678 -0.4791
13046TIP3   OH260628   1.463   2.756  16.828 -0.2138  0.2559  0.4967
13046TIP3    H160629   1.462   2.701  16.750  1.5997 -0.0311  0.6669
13046TIP3    H260630   1.432   2.698  16.898 -1.9028  0.5337  0.0108
13047TIP3   OH260631   1.770   2.695  15.341 -0.4783 -0.1208 -0.1495
13047TIP3    H160632   1.769   2.712  15.246 -0.5983  1.8222  0.1650
13047TIP3    H260633   1.862   2.675  15.361 -0.8876 -3.2164 -1.0700
13048TIP3   OH260634   5.155   2.269   1.331 -0.0278 -0.3427  0.1554
13048TIP3    H160635   5.171   2.349   1.281 -0.9567 -0.5919 -0.5605
13048TIP3    H260636   5.199   2.200   1.281 -0.1328 -0.4406  0.1959
13049TIP3   OH260637   6.310   0.089  12.750  0.1397  0.0989  0.0534
13049TIP3    H160638   6.356   0.015  12.791  2.4341  1.2436 -0.3608
13049TIP3    H260639   6.320   0.075  12.656  0.2109  0.6900 -0.0320
13050TIP3   OH260640   3.356   0.454  14.396 -0.1160 -0.1296  0.2452
13050TIP3    H160641   3.316   0.470  14.481  0.3218 -0.2310  0.4683
13050TIP3    H260642   3.316   0.520  14.338 -1.0824 -0.6580  0.3203
13051TIP3   OH260643   3.674   3.036  13.963 -0.0788  0.2197  0.0099
13051TIP3    H160644   3.652   3.113  13.912  0.8674  0.0071 -0.7351
13051TIP3    H260645   3.749   3.062  14.016 -1.2701  0.5463  1.5770
13052TIP3   OH260646   0.665   0.738   1.232  0.0572  0.3657  0.1532
13052TIP3    H160647   0.733   0.774   1.175 -0.6280  1.9605  0.3082
13052TIP3    H260648   0.711   0.709   1.310  0.6083  1.0597  0.0871
13053TIP3   OH260649   4.135   0.761  14.754  0.1525 -0.4873  0.1102
13053TIP3    H160650   4.098   0.673  14.766  0.3448 -0.6173 -0.2445
13053TIP3    H260651   4.058   0.817  14.738 -0.0087 -0.5048  0.8149
13054TIP3   OH260652   2.802   0.459   2.222 -0.8494  0.0165  0.3061
13054TIP3    H160653   2.760   0.410   2.152  0.0660 -1.2219  0.6039
13054TIP3    H260654   2.838   0.537   2.179  1.8010 -1.9057 -1.0621
13055TIP3   OH260655   6.478   3.900   2.824 -0.1734 -0.1031  0.3670
13055TIP3    H160656   6.399   3.846   2.816 -0.3769  0.0225  1.3966
13055TIP3    H260657   6.480   3.925   2.917  1.1263 -0.1805  0.3638
13056TIP3   OH260658   0.076   4.102  16.891 -0.2492  0.3623  0.1178
13056TIP3    H160659   0.000   4.160  16.901  0.1268  1.3170 -2.3425
13056TIP3    H260660   0.084   4.059  16.977 -2.3030  1.7663  1.0675
13057TIP3   OH260661   4.111   6.647   0.391  0.8674 -0.0146 -1.1889
13057TIP3    H160662   4.138   6.738   0.402  0.8487 -0.0934 -0.4235
13057TIP3    H260663   4.051   6.648   0.317  1.4163  0.4822 -1.6237
13058TIP3   OH260664   3.372   0.054  13.074  0.1851  0.0574 -0.0153
13058TIP3    H160665   3.336   0.010  12.996 -0.4406  0.0228  0.2928
13058TIP3    H260666   3.417   0.131  13.039 -3.4655  2.2784 -0.1223
13059TIP3   OH260667   3.701   1.041  14.209  0.6152  0.1960  0.2886
13059TIP3    H160668   3.734   1.103  14.274  0.4805 -1.0036  1.5247
13059TIP3    H260669   3.766   0.971  14.208  0.4117  0.0195 -0.5874
13060TIP3   OH260670   4.909   4.093  15.688 -0.3023 -0.1093 -0.3017
13060TIP3    H160671   4.947   4.146  15.618 -0.9444  0.4742 -0.2123
13060TIP3    H260672   4.934   4.003  15.666  0.7755  0.2150 -0.4651
13061TIP3   OH260673   6.806   2.390  16.464 -0.2064 -0.1138  0.1181
13061TIP3    H160674   6.801   2.464  16.404 -0.7211  0.0925  0.4096
13061TIP3    H260675   6.784   2.314  16.411 -0.2538  0.0167 -0.0491
13062TIP3   OH260676   6.791   5.152  12.024  0.6669  0.1317 -0.2564
13062TIP3    H160677   6.781   5.143  12.119  0.0630  1.2531 -0.1939
13062TIP3    H260678   6.800   5.063  11.992  2.7231 -0.1515  1.0501
13063TIP3   OH260679   5.015   5.479   3.101 -0.0693 -0.4826 -0.1890
13063TIP3    H160680   5.032   5.434   3.183 -0.6929 -0.9218 -0.2982
13063TIP3    H260681   5.022   5.411   3.034 -1.4269 -0.5274 -0.3147
13064TIP3   OH260682   5.830   0.649   4.237 -0.0552  0.4938  0.0705
13064TIP3    H160683   5.905   0.699   4.206  1.0587  0.0268  1.9316
13064TIP3    H260684   5.867   0.565   4.265 -1.2274  0.3739  1.3142
13065TIP3   OH260685   3.817   1.886   4.117 -0.0842  0.0379  0.3472
13065TIP3    H160686   3.884   1.902   4.184 -0.2186  1.6923  0.0974
13065TIP3    H260687   3.802   1.972   4.078  1.0209 -1.1340 -2.7943
13066TIP3   OH260688   2.715   4.700  16.289  0.3368  0.3014  0.7185
13066TIP3    H160689   2.620   4.702  16.295  0.3287  1.0490  0.4202
13066TIP3    H260690   2.735   4.755  16.213  0.9620 -0.4993  0.2931
13067TIP3   OH260691   6.080   4.371  11.426 -0.2715  0.3409  0.5923
13067TIP3    H160692   6.079   4.464  11.403  0.3696 -0.2657 -2.0597
13067TIP3    H260693   5.990   4.342  11.412  0.1644 -0.0765 -1.4927
13068TIP3   OH260694   6.659   4.741   0.225  0.1568  0.1605 -0.6493
13068TIP3    H160695   6.650   4.653   0.189 -0.0342 -0.1371  0.1243
13068TIP3    H260696   6.622   4.735   0.313  0.3860  0.9456 -0.4971
13069TIP3   OH260697   4.113   3.263  16.441  0.0566 -0.1834 -0.4893
13069TIP3    H160698   4.152   3.345  16.413 -0.3060  0.0019 -0.4572
13069TIP3    H260699   4.019   3.275  16.428 -0.1215 -0.0717  0.8581
13070TIP3   OH260700   1.502   2.465  13.129  0.8225 -0.1941 -0.2716
13070TIP3    H160701   1.546   2.388  13.165 -1.0323 -0.6592  1.0917
13070TIP3    H260702   1.449   2.432  13.057  1.6114  0.1448 -1.0145
13071TIP3   OH260703   1.055   6.412  15.968 -0.3802  0.8051 -0.1987
13071TIP3    H160704   1.046   6.482  16.033  1.6361 -0.3441  1.3784
13071TIP3    H260705   1.071   6.333  16.020 -1.1963 -0.5861 -2.0133
13072TIP3   OH260706   6.431   1.657  11.418 -0.2983  0.2473 -0.1237
13072TIP3    H160707   6.393   1.569  11.414 -0.6623  0.2668  2.0777
13072TIP3    H260708   6.488   1.662  11.342 -1.3829 -1.3752 -1.0832
13073TIP3   OH260709   6.067   0.735   6.109  0.4620 -0.3531  0.1790
13073TIP3    H160710   5.998   0.777   6.160  1.4026  0.5564  0.7152
13073TIP3    H260711   6.148   0.772   6.143  1.2227 -1.3902 -0.4656
13074TIP3   OH260712   4.315   0.822   1.213  0.7293 -0.5347 -0.2869
13074TIP3    H160713   4.225   0.790   1.208  0.8448 -0.7771 -0.9471
13074TIP3    H260714   4.336   0.823   1.306  0.3535 -1.3517 -0.1903
13075TIP3   OH260715   5.686   4.350   3.000  0.4146 -0.0969 -0.1904
13075TIP3    H160716   5.627   4.410   3.044  0.4168 -0.3584  0.1709
13075TIP3    H260717   5.741   4.406   2.944 -0.5042  0.0991 -0.9089
13076TIP3   OH260718   3.508   5.423   0.208 -0.0845  0.2100  0.8811
13076TIP3    H160719   3.420   5.395   0.235 -0.0955 -0.1645  0.4441
13076TIP3    H260720   3.548   5.346   0.169 -0.5667  1.0817 -1.4439
13077TIP3   OH260721   2.063   3.681   1.316 -0.0457  0.5087 -0.5051
13077TIP3    H160722   2.039   3.596   1.354  0.8049 -0.5685 -2.3153
13077TIP3    H260723   2.069   3.664   1.222  0.9021  2.4017 -0.8000
13078TIP3   OH260724   2.978   4.196  11.893 -0.1346 -0.0301 -0.2296
13078TIP3    H160725   3.072   4.179  11.891  0.1805  1.5981 -0.0940
13078TIP3    H260726   2.963   4.254  11.818 -0.7451  1.0544  0.7104
13079TIP3   OH260727   3.869   2.174   2.848  0.5900 -0.1687 -0.0567
13079TIP3    H160728   3.914   2.216   2.922 -0.4329 -0.4796  0.7438
13079TIP3    H260729   3.815   2.244   2.811  1.8823  0.2664 -1.1605
13080TIP3   OH260730   2.283   1.647   5.784 -0.6180  0.4483 -0.5863
13080TIP3    H160731   2.218   1.577   5.774  1.2738 -1.2566 -1.3032
13080TIP3    H260732   2.322   1.631   5.870 -0.9270  1.3005 -0.2807
13081TIP3   OH260733   5.046   1.099  11.216  0.2944 -0.0438 -0.1051
13081TIP3    H160734   5.018   1.191  11.212  0.5799  0.0335 -0.3761
13081TIP3    H260735   5.122   1.095  11.157  1.0553 -0.1794  0.8744
13082TIP3   OH260736   5.676   3.077   3.645 -0.3618  0.6591 -0.0510
13082TIP3    H160737   5.754   3.124   3.617  1.7729 -1.7612  1.5641
13082TIP3    H260738   5.650   3.026   3.569 -0.0087  1.0278 -0.4173
13083TIP3   OH260739   0.989   1.152   1.007 -0.0013  0.2026 -0.6347
13083TIP3    H160740   0.923   1.183   1.069 -1.9162 -1.9058 -1.5455
13083TIP3    H260741   1.050   1.101   1.061  1.1480  2.4551  0.2683
13084TIP3   OH260742   3.522   5.457  14.040 -0.3982  0.0591 -0.2678
13084TIP3    H160743   3.462   5.530  14.026 -1.2818 -0.4866  0.5472
13084TIP3    H260744   3.535   5.419  13.953 -1.7487 -0.1895 -0.3841
13085TIP3   OH260745   4.650   6.640   3.838  0.0545 -0.0041 -0.3258
13085TIP3    H160746   4.698   6.594   3.770 -1.3569 -1.3113 -0.4687
13085TIP3    H260747   4.672   6.594   3.919  1.0278  0.9867 -0.0202
13086TIP3   OH260748   2.886   2.148  12.137  0.2828 -1.0983 -0.2380
13086TIP3    H160749   2.882   2.171  12.229 -0.1253  1.4712 -0.8558
13086TIP3    H260750   2.796   2.124  12.114  0.2850 -1.2385 -0.0996
13087TIP3   OH260751   3.818   1.494  13.772  0.0100  0.4211 -0.2429
13087TIP3    H160752   3.750   1.561  13.762 -2.0195 -1.4980  0.2166
13087TIP3    H260753   3.825   1.455  13.685 -0.9478 -0.7364  0.1923
13088TIP3   OH260754   4.420   0.996   0.117 -0.0878 -0.7016  0.8109
13088TIP3    H160755   4.498   1.046   0.091 -1.5139  1.6383  0.9618
13088TIP3    H260756   4.373   0.981   0.036 -1.5860  1.5385  1.2381
13089TIP3   OH260757   3.229   5.101  15.557  0.0689  0.2965  0.4384
13089TIP3    H160758   3.268   5.188  15.553  0.0579  0.2911  0.1975
13089TIP3    H260759   3.162   5.107  15.625  0.3950  0.3448  0.7558
13090TIP3   OH260760   4.480   3.890   0.331 -0.0848 -1.0321  0.0671
13090TIP3    H160761   4.521   3.969   0.364  0.9586 -1.3541 -0.4296
13090TIP3    H260762   4.463   3.837   0.409 -0.5112 -0.4477  0.3681
13091TIP3   OH260763   0.985   1.379  16.138  0.3437 -0.1907  0.0489
13091TIP3    H160764   0.999   1.407  16.229  1.4684 -1.3430  0.2395
13091TIP3    H260765   0.905   1.425  16.112  0.4323  0.7667  1.3630
13092TIP3   OH260766   3.622   3.997   6.087 -0.1383 -0.1000  0.0544
13092TIP3    H160767   3.608   4.082   6.129  1.0670  0.0587  0.1567
13092TIP3    H260768   3.650   3.939   6.157 -2.7125 -1.0855  0.3290
13093TIP3   OH260769   5.794   0.405   5.203 -0.6419 -0.1858 -0.4038
13093TIP3    H160770   5.753   0.383   5.287 -1.4148  0.8065 -0.5057
13093TIP3    H260771   5.835   0.490   5.220  1.1433 -1.0244 -0.3869
13094TIP3   OH260772   1.911   4.069   0.475  0.1958  0.3414  0.1091
13094TIP3    H160773   1.924   4.040   0.565  1.4642 -1.2944 -0.5589
13094TIP3    H260774   1.903   4.164   0.481  0.6433  0.2854  1.9097
13095TIP3   OH260775   4.531   4.086  11.450  0.2821  0.3548 -0.3431
13095TIP3    H160776   4.498   4.072  11.539 -0.9469 -0.8797 -0.9829
13095TIP3    H260777   4.627   4.090  11.461  0.1746 -0.2630  0.9647
13096TIP3   OH260778   0.665   3.709  11.666 -0.1779 -0.1798  0.6984
13096TIP3    H160779   0.578   3.742  11.687  0.0061  1.6493 -1.2426
13096TIP3    H260780   0.671   3.715  11.571  2.2724  0.3172  0.8355
13097TIP3   OH260781   3.058   4.336  12.512 -0.3906 -0.0680  0.0362
13097TIP3    H160782   2.979   4.295  12.477 -0.1824 -0.8436  0.4775
13097TIP3    H260783   3.067   4.417  12.461 -1.2610 -0.1551 -0.2683
13098TIP3   OH260784   1.954   4.695   2.678  0.4459  0.4680 -0.2188
13098TIP3    H160785   1.993   4.677   2.764  1.8996  0.6678 -0.8169
13098TIP3    H260786   1.930   4.609   2.644  1.9601  0.1797 -0.5722
13099TIP3   OH260787   4.039   3.580   2.945  0.2334  0.0874  0.5123
13099TIP3    H160788   3.978   3.515   2.981  0.1817  0.4904  1.1728
13099TIP3    H260789   4.124   3.555   2.980  0.1434  0.6276  1.1176
13100TIP3   OH260790   5.623   5.367   1.411  0.9894 -0.1089 -0.0035
13100TIP3    H160791   5.566   5.376   1.488 -0.3252 -2.0488 -0.7166
13100TIP3    H260792   5.702   5.416   1.434 -0.0050  0.6362  1.9587
13101TIP3   OH260793   0.416   1.342  11.278  0.0197  0.2470 -0.8855
13101TIP3    H160794   0.385   1.403  11.344 -0.4052 -1.0257  0.1201
13101TIP3    H260795   0.402   1.387  11.195 -0.4713  1.4229 -0.1821
13102TIP3   OH260796   5.673   5.548  15.998  0.2931  0.3958  0.2329
13102TIP3    H160797   5.675   5.638  16.030  0.2671  0.7203 -0.6734
13102TIP3    H260798   5.580   5.531  15.981  0.5602  1.0384 -1.9491
13103TIP3   OH260799   5.971   1.898  12.390 -0.1291  0.4822  0.6254
13103TIP3    H160800   5.906   1.883  12.322 -0.0141  0.8934  0.4259
13103TIP3    H260801   6.031   1.962  12.353 -0.2561  0.9615  1.2380
13104TIP3   OH260802   1.403   2.851  15.446 -0.5104 -0.1147 -0.1670
13104TIP3    H160803   1.351   2.849  15.365 -4.2243 -0.1395  2.1138
13104TIP3    H260804   1.400   2.761  15.478 -0.9836  0.3501  1.1286
13105TIP3   OH260805   4.412   1.852   5.869  0.3357 -0.2124 -0.3289
13105TIP3    H160806   4.453   1.872   5.785 -2.0895  0.0274 -1.5054
13105TIP3    H260807   4.393   1.758   5.864 -1.9723  0.2499 -1.0982
13106TIP3   OH260808   4.523   6.134   3.731 -0.0427  0.3100  0.0322
13106TIP3    H160809   4.451   6.071   3.742 -1.6850  2.2752  0.9067
13106TIP3    H260810   4.486   6.202   3.675  0.7143  1.9673  1.4897
13107TIP3   OH260811   4.828   0.006   2.075 -0.0380  0.3629  0.6736
13107TIP3    H160812   4.845   0.097   2.050  0.0714 -0.4634 -2.4372
13107TIP3    H260813   4.762   0.013   2.144 -0.1056  2.7915  0.4198
13108TIP3   OH260814   3.037   1.434   2.375  0.2465  0.0485 -0.6915
13108TIP3    H160815   2.949   1.431   2.337 -0.9090  0.3367  1.8866
13108TIP3    H260816   3.036   1.368   2.444  1.8274  0.6027 -0.1089
13109TIP3   OH260817   4.598   1.296  14.891  0.2308 -0.2500  0.6348
13109TIP3    H160818   4.513   1.333  14.867  0.7475  0.3322 -0.3494
13109TIP3    H260819   4.594   1.205  14.861 -0.1331 -0.2953  0.8175
13110TIP3   OH260820   3.236   3.110   2.248  0.2904  0.7620  0.1351
13110TIP3    H160821   3.243   3.095   2.342  0.3165  1.2645  0.2145
13110TIP3    H260822   3.322   3.085   2.213 -0.7452 -2.5066 -0.1830
13111TIP3   OH260823   1.754   3.362   4.339  1.0141 -0.0049 -0.2632
13111TIP3    H160824   1.780   3.309   4.415 -1.3017 -2.1592 -0.9226
13111TIP3    H260825   1.792   3.317   4.264  1.0682  0.6468 -0.6298
13112TIP3   OH260826   5.933   5.612  12.549 -0.4279  0.0970 -0.5545
13112TIP3    H160827   5.840   5.607  12.526 -0.5396 -0.1042 -0.0553
13112TIP3    H260828   5.972   5.664  12.479 -0.6710 -0.9936 -1.5093
13113TIP3   OH260829   0.074   5.122   4.401  0.0896  0.4163 -0.4262
13113TIP3    H160830   0.133   5.116   4.326 -1.9850 -1.0825 -2.0015
13113TIP3    H260831   0.129   5.103   4.477  1.1620 -3.4478 -2.0615
13114TIP3   OH260832   2.331   0.808   4.925  0.1383 -0.6356 -0.0973
13114TIP3    H160833   2.238   0.801   4.949  0.5894 -1.7805  1.4505
13114TIP3    H260834   2.375   0.826   5.008  1.3691 -0.7172 -0.7251
13115TIP3   OH260835   4.442   6.521  16.411  0.2049 -0.3044  0.4656
13115TIP3    H160836   4.520   6.575  16.418 -0.0318  0.1699 -0.4155
13115TIP3    H260837   4.412   6.533  16.320 -2.2802  1.4641  1.4450
13116TIP3   OH260838   6.454   6.659  16.655  0.1574  0.0155 -0.3207
13116TIP3    H160839   6.383   6.706  16.612 -0.1282  0.6212  0.7863
13116TIP3    H260840   6.532   6.709  16.634  0.1726 -0.3052 -1.0316
13117TIP3   OH260841   6.121   2.874  16.501  0.0422 -0.0263  0.1817
13117TIP3    H160842   6.177   2.804  16.468  0.0367  0.3618 -0.6906
13117TIP3    H260843   6.033   2.836  16.502  0.0686 -0.0988 -0.1066
13118TIP3   OH260844   1.273   2.337  14.367  0.0165  0.9748 -0.2088
13118TIP3    H160845   1.307   2.251  14.393  0.6895  1.4665  0.5388
13118TIP3    H260846   1.349   2.382  14.331  0.0304  1.8844  0.9666
13119TIP3   OH260847   5.317   4.656  14.268  0.3656 -0.2844  0.0891
13119TIP3    H160848   5.240   4.711  14.286  0.1336 -0.6408  0.1833
13119TIP3    H260849   5.385   4.690  14.327  0.4630  0.4239 -0.4185
13120TIP3   OH260850   1.836   3.256  11.761  0.4090  0.1341  0.3397
13120TIP3    H160851   1.877   3.212  11.686  0.1227 -0.1003  0.3194
13120TIP3    H260852   1.901   3.251  11.831  0.1587 -0.8122  0.5063
13121TIP3   OH260853   3.150   4.521   4.302  0.0384  0.2984  0.6301
13121TIP3    H160854   3.206   4.594   4.278 -1.4077  1.4007  0.5839
13121TIP3    H260855   3.144   4.467   4.223 -0.5269  1.2003  0.0537
13122TIP3   OH260856   0.969   2.778  16.047 -0.1474 -0.3881  0.1616
13122TIP3    H160857   0.880   2.752  16.073 -0.0716  0.8182  1.7478
13122TIP3    H260858   1.026   2.720  16.098 -0.0155  0.5281  1.0765
13123TIP3   OH260859   5.809   6.543   5.774  0.5996 -0.5350 -0.3589
13123TIP3    H160860   5.894   6.540   5.730  1.0537 -3.1803  0.6217
13123TIP3    H260861   5.829   6.569   5.864 -0.0096  2.0175 -0.9343
13124TIP3   OH260862   5.526   1.723  14.366  0.2372 -0.4647 -0.0765
13124TIP3    H160863   5.556   1.814  14.366  0.8899 -0.6822 -0.1240
13124TIP3    H260864   5.458   1.721  14.299  2.4336 -0.7443 -2.3436
13125TIP3   OH260865   0.009   1.780  13.287 -0.3276  0.3975  0.1081
13125TIP3    H160866  -0.024   1.864  13.319  3.3800  1.9539  0.0668
13125TIP3    H260867   0.013   1.724  13.365 -0.6320  0.9998  0.5608
13126TIP3   OH260868   3.593   0.881   1.064  0.0413 -0.0032  0.3553
13126TIP3    H160869   3.571   0.792   1.036 -1.5751 -0.3586  2.6294
13126TIP3    H260870   3.553   0.937   0.996  0.8970 -0.9784 -0.9793
13127TIP3   OH260871   4.427   0.161   3.199 -0.2920  0.2994  0.7225
13127TIP3    H160872   4.423   0.254   3.177 -1.0110 -0.0400 -0.6133
13127TIP3    H260873   4.470   0.120   3.124  1.8651 -0.1878  2.1622
13128TIP3   OH260874   6.320   3.922   2.442 -0.3067  0.2390 -0.3259
13128TIP3    H160875   6.257   3.869   2.490 -1.1299  1.9065  0.4901
13128TIP3    H260876   6.271   3.957   2.368 -0.4197  1.6552  0.3892
13129TIP3   OH260877   5.218   4.139  14.297 -0.0468 -0.1846 -0.2460
13129TIP3    H160878   5.271   4.067  14.332 -0.3152 -0.4151 -0.3117
13129TIP3    H260879   5.152   4.096  14.243  0.5305  0.1752 -1.2575
13130TIP3   OH260880   3.580   2.592  15.632  0.1715  0.0408 -0.1389
13130TIP3    H160881   3.496   2.620  15.668  1.1111  0.6808  1.6030
13130TIP3    H260882   3.567   2.499  15.610 -0.7255 -0.0833  0.8827
13131TIP3   OH260883   5.204   2.795  16.136 -0.2087 -0.1097 -0.4791
13131TIP3    H160884   5.218   2.740  16.212 -1.6389 -1.2406 -1.0076
13131TIP3    H260885   5.184   2.881  16.171  1.7651  0.0354  0.3554
13132TIP3   OH260886   1.679   6.642  14.972  0.4191 -0.0652  0.3110
13132TIP3    H160887   1.735   6.637  15.049  0.5323 -1.4935  0.1361
13132TIP3    H260888   1.590   6.638  15.007  0.3381  2.9638  0.6581
13133TIP3   OH260889   5.029   0.183  16.583  0.4310 -0.3482 -0.2133
13133TIP3    H160890   4.988   0.257  16.629  1.9967  0.6192 -0.3245
13133TIP3    H260891   5.123   0.194  16.599  0.7489 -1.7953 -1.0169
13134TIP3   OH260892   1.693   2.068   1.251  0.0753  0.0771 -0.5643
13134TIP3    H160893   1.733   1.990   1.212 -0.9175 -0.2745 -0.9159
13134TIP3    H260894   1.599   2.056   1.237 -0.1289  1.0808 -0.1334
13135TIP3   OH260895   6.447   2.137   6.566  0.2379  0.0690  0.4908
13135TIP3    H160896   6.487   2.054   6.540  0.7208  0.8969 -1.5132
13135TIP3    H260897   6.491   2.160   6.648  0.1533 -1.6028  1.0256
13136TIP3   OH260898   4.341   4.879  12.548 -0.4172  0.0592  0.0045
13136TIP3    H160899   4.305   4.825  12.477 -0.8697 -0.3002  0.5098
13136TIP3    H260900   4.267   4.929  12.581  0.2702  2.1209 -1.4349
13137TIP3   OH260901   1.066   5.221   4.166  0.0903  0.3370 -0.5862
13137TIP3    H160902   1.072   5.189   4.256  0.8498 -1.0587 -1.1122
13137TIP3    H260903   1.140   5.282   4.157  2.0648 -2.0593 -1.2280
13138TIP3   OH260904   1.416   6.700   0.040  0.2321 -0.0317  0.0276
13138TIP3    H160905   1.461   6.743   0.113 -0.7319 -0.2176  0.7307
13138TIP3    H260906   1.358   6.767   0.004 -0.4063 -0.3811  0.3892
13139TIP3   OH260907   4.319   3.154  14.824 -0.0149  0.1331 -0.6680
13139TIP3    H160908   4.233   3.172  14.862  0.8628  0.5061  1.2410
13139TIP3    H260909   4.380   3.162  14.898  1.7544  0.6380 -2.1303
13140TIP3   OH260910   3.447   0.357  12.113  0.1238  0.0481 -0.2505
13140TIP3    H160911   3.461   0.272  12.072 -0.0731 -0.1365  0.0632
13140TIP3    H260912   3.519   0.412  12.080  0.0054 -0.1172 -0.7827
13141TIP3   OH260913   0.105   5.036  15.282 -0.3704 -0.2729  0.4659
13141TIP3    H160914   0.049   5.041  15.205  1.7516 -0.0982 -1.1210
13141TIP3    H260915   0.101   5.124  15.321  2.3978  1.1450 -2.2895
13142TIP3   OH260916   1.455   4.771  12.094 -0.2153  0.2566 -0.0199
13142TIP3    H160917   1.448   4.863  12.119 -1.4457  0.2097 -0.1675
13142TIP3    H260918   1.516   4.771  12.020  1.4677  0.6835  1.3061
13143TIP3   OH260919   2.060   0.803   4.968  0.4636  0.3199 -0.3277
13143TIP3    H160920   2.031   0.726   4.918  0.1846 -0.3492  0.8296
13143TIP3    H260921   2.011   0.876   4.930 -1.1350 -0.4606  0.1688
13144TIP3   OH260922   3.504   3.449   3.174 -0.1760  0.7091  0.0625
13144TIP3    H160923   3.489   3.490   3.260 -1.1029  1.4508 -0.4409
13144TIP3    H260924   3.576   3.387   3.189  1.0832  2.3399  0.8915
13145TIP3   OH260925   4.659   6.710  15.823 -0.0955  0.0924 -0.0242
13145TIP3    H160926   4.639   6.796  15.787 -0.3303  1.2083  2.6240
13145TIP3    H260927   4.713   6.728  15.900  1.2933 -2.2373 -0.4207
13146TIP3   OH260928   2.958   3.437  13.918 -0.3390  0.1362 -0.2119
13146TIP3    H160929   3.013   3.360  13.907 -0.2369 -0.0991  1.7726
13146TIP3    H260930   2.941   3.441  14.012 -0.9236  2.1370 -0.3865
13147TIP3   OH260931   5.713   1.461  11.670 -0.1070  0.0953  0.1015
13147TIP3    H160932   5.696   1.489  11.760  0.0407  0.7570 -0.0780
13147TIP3    H260933   5.808   1.447  11.667 -0.2529 -1.0158  0.3577
13148TIP3   OH260934   5.504   2.219   5.678 -0.4538 -0.4399 -0.4617
13148TIP3    H160935   5.526   2.302   5.720 -1.2614  0.1722 -1.2138
13148TIP3    H260936   5.441   2.178   5.738  0.1506 -0.6382  0.0413
13149TIP3   OH260937   4.571   4.768  15.763 -0.1028 -0.3717  0.2374
13149TIP3    H160938   4.599   4.846  15.809 -2.5873  0.0713  1.0347
13149TIP3    H260939   4.616   4.696  15.807 -0.3789  0.3052  1.6341
13150TIP3   OH260940   3.199   6.662   1.797 -0.2822  0.2865 -0.8819
13150TIP3    H160941   3.117   6.654   1.749  0.2814 -0.4292 -1.7584
13150TIP3    H260942   3.265   6.675   1.729  0.1522  2.3580 -0.0966
13151TIP3   OH260943   5.560   6.575   3.591 -0.3034 -0.6676  0.5007
13151TIP3    H160944   5.647   6.534   3.588 -0.7724 -1.7469  1.1830
13151TIP3    H260945   5.541   6.599   3.500  1.0165  0.2438  0.4527
13152TIP3   OH260946   0.271   0.314  12.965 -0.3721 -0.2758  0.6074
13152TIP3    H160947   0.245   0.283  13.051 -0.9435 -0.5773  0.3350
13152TIP3    H260948   0.233   0.402  12.958  1.6380  0.6965  1.5605
13153TIP3   OH260949   0.891   4.206  14.235  0.6821  0.2108 -0.3273
13153TIP3    H160950   0.960   4.200  14.169  0.4181  0.3712 -0.6218
13153TIP3    H260951   0.829   4.269  14.198  0.2442 -0.1376 -0.1911
13154TIP3   OH260952   5.820   0.032  13.946  0.3064 -1.1671  0.1986
13154TIP3    H160953   5.821  -0.030  14.019 -0.9167 -0.5951  0.7109
13154TIP3    H260954   5.875   0.105  13.975 -1.0600 -0.4465  0.9902
13155TIP3   OH260955   0.253   4.037   5.122 -0.2442  0.0842  0.0022
13155TIP3    H160956   0.196   4.063   5.195  0.2216  0.8859  0.0828
13155TIP3    H260957   0.195   3.989   5.063 -0.4926 -1.1562  1.2075
13156TIP3   OH260958   0.072   3.725   0.883  0.0454  0.5867 -0.0504
13156TIP3    H160959   0.073   3.638   0.843  0.4664  1.2468 -1.5169
13156TIP3    H260960   0.155   3.730   0.931 -0.8660 -0.5470  1.6695
13157TIP3   OH260961   6.556   4.894  16.567  0.5858 -0.0510 -0.4569
13157TIP3    H160962   6.496   4.824  16.541  0.5675 -0.4623  0.6383
13157TIP3    H260963   6.527   4.970  16.518 -0.5153 -0.3735 -0.3333
13158TIP3   OH260964   1.950   4.804   5.347 -0.4127  0.0323 -0.0431
13158TIP3    H160965   1.911   4.727   5.389  0.5442 -0.5715 -0.2375
13158TIP3    H260966   1.991   4.852   5.418  1.2843 -1.0361 -0.2591
13159TIP3   OH260967   0.471   4.577   3.349  0.1352  0.1899 -0.2619
13159TIP3    H160968   0.401   4.641   3.332 -0.3838  0.0458  1.3014
13159TIP3    H260969   0.519   4.613   3.423  2.0083  0.4986 -1.5950
13160TIP3   OH260970   2.415   4.957  12.140 -0.4381 -0.7807 -0.1105
13160TIP3    H160971   2.405   4.865  12.117  0.7571 -0.6393 -1.2468
13160TIP3    H260972   2.417   5.003  12.056  1.0706  0.0587  0.3685
13161TIP3   OH260973   5.241   5.540   3.576  0.4163 -0.4481 -0.4747
13161TIP3    H160974   5.262   5.622   3.620 -0.4061  0.6006 -1.9826
13161TIP3    H260975   5.149   5.547   3.553  0.2381 -1.9612 -0.2908
13162TIP3   OH260976   6.788   6.392   4.551  0.8590 -0.3797 -0.0046
13162TIP3    H160977   6.767   6.470   4.499  0.7564  0.6510  1.5507
13162TIP3    H260978   6.767   6.416   4.641  2.3995 -1.6232  0.7303
13163TIP3   OH260979   4.527   2.831   6.315 -0.2761 -0.2920 -0.3473
13163TIP3    H160980   4.471   2.894   6.269 -0.0187  1.9211  2.2507
13163TIP3    H260981   4.471   2.754   6.327 -1.1861  0.0773 -1.9815
13164TIP3   OH260982   3.731   1.098   0.053  0.4195 -0.0364 -0.2535
13164TIP3    H160983   3.774   1.160  -0.007  0.1448  0.0281 -0.3849
13164TIP3    H260984   3.655   1.146   0.086 -1.2034 -1.1283 -2.2272
13165TIP3   OH260985   4.991   2.149   3.639 -0.1083 -0.8442 -0.5804
13165TIP3    H160986   4.916   2.198   3.607 -0.3851 -0.6929  0.2795
13165TIP3    H260987   5.007   2.083   3.571 -0.5541 -0.4080 -1.1163
13166TIP3   OH260988   2.105   5.671   3.805 -0.0884 -0.3936 -0.0741
13166TIP3    H160989   2.092   5.753   3.758 -2.1262 -1.4916 -1.4938
13166TIP3    H260990   2.148   5.697   3.886  2.4243  1.6735 -1.9830
13167TIP3   OH260991   5.893   0.906  11.494  0.3554  0.0672  1.1041
13167TIP3    H160992   5.801   0.884  11.480  0.0666  1.1039  1.3396
13167TIP3    H260993   5.924   0.937  11.409  0.2813  0.4517  1.2187
13168TIP3   OH260994   5.185   5.912  11.927  0.3005 -0.2929 -0.5055
13168TIP3    H160995   5.176   5.992  11.875  0.8376  0.2883  0.3071
13168TIP3    H260996   5.279   5.902  11.941  0.1062 -0.0184  1.0321
13169TIP3   OH260997   1.657   4.452  12.861  0.3900  0.1661 -0.2009
13169TIP3    H160998   1.598   4.447  12.787  0.8862  0.1365 -0.5999
13169TIP3    H260999   1.662   4.363  12.895  1.3339 -0.1273 -1.0655
13170TIP3   OH261000   2.027   3.626  11.346 -0.0494  0.1550 -0.2715
13170TIP3    H161001   2.108   3.574  11.343 -0.1745 -0.0506 -0.1020
13170TIP3    H261002   2.032   3.683  11.269  0.9898  1.2262  0.5617
13171TIP3   OH261003   1.423   6.583   5.540 -0.1718 -0.0115  0.5084
13171TIP3    H161004   1.503   6.595   5.590  0.4717 -0.4438 -0.4125
13171TIP3    H261005   1.436   6.502   5.491 -0.8024  0.3902 -0.3464
13172TIP3   OH261006   0.787   1.862   5.345  0.0962 -0.4113  1.2162
13172TIP3    H161007   0.772   1.956   5.336 -0.1205 -0.5000  0.6251
13172TIP3    H261008   0.726   1.834   5.414  0.5210 -0.0320  1.7465
13173TIP3   OH261009   2.099   5.598  13.084  0.0345  0.4162 -0.0513
13173TIP3    H161010   2.014   5.641  13.079  0.1018  0.5975  0.3473
13173TIP3    H261011   2.100   5.555  13.170  0.1671  0.0408 -0.2391
13174TIP3   OH261012   4.968   5.955  15.419 -0.1526  0.3752 -0.9206
13174TIP3    H161013   5.057   5.954  15.385 -0.0535 -0.0072 -0.6567
13174TIP3    H261014   4.912   5.946  15.342  0.0434  0.3492 -1.0585
13175TIP3   OH261015   6.563   2.740   4.115 -0.2080  0.4020  0.4668
13175TIP3    H161016   6.484   2.748   4.062  1.3859  0.1508 -1.9934
13175TIP3    H261017   6.570   2.646   4.133  1.3460 -0.0534 -2.2349
13176TIP3   OH261018   5.720   5.108   1.356  0.2536  0.5014 -0.0116
13176TIP3    H161019   5.685   5.101   1.267  0.0714 -0.1535  0.1060
13176TIP3    H261020   5.683   5.188   1.391 -0.4185  0.2771 -0.2054
13177TIP3   OH261021   0.648   3.947   2.383 -0.2555 -0.2182  0.1637
13177TIP3    H161022   0.594   3.933   2.461 -0.8705  0.8804 -0.0594
13177TIP3    H261023   0.735   3.966   2.418 -0.9732  2.3325  0.6876
13178TIP3   OH261024   5.161   2.191  14.677 -0.4941 -0.4174 -0.4581
13178TIP3    H161025   5.086   2.228  14.630  0.5511  1.7993 -0.4564
13178TIP3    H261026   5.215   2.267  14.700  1.3732 -1.8940  0.2129
13179TIP3   OH261027   0.585   0.553   3.344 -0.4501 -0.2753 -0.1376
13179TIP3    H161028   0.663   0.599   3.311 -0.6295  0.2637  0.1883
13179TIP3    H261029   0.563   0.599   3.425  0.2609 -1.8717  0.9947
13180TIP3   OH261030   6.166   5.305   2.637 -0.0928  0.5061 -0.1898
13180TIP3    H161031   6.130   5.220   2.614  0.0000 -0.0487  1.6376
13180TIP3    H261032   6.097   5.347   2.688  0.2960  1.0880 -0.1397
13181TIP3   OH261033   0.703   4.874  12.250 -0.3277  0.1964 -0.0645
13181TIP3    H161034   0.625   4.906  12.294 -0.3437  0.4249 -0.2582
13181TIP3    H261035   0.751   4.953  12.225 -0.4377  0.0768 -0.6640
13182TIP3   OH261036   5.133   5.679  17.285 -0.1589 -0.1558 -0.0617
13182TIP3    H161037   5.197   5.737  17.244  1.1930 -1.1206  0.6172
13182TIP3    H261038   5.122   5.607  17.223  2.4998 -2.0279  1.5285
13183TIP3   OH261039   0.192   2.723  14.930  0.1852  0.1731  0.4940
13183TIP3    H161040   0.240   2.695  15.008  0.7589 -0.3461 -0.0510
13183TIP3    H261041   0.105   2.685  14.942 -0.0762  1.0350  1.4332
13184TIP3   OH261042   2.661   0.810  14.683 -0.0072  0.3749 -0.3717
13184TIP3    H161043   2.736   0.753  14.666 -0.1072  0.1849 -0.1669
13184TIP3    H261044   2.591   0.751  14.708  0.2928  0.6947  1.2818
13185TIP3   OH261045   6.074   3.017  17.121 -0.0253  0.0217  0.2704
13185TIP3    H161046   6.129   2.968  17.182 -1.8293 -0.0077  1.9583
13185TIP3    H261047   6.135   3.054  17.057  1.8045 -0.8763  1.4468
13186TIP3   OH261048   6.250   3.143  16.949 -0.3150 -0.0857 -0.0564
13186TIP3    H161049   6.250   3.238  16.935 -1.6499 -0.1237 -0.3974
13186TIP3    H261050   6.235   3.107  16.861  1.0975 -0.6584 -0.0824
13187TIP3   OH261051   0.491   5.412   2.665  0.5665 -0.3136  0.3590
13187TIP3    H161052   0.426   5.417   2.595  0.1751  1.7629  0.8185
13187TIP3    H261053   0.489   5.499   2.705  4.6558  0.3091 -0.5700
13188TIP3   OH261054   2.195   5.461  15.324 -0.5191 -0.2549  0.4662
13188TIP3    H161055   2.243   5.473  15.242 -2.2199  1.6888 -0.2777
13188TIP3    H261056   2.118   5.411  15.299 -1.6416  1.3512  0.6388
13189TIP3   OH261057   1.830   0.920   6.868  0.4779  0.2169  0.1131
13189TIP3    H161058   1.843   0.987   6.801  0.0854  0.2052  0.0230
13189TIP3    H261059   1.747   0.878   6.845  0.9499 -0.6122 -0.0970
13190TIP3   OH261060   4.278   4.100  12.008 -0.3030 -0.1351 -0.2237
13190TIP3    H161061   4.275   4.184  11.962 -1.8038 -0.5656 -0.9070
13190TIP3    H261062   4.360   4.104  12.057  1.7728 -0.0040 -3.5533
13191TIP3   OH261063   6.076   0.124   4.836  0.4413  0.1720  0.7355
13191TIP3    H161064   6.010   0.168   4.782 -0.0863 -0.0397  1.2128
13191TIP3    H261065   6.142   0.094   4.773 -0.1003  0.0595  0.2193
13192TIP3   OH261066   0.341   1.708   5.352  0.6069  0.2286  0.4479
13192TIP3    H161067   0.407   1.727   5.419  0.2280 -0.5265  1.0416
13192TIP3    H261068   0.257   1.718   5.397  0.3038  1.0750 -0.2773
13193TIP3   OH261069   3.127   0.089   0.921 -0.8231  0.0627 -0.3856
13193TIP3    H161070   3.216   0.070   0.949 -0.6233 -0.0960 -1.1073
13193TIP3    H261071   3.080   0.110   1.002 -0.6820 -2.0568  0.2843
13194TIP3   OH261072   6.302   2.392  12.862  0.7190 -0.0014 -0.1161
13194TIP3    H161073   6.327   2.485  12.867 -0.8128  0.3887  0.4876
13194TIP3    H261074   6.373   2.351  12.812  1.5083  1.4533 -0.2248
13195TIP3   OH261075   1.569   2.186  11.199 -0.5992  0.6493 -0.6996
13195TIP3    H161076   1.659   2.185  11.167 -0.4776 -0.6660 -0.3153
13195TIP3    H261077   1.556   2.276  11.230  1.0540  0.4484  0.6367
13196TIP3   OH261078   5.520   0.361  11.758 -0.1167 -0.3872 -0.2542
13196TIP3    H161079   5.485   0.271  11.752 -0.6756 -0.1746 -0.2442
13196TIP3    H261080   5.485   0.404  11.680 -1.3435  0.3364  0.6904
13197TIP3   OH261081   5.920   5.429   1.897  0.3425  0.3413 -0.1081
13197TIP3    H161082   5.914   5.339   1.930 -2.5502  0.7385  0.6525
13197TIP3    H261083   5.877   5.426   1.811  1.1543  0.7949 -0.5335
13198TIP3   OH261084   2.006   3.801   5.342 -0.1715 -0.1589 -0.6082
13198TIP3    H161085   2.018   3.895   5.332 -1.5671  0.1949  0.9361
13198TIP3    H261086   2.094   3.764   5.328  0.3500  1.3387 -1.3596
13199TIP3   OH261087   1.223   3.450  10.574  0.3280 -0.7633  0.0940
13199TIP3    H161088   1.169   3.485  10.504  0.1778  1.4526  1.3046
13199TIP3    H261089   1.286   3.393  10.528  0.7928  1.3083 -1.9497
13200TIP3   OH261090   3.477   1.656  14.094  0.0027 -0.1725 -0.4491
13200TIP3    H161091   3.391   1.691  14.070  0.8140  2.1579 -0.1191
13200TIP3    H261092   3.478   1.657  14.189  0.2375 -0.5861 -0.4479
13201TIP3   OH261093   1.232   3.656   3.425 -0.0030  0.3282  0.0632
13201TIP3    H161094   1.215   3.742   3.463 -1.5531  1.2248 -2.5406
13201TIP3    H261095   1.303   3.671   3.363 -0.2695 -0.2598 -0.3853
13202TIP3   OH261096   0.491   2.068  13.793  0.0025 -0.9452  0.0680
13202TIP3    H161097   0.532   1.982  13.798  0.9248 -0.5919 -1.1763
13202TIP3    H261098   0.469   2.079  13.700  2.3402  1.2590 -0.2900
13203TIP3   OH261099   3.782   1.397   5.967  0.3490  0.4926  0.2742
13203TIP3    H161100   3.693   1.409   6.000  1.0714  3.5157  1.2102
13203TIP3    H261101   3.808   1.483   5.934  2.4320 -0.6812 -1.2807
13204TIP3   OH261102   5.507   6.417  16.166  0.0741  0.1449 -0.1904
13204TIP3    H161103   5.413   6.402  16.164  0.1337 -0.1476 -1.0571
13204TIP3    H261104   5.523   6.459  16.250 -0.3829 -2.7560  1.4250
13205TIP3   OH261105   0.646   6.697   4.546 -0.2757 -0.3928  0.1698
13205TIP3    H161106   0.727   6.674   4.592 -0.7292  0.4454  1.4046
13205TIP3    H261107   0.639   6.792   4.556 -2.0088 -0.5985  1.0704
13206TIP3   OH261108   1.839   0.996   2.670 -0.1955  0.4174  0.1148
13206TIP3    H161109   1.893   1.075   2.674 -0.4101  0.4952  1.9925
13206TIP3    H261110   1.901   0.926   2.651  0.2279  0.8100  0.0263
13207TIP3   OH261111   6.245   2.277  14.504 -0.0497  0.5195 -0.0231
13207TIP3    H161112   6.301   2.305  14.432 -0.3951 -1.4446 -1.0794
13207TIP3    H261113   6.167   2.243  14.461  0.5664 -2.5172  1.1557
13208TIP3   OH261114   2.141   1.254  14.276 -0.4970 -0.1194  0.0813
13208TIP3    H161115   2.178   1.259  14.364 -1.4638 -1.1056  0.5584
13208TIP3    H261116   2.160   1.165  14.247 -2.3786 -0.6051  0.2926
13209TIP3   OH261117   4.902   3.505   2.495  0.1028 -0.4462  0.2744
13209TIP3    H161118   4.874   3.584   2.541  0.8670  0.1292 -0.2315
13209TIP3    H261119   4.833   3.489   2.431  1.1666  1.2834 -1.3387
13210TIP3   OH261120   4.195   4.685   0.041  0.4480 -0.0682  0.0118
13210TIP3    H161121   4.126   4.695  -0.025  0.5736  0.4920 -0.0356
13210TIP3    H261122   4.271   4.654  -0.009 -0.1281 -1.9853  0.2572
13211TIP3   OH261123   3.435   2.854  13.623  0.4624  0.7777 -0.3430
13211TIP3    H161124   3.434   2.776  13.678 -0.8834  0.2449 -1.0916
13211TIP3    H261125   3.525   2.862  13.592  0.5039 -0.7582 -0.6418
13212TIP3   OH261126   6.244   6.804  16.566  1.0017 -0.0883  0.0442
13212TIP3    H161127   6.159   6.798  16.610  1.3811 -2.7685  0.4429
13212TIP3    H261128   6.222   6.830  16.476 -0.2430 -0.7864  0.1329
13213TIP3   OH261129   5.604   1.339  16.088  0.0149 -0.1677  0.4079
13213TIP3    H161130   5.677   1.335  16.149 -0.6001  0.7416  1.2275
13213TIP3    H261131   5.624   1.412  16.030 -0.9551  1.0621  1.5941
13214TIP3   OH261132   2.861   3.648   0.009  0.2332  0.0031 -0.6935
13214TIP3    H161133   2.779   3.657  -0.041  0.1881 -1.3185 -0.8703
13214TIP3    H261134   2.832   3.637   0.099  0.3052  2.0366 -0.3905
13215TIP3   OH261135   4.080   2.067  15.561  0.1192 -0.1018  0.1130
13215TIP3    H161136   4.059   1.974  15.552 -0.8207  0.2485 -1.6120
13215TIP3    H261137   4.040   2.092  15.645 -0.4664 -1.0264  0.1192
13216TIP3   OH261138   3.107   4.669  16.948 -0.2549 -0.2596 -0.2874
13216TIP3    H161139   3.160   4.636  16.875 -1.6054 -0.4867 -1.2089
13216TIP3    H261140   3.071   4.752  16.916  0.8917  0.7324  0.9695
13217TIP3   OH261141   5.383   3.280   0.924 -0.0607 -0.3803 -0.8207
13217TIP3    H161142   5.313   3.263   0.861  1.1782  0.1402 -2.3404
13217TIP3    H261143   5.380   3.374   0.938  1.2811 -0.1500 -2.0109
13218TIP3   OH261144   5.786   4.791   4.116  0.3465 -0.0845 -0.2250
13218TIP3    H161145   5.872   4.827   4.091  0.0611  0.8578  0.1324
13218TIP3    H261146   5.796   4.767   4.208 -0.0762  0.9837  0.1079
13219TIP3   OH261147   0.616   4.169   2.228 -0.6293  1.0518  0.2568
13219TIP3    H161148   0.653   4.089   2.265 -1.1431  1.0156  0.7020
13219TIP3    H261149   0.569   4.210   2.301 -1.1830  1.2623 -0.2085
13220TIP3   OH261150   6.054   3.193   5.856  0.4186 -0.1588 -0.5767
13220TIP3    H161151   6.115   3.123   5.882 -1.1862 -1.8716 -1.2786
13220TIP3    H261152   6.022   3.165   5.770 -2.5612 -0.1228  0.4755
13221TIP3   OH261153   0.381   1.671   4.068 -0.0270  0.3489 -0.0835
13221TIP3    H161154   0.433   1.617   4.008 -0.5756 -2.0051  1.5076
13221TIP3    H261155   0.290   1.659   4.039 -0.3883 -1.5430  1.7508
13222TIP3   OH261156   1.690   4.860  15.394 -0.6291 -0.1315  0.0095
13222TIP3    H161157   1.688   4.790  15.459 -0.0288 -0.2609 -0.1025
13222TIP3    H261158   1.775   4.902  15.407 -0.3499 -0.3945 -0.9211
13223TIP3   OH261159   2.820   1.991   1.055 -0.2470  0.1550  0.6615
13223TIP3    H161160   2.771   1.942   0.989  0.5277 -0.6955  0.7049
13223TIP3    H261161   2.902   1.943   1.064  0.2379  1.0675  1.2200
13224TIP3   OH261162   4.733   4.019  15.914  0.2404  0.0652 -0.5989
13224TIP3    H161163   4.751   3.949  15.976  1.5027  0.6318 -0.3285
13224TIP3    H261164   4.809   4.021  15.857  0.5458  1.7174 -0.1480
13225TIP3   OH261165   0.099   0.400   6.052 -0.0220 -0.5558 -0.0173
13225TIP3    H161166   0.117   0.392   5.959 -1.6182 -0.9110 -0.3058
13225TIP3    H261167   0.047   0.480   6.061  2.1777  0.8300  0.8926
13226TIP3   OH261168   6.659   4.130  16.370  0.0367  0.2763  0.1974
13226TIP3    H161169   6.627   4.051  16.414  0.5827  0.2455  0.5542
13226TIP3    H261170   6.731   4.160  16.425 -0.0372  0.9118 -0.0484
13227TIP3   OH261171   3.994   4.264  15.595 -0.0242 -0.1675 -0.3475
13227TIP3    H161172   4.026   4.294  15.510  1.5720  1.6485  0.8593
13227TIP3    H261173   3.899   4.275  15.589  0.3001  2.8945 -0.8474
13228TIP3   OH261174   1.372   4.587  17.181  0.3176 -0.1242  0.1817
13228TIP3    H161175   1.424   4.567  17.258  2.5585 -0.0262 -1.2597
13228TIP3    H261176   1.333   4.673  17.200  2.1886  0.6648  0.5549
13229TIP3   OH261177   2.588   4.779  15.160 -0.0974  0.1395  0.4516
13229TIP3    H161178   2.550   4.851  15.209  0.8174  0.2255  1.0568
13229TIP3    H261179   2.594   4.812  15.070 -0.7708  0.3821  0.4955
13230TIP3   OH261180   2.496   3.761   3.554  0.6255 -0.3396 -0.0120
13230TIP3    H161181   2.567   3.756   3.618 -0.4204  1.5277  1.3546
13230TIP3    H261182   2.417   3.751   3.607 -0.1962 -0.4990 -1.2620
13231TIP3   OH261183   6.558   3.862   3.371  0.2407 -0.2216 -0.0629
13231TIP3    H161184   6.576   3.843   3.279 -0.8097 -0.0031 -0.3288
13231TIP3    H261185   6.637   3.904   3.403  1.2084 -1.7093 -0.4505
13232TIP3   OH261186   0.484   2.971  16.474  0.3240 -0.7951 -0.3974
13232TIP3    H161187   0.404   2.931  16.510  0.1386  0.3732  0.5205
13232TIP3    H261188   0.553   2.942  16.533  0.3172 -0.4228 -0.2081
13233TIP3   OH261189   6.623   6.335   1.498 -0.0233 -0.9945  0.2610
13233TIP3    H161190   6.553   6.351   1.434  1.3224 -0.4192 -1.0890
13233TIP3    H261191   6.605   6.398   1.568 -0.5408 -0.4574 -0.3441
13234TIP3   OH261192   1.094   4.726  12.465  0.8661 -0.3599 -0.2360
13234TIP3    H161193   1.109   4.794  12.399 -0.7176  0.6639  0.4316
13234TIP3    H261194   1.176   4.721  12.513  1.7769 -0.5562 -1.7559
13235TIP3   OH261195   1.729   2.632   4.510 -0.4289 -0.5105 -0.6920
13235TIP3    H161196   1.727   2.563   4.576 -1.1572 -0.2302 -0.4190
13235TIP3    H261197   1.816   2.625   4.470 -0.0542 -0.7861  0.1787
13236TIP3   OH261198   5.431   1.423  11.843  0.4621  0.1655  0.8510
13236TIP3    H161199   5.498   1.427  11.911  1.9369  0.9598 -0.6136
13236TIP3    H261200   5.442   1.337  11.803  1.0846  0.5616  0.1560
13237TIP3   OH261201   2.236   2.895   4.876  0.2719 -0.0390  0.0108
13237TIP3    H161202   2.324   2.860   4.868 -0.4616 -1.5648 -1.7515
13237TIP3    H261203   2.236   2.974   4.823  0.9985  0.8682  1.3212
13238TIP3   OH261204   5.502   0.250   4.002  0.0515  0.1293 -0.9463
13238TIP3    H161205   5.478   0.280   3.914 -0.3031  0.4221 -0.7494
13238TIP3    H261206   5.425   0.267   4.055  0.3326  0.1229 -0.5353
13239TIP3   OH261207   0.466   0.784   2.215  0.0571 -0.2818  0.4349
13239TIP3    H161208   0.531   0.803   2.282 -0.3184 -1.5872  1.1893
13239TIP3    H261209   0.390   0.838   2.238  0.9224  1.4067 -0.5700
13240TIP3   OH261210   0.327   5.717   1.066 -0.1621  0.4974  0.1797
13240TIP3    H161211   0.273   5.670   1.130 -0.0587  3.5230  2.5798
13240TIP3    H261212   0.360   5.648   1.008 -3.5622 -1.8696  0.8589
13241TIP3   OH261213   3.307   4.227  13.121  0.3422  0.4397  0.0455
13241TIP3    H161214   3.216   4.250  13.103  0.7270  1.5308 -0.5239
13241TIP3    H261215   3.328   4.160  13.056 -0.1555 -0.0634  0.4006
13242TIP3   OH261216   5.688   0.464  13.619  0.2381  0.4209  0.4954
13242TIP3    H161217   5.698   0.526  13.691 -0.4432 -0.1872  1.1295
13242TIP3    H261218   5.694   0.378  13.660  0.6954  0.0647 -0.3050
13243TIP3   OH261219   6.817   5.430  13.380 -0.8425  0.3494 -0.2939
13243TIP3    H161220   6.748   5.369  13.405 -1.8796  1.3228 -0.6973
13243TIP3    H261221   6.786   5.515  13.411  2.3313  0.2100  3.7015
13244TIP3   OH261222   1.497   1.194   4.078 -0.3459  0.2777 -0.3814
13244TIP3    H161223   1.576   1.242   4.053 -1.0774  1.0065 -1.3236
13244TIP3    H261224   1.470   1.233   4.161  0.9940 -0.8353  0.6012
13245TIP3   OH261225   1.568   3.178  12.545 -0.4907 -0.0066 -0.3976
13245TIP3    H161226   1.492   3.222  12.507 -0.8975 -0.4092 -0.0452
13245TIP3    H261227   1.533   3.100  12.587  0.1224 -0.2154 -0.2656
13246TIP3   OH261228   1.593   2.129   4.554 -0.2163  0.3039  0.1737
13246TIP3    H161229   1.640   2.212   4.552 -1.7910  1.2474  1.1151
13246TIP3    H261230   1.569   2.116   4.646 -0.8182 -0.6985 -0.1091
13247TIP3   OH261231   4.534   3.309   3.405  0.1010  0.5277  0.0169
13247TIP3    H161232   4.545   3.225   3.451 -1.0173  0.7851  0.7658
13247TIP3    H261233   4.604   3.364   3.440  0.2388  0.2119  0.2410
13248TIP3   OH261234   4.012   3.528  14.605  0.4016  0.4839 -0.3476
13248TIP3    H161235   4.102   3.527  14.572  0.0381  1.4081 -1.4107
13248TIP3    H261236   3.958   3.532  14.526 -0.6219 -1.1436  0.2389
13249TIP3   OH261237   0.532   2.416   5.229 -0.5066  0.1816  0.1878
13249TIP3    H161238   0.518   2.331   5.189  2.4419 -1.0589  1.6214
13249TIP3    H261239   0.451   2.433   5.279 -0.9006 -2.0151  0.3246
13250TIP3   OH261240   3.680   6.633   4.207 -0.3723 -0.4886 -0.2346
13250TIP3    H161241   3.639   6.581   4.276 -0.6515 -0.0272 -0.0499
13250TIP3    H261242   3.625   6.619   4.130 -0.5977 -0.2658 -0.1164
13251TIP3   OH261243   3.700   1.807  16.089  0.4010  0.8567  0.0464
13251TIP3    H161244   3.768   1.845  16.145  0.6433  0.8162 -0.2202
13251TIP3    H261245   3.742   1.731  16.049  0.7525  1.8483 -1.4813
13252TIP3   OH261246   1.226   2.835   5.213  0.4027  0.0554  0.1317
13252TIP3    H161247   1.215   2.906   5.277 -0.5293 -0.9539  1.0980
13252TIP3    H261248   1.254   2.760   5.265  0.0666 -0.6606 -0.7068
13253TIP3   OH261249   4.262   4.756  14.482 -0.1562  0.3112  0.2113
13253TIP3    H161250   4.314   4.806  14.545  1.0121 -0.3071 -0.2598
13253TIP3    H261251   4.290   4.788  14.397  0.5880 -1.1373 -0.0899
13254TIP3   OH261252   3.785   0.452   0.771 -0.0296  0.9065 -0.2675
13254TIP3    H161253   3.875   0.464   0.801 -0.6179 -0.4281  2.1794
13254TIP3    H261254   3.743   0.536   0.787  0.1270  0.7451  1.0596
13255TIP3   OH261255   2.653   3.748  11.643  0.8673 -0.2217  0.2936
13255TIP3    H161256   2.622   3.748  11.734  2.0384  2.3728  0.7255
13255TIP3    H261257   2.602   3.817  11.601  1.8618  0.0491 -0.4757
13256TIP3   OH261258   3.739   0.717  11.834 -1.2267  0.1079  0.3263
13256TIP3    H161259   3.707   0.807  11.839 -1.3288  0.1704 -1.0937
13256TIP3    H261260   3.688   0.678  11.763  1.0598 -0.1250 -1.2392
13257TIP3   OH261261   2.776   2.809   1.302  0.3545 -0.6452  0.1957
13257TIP3    H161262   2.791   2.846   1.214  0.5306 -1.3922 -0.0889
13257TIP3    H261263   2.853   2.836   1.353  0.2298 -0.1703  0.1322
13258TIP3   OH261264   4.283   4.868  13.636 -0.4744  0.2940 -0.3486
13258TIP3    H161265   4.285   4.948  13.689 -1.1615  0.5544 -0.7059
13258TIP3    H261266   4.205   4.877  13.581  1.1711  0.8558 -2.6914
13259TIP3   OH261267   1.367   1.942  14.805  0.0090  0.2728  0.8655
13259TIP3    H161268   1.372   1.854  14.768 -1.5204 -0.0282  1.3258
13259TIP3    H261269   1.439   1.946  14.868 -0.2754 -0.8494  1.2678
13260TIP3   OH261270   5.365   4.200  13.959  0.3848  0.2221 -0.0422
13260TIP3    H161271   5.377   4.105  13.963 -0.9540  0.0260 -0.2318
13260TIP3    H261272   5.273   4.213  13.984  0.3295  1.3976 -0.8230
13261TIP3   OH261273   5.086   6.547   5.293 -0.0251 -0.1700 -0.3113
13261TIP3    H161274   5.060   6.568   5.204  0.9244 -0.0174 -0.5572
13261TIP3    H261275   5.073   6.628   5.342 -1.2025 -0.4410 -0.1484
13262TIP3   OH261276   0.886   0.422  12.354  0.0225  0.0399 -0.5367
13262TIP3    H161277   0.967   0.404  12.306 -0.8628  0.1293 -2.0877
13262TIP3    H261278   0.867   0.341  12.401 -0.4620 -0.9009 -2.3457
13263TIP3   OH261279   6.776   6.652  13.027  0.5476  0.3748 -0.6167
13263TIP3    H161280   6.715   6.579  13.031  0.3272  0.6030  0.2081
13263TIP3    H261281   6.730   6.720  12.976 -0.7267  1.3355  1.7502
13264TIP3   OH261282   5.337   2.278   0.370 -0.0445  0.9272 -0.0693
13264TIP3    H161283   5.389   2.246   0.296  2.6208 -0.0705  2.1462
13264TIP3    H261284   5.248   2.245   0.353  0.4409  1.0434 -2.9787
13265TIP3   OH261285   6.771   5.097  14.317 -0.2110 -0.0010 -0.3959
13265TIP3    H161286   6.717   5.064  14.245 -0.5301 -0.4388  0.0412
13265TIP3    H261287   6.820   5.169  14.278  0.3460 -0.8539 -1.3183
13266TIP3   OH261288   5.598   1.952   3.399 -0.4625  0.7626  0.1418
13266TIP3    H161289   5.604   1.859   3.421  0.0988  0.8110  0.1757
13266TIP3    H261290   5.593   1.996   3.484  0.0308  0.8241  0.1352
13267TIP3   OH261291   3.179   2.625  13.246  0.7206  0.1578 -0.0218
13267TIP3    H161292   3.247   2.666  13.192 -0.6672  0.0739 -1.8537
13267TIP3    H261293   3.105   2.685  13.242 -0.8553 -1.8240 -1.6333
13268TIP3   OH261294   5.128   5.981   5.336  0.0447 -0.3112 -0.1221
13268TIP3    H161295   5.188   6.048   5.370  0.0741  0.1175 -1.0034
13268TIP3    H261296   5.101   6.014   5.250 -2.4109  0.0881  0.7650
13269TIP3   OH261297   1.075   6.534   6.424  0.3986  0.6591 -0.0501
13269TIP3    H161298   1.001   6.483   6.457  1.6296 -0.3201  1.2148
13269TIP3    H261299   1.057   6.624   6.452 -0.2931  0.4205  0.2814
13270TIP3   OH261300   5.289   5.245  15.168 -0.6133 -0.2627  0.6114
13270TIP3    H161301   5.200   5.247  15.206 -0.3047  2.3175  1.2945
13270TIP3    H261302   5.275   5.222  15.076 -1.8378 -1.4255  1.0576
13271TIP3   OH261303   0.047   3.631  14.390  0.3490 -0.0647 -0.1131
13271TIP3    H161304   0.068   3.543  14.419 -0.1569  0.5785  2.3328
13271TIP3    H261305  -0.048   3.636  14.395  0.4835  1.2368  1.7637
13272TIP3   OH261306   4.575   3.186   4.459  0.2153 -0.0447 -0.5433
13272TIP3    H161307   4.565   3.280   4.445  0.2970  0.0270 -0.1085
13272TIP3    H261308   4.571   3.175   4.554  1.8927 -0.2663 -0.4779
13273TIP3   OH261309   4.844   0.423   2.193  0.6052 -0.0511 -0.1372
13273TIP3    H161310   4.928   0.425   2.238  0.2625  2.3541  0.4495
13273TIP3    H261311   4.852   0.488   2.123 -0.7072  0.0874 -0.1711
13274TIP3   OH261312   1.853   6.590   2.351 -0.0148  0.4638  0.6183
13274TIP3    H161313   1.938   6.578   2.394 -0.4618 -0.3867  1.2678
13274TIP3    H261314   1.808   6.654   2.405 -0.5331 -0.5210  1.3469
13275TIP3   OH261315   1.143   2.935  12.437  0.1898 -0.3204 -0.1994
13275TIP3    H161316   1.054   2.921  12.405  1.0158 -1.9865 -1.8405
13275TIP3    H261317   1.195   2.867  12.395  1.8413 -0.7912  2.4926
13276TIP3   OH261318   3.680   1.490   2.760 -0.9269 -0.1621  0.0357
13276TIP3    H161319   3.646   1.408   2.796  2.2829 -1.6786 -0.2183
13276TIP3    H261320   3.682   1.550   2.835  1.4956 -1.9134  1.4387
13277TIP3   OH261321   2.240   4.941  15.397 -0.0517 -0.5251 -0.0427
13277TIP3    H161322   2.204   5.026  15.421  2.8042  0.5329  0.6974
13277TIP3    H261323   2.310   4.960  15.335 -0.6210 -2.4977 -1.3523
13278TIP3   OH261324   1.995   5.793   3.487  0.3504 -0.2239 -0.3358
13278TIP3    H161325   1.928   5.748   3.538 -0.0760  0.2438 -0.4746
13278TIP3    H261326   1.981   5.886   3.505  0.9130 -0.1178 -0.4280
13279TIP3   OH261327   6.770   3.408   3.147 -0.8367 -1.1469  1.1623
13279TIP3    H161328   6.777   3.500   3.122  1.6886 -1.1190  1.8498
13279TIP3    H261329   6.677   3.395   3.165 -1.3697  1.0072  0.1030
13280TIP3   OH261330   0.032   1.189   1.649  0.3652 -0.8937  0.1284
13280TIP3    H161331   0.007   1.184   1.742  1.0308  1.9664  0.5368
13280TIP3    H261332   0.128   1.190   1.650  0.4028 -2.7464 -0.7458
13281TIP3   OH261333   4.413   6.741  11.551  0.1198 -0.1812 -0.2717
13281TIP3    H161334   4.448   6.652  11.548  1.0580  0.2006 -0.5904
13281TIP3    H261335   4.483   6.794  11.589 -0.5430  0.3779  0.1988
13282TIP3   OH261336   5.258   4.020   2.530  0.2799 -0.0686  0.2247
13282TIP3    H161337   5.216   4.067   2.602  2.2389 -1.1233  2.1232
13282TIP3    H261338   5.240   3.928   2.548  0.9146 -0.3437 -0.5452
13283TIP3   OH261339   6.043   3.982  14.976 -0.2250 -1.0200  0.1600
13283TIP3    H161340   6.135   3.993  14.999 -0.4438  0.7930  0.2321
13283TIP3    H261341   6.008   3.926  15.045  0.2268  0.4543  1.6185
13284TIP3   OH261342   3.627   4.361   1.292 -0.0032  0.1561  0.5449
13284TIP3    H161343   3.702   4.303   1.288 -0.2591 -0.0756 -0.8894
13284TIP3    H261344   3.660   4.446   1.261  0.2177  0.6489  2.0574
13285TIP3   OH261345   1.375   4.613  16.186  0.5688  0.0695 -0.2931
13285TIP3    H161346   1.436   4.539  16.181  1.1042  0.6060 -2.4831
13285TIP3    H261347   1.302   4.587  16.131 -1.2865 -0.6059  2.4016
13286TIP3   OH261348   2.717   0.496   6.362 -0.1181  0.3229  0.1630
13286TIP3    H161349   2.741   0.516   6.453  0.5689  0.2937 -0.0078
13286TIP3    H261350   2.643   0.436   6.369  0.3455 -0.1927  0.7096
13287TIP3   OH261351   0.636   4.183  16.662  0.0572 -0.1899 -0.7479
13287TIP3    H161352   0.594   4.126  16.598  0.6885  0.7125 -1.9849
13287TIP3    H261353   0.608   4.271  16.638 -2.9344 -0.0816  2.6329
13288TIP3   OH261354   2.931   0.869  12.392 -0.4772 -0.1063  0.1792
13288TIP3    H161355   2.843   0.876  12.427 -0.5475 -0.7655  0.1292
13288TIP3    H261356   2.932   0.786  12.344  0.0370  0.1059 -0.1852
13289TIP3   OH261357   0.819   0.226  16.036  0.6608  0.7783 -0.4662
13289TIP3    H161358   0.790   0.236  15.945 -1.2703  1.4178  0.1812
13289TIP3    H261359   0.811   0.133  16.054  0.7333  0.6961 -0.8593
13290TIP3   OH261360   1.216   3.009  13.271  0.3643  0.0403  0.0323
13290TIP3    H161361   1.232   3.039  13.181 -1.3492  0.0293 -0.3092
13290TIP3    H261362   1.228   2.915  13.268 -0.2862 -0.0335 -0.3347
13291TIP3   OH261363   0.754   3.945  13.888 -0.4137 -0.1748 -0.5856
13291TIP3    H161364   0.690   4.014  13.869  2.8808  2.9386 -0.8877
13291TIP3    H261365   0.799   3.932  13.804  0.4128 -1.1652  0.0165
13292TIP3   OH261366   5.504   4.499  12.279 -0.1913 -0.5606  0.7737
13292TIP3    H161367   5.586   4.549  12.282 -1.7323  2.1561 -0.4018
13292TIP3    H261368   5.468   4.506  12.367 -0.5185  0.6604  0.5532
13293TIP3   OH261369   1.514   6.536   6.302 -0.1279  0.1620  0.0562
13293TIP3    H161370   1.482   6.613   6.255 -1.4872  0.2250  1.0799
13293TIP3    H261371   1.520   6.468   6.235 -2.5765  0.1015 -0.1319
13294TIP3   OH261372   4.752   5.085  14.178 -0.4557  0.5214 -0.0374
13294TIP3    H161373   4.833   5.057  14.134  0.3540  2.3586  0.2722
13294TIP3    H261374   4.734   5.015  14.241  1.0238  0.2165  0.0639
13295TIP3   OH261375   3.108   0.817   5.878 -0.0764  0.0212 -0.4428
13295TIP3    H161376   3.176   0.884   5.874 -0.0744  0.2604  2.2973
13295TIP3    H261377   3.029   0.861   5.849  0.5024  0.3839 -1.4679
13296TIP3   OH261378   6.082   3.631  16.164  0.2726 -0.0905 -0.7898
13296TIP3    H161379   6.104   3.564  16.229 -0.8010  0.1387 -0.1790
13296TIP3    H261380   6.089   3.586  16.080 -0.2510 -0.9140 -0.3950
13297TIP3   OH261381   1.970   1.044   0.754  0.6146  0.1846  0.4352
13297TIP3    H161382   2.008   0.971   0.706  0.4114  0.7081 -0.5232
13297TIP3    H261383   2.017   1.045   0.837  1.7585 -0.0048 -0.2056
13298TIP3   OH261384   2.683   3.439   6.245  0.1879 -0.4025  0.0048
13298TIP3    H161385   2.735   3.519   6.234  0.2722 -0.5197 -0.4461
13298TIP3    H261386   2.733   3.388   6.309  1.1940 -0.9820 -1.2113
13299TIP3   OH261387   3.948   6.574  14.825  0.4123 -0.5123 -0.5901
13299TIP3    H161388   3.957   6.545  14.735  1.0901  1.5669 -1.2187
13299TIP3    H261389   4.038   6.584  14.856  0.2065  0.8041 -0.3783
13300TIP3   OH261390   2.586   6.618   4.092  0.7540  0.0230  0.1212
13300TIP3    H161391   2.509   6.594   4.143  0.4714 -3.9805 -1.9968
13300TIP3    H261392   2.659   6.613   4.154 -0.3726  1.5235  1.5858
13301TIP3   OH261393   3.996   6.767  11.151 -0.8365  0.2630 -0.5665
13301TIP3    H161394   4.071   6.826  11.149 -0.6694  0.0394 -0.9930
13301TIP3    H261395   3.935   6.803  11.087 -0.4943 -0.3435 -1.2314
13302TIP3   OH261396   1.794   3.456   0.398  0.1430 -0.2466  0.1696
13302TIP3    H161397   1.756   3.409   0.324  0.7013 -0.4897  0.0394
13302TIP3    H261398   1.743   3.537   0.403 -2.4360 -1.8719  1.8718
13303TIP3   OH261399   2.640   3.261  11.279 -0.5413  0.6383  0.1703
13303TIP3    H161400   2.551   3.262  11.245 -0.5669  1.0769  0.2421
13303TIP3    H261401   2.659   3.353  11.299 -0.1853  0.5068  0.4456
13304TIP3   OH261402   2.448   1.890   2.197 -0.0206 -0.0945  0.2453
13304TIP3    H161403   2.531   1.937   2.204 -1.3014  2.2730  0.1347
13304TIP3    H261404   2.465   1.805   2.238  2.1132  0.8067  1.3217
13305TIP3   OH261405   3.764   3.088   2.092 -0.3451  0.0635 -0.3270
13305TIP3    H161406   3.773   3.138   2.173 -0.7590  0.2874 -0.4222
13305TIP3    H261407   3.672   3.096   2.068 -0.7003 -1.8186  0.3440
13306TIP3   OH261408   4.645   4.818   3.139 -0.4316 -0.1930 -0.5080
13306TIP3    H161409   4.719   4.849   3.086 -0.7803 -0.9106 -1.4320
13306TIP3    H261410   4.570   4.867   3.106 -0.3169  0.8044  0.6820
13307TIP3   OH261411   6.504   6.323  13.265  0.3063 -0.2174 -0.8276
13307TIP3    H161412   6.432   6.383  13.243 -0.1354 -0.4994 -0.1857
13307TIP3    H261413   6.545   6.363  13.342  1.4193  0.4200 -1.7435
13308TIP3   OH261414   5.718   3.165   5.173 -0.0717 -0.5225  0.0535
13308TIP3    H161415   5.722   3.188   5.266 -1.3304  0.7619 -0.2071
13308TIP3    H261416   5.677   3.078   5.171 -0.3733 -0.3925  0.6673
13309TIP3   OH261417   0.124   3.742  14.856 -0.0014  0.4489 -0.3072
13309TIP3    H161418   0.187   3.781  14.795 -0.0307 -0.1555 -0.7276
13309TIP3    H261419   0.046   3.797  14.848  0.8115  1.8269  0.9814
13310TIP3   OH261420   6.692   5.848   3.707  0.0890 -0.5174  0.2968
13310TIP3    H161421   6.750   5.809   3.642  1.8906  2.0343  0.3291
13310TIP3    H261422   6.687   5.783   3.777  3.6432 -0.4495  0.6962
13311TIP3   OH261423   0.830   3.215  15.483  0.0291 -0.2294  0.0681
13311TIP3    H161424   0.808   3.199  15.391  1.0526  0.9457 -0.4005
13311TIP3    H261425   0.895   3.147  15.503  0.7591  0.2982 -0.4691
13312TIP3   OH261426   0.751   6.591   2.544  0.1098 -0.2947  0.1955
13312TIP3    H161427   0.690   6.579   2.617  0.9215 -0.6572  0.8286
13312TIP3    H261428   0.834   6.556   2.577  0.5611 -0.1631 -0.7927
13313TIP3   OH261429   4.039   0.334   1.432 -0.1098  0.0140 -0.3819
13313TIP3    H161430   3.955   0.377   1.415 -0.1438  0.1716  0.1686
13313TIP3    H261431   4.090   0.350   1.353 -0.6652 -0.2438 -0.7941
13314TIP3   OH261432   4.385   3.296   4.026 -1.0630  0.3199  0.1213
13314TIP3    H161433   4.381   3.209   3.987  0.8915  0.9002 -1.4711
13314TIP3    H261434   4.473   3.302   4.063 -1.1089  1.6629  0.0521
13315TIP3   OH261435   6.201   1.752   2.065 -0.1172  0.5610 -0.0260
13315TIP3    H161436   6.138   1.682   2.080  0.4973 -0.3220 -1.4807
13315TIP3    H261437   6.147   1.826   2.035 -0.8911  1.1115  2.5753
13316TIP3   OH261438   1.679   2.797   4.793 -0.1191 -0.1855  0.4275
13316TIP3    H161439   1.688   2.809   4.698  1.7991 -1.4681  0.4197
13316TIP3    H261440   1.633   2.714   4.802  0.7591 -0.6521  0.6261
13317TIP3   OH261441   5.435   6.128   5.794  0.3917 -0.2514  0.0248
13317TIP3    H161442   5.502   6.194   5.774 -1.3169  1.8711  1.0777
13317TIP3    H261443   5.396   6.158   5.876  0.0017 -2.9530  0.8800
13318TIP3   OH261444   3.020   2.521  11.234  0.4216 -0.1690  0.8516
13318TIP3    H161445   3.057   2.443  11.192 -0.3034  0.2234 -0.5351
13318TIP3    H261446   3.094   2.560  11.281  1.5746  0.1201 -1.1459
13319TIP3   OH261447   6.433   1.815  12.460 -0.6677 -0.3046 -0.6704
13319TIP3    H161448   6.526   1.790  12.457 -0.0732  1.8502 -0.4789
13319TIP3    H261449   6.387   1.733  12.443  1.1914 -2.0021  1.9750
13320TIP3   OH261450   4.139   5.798   4.511 -0.8221  0.0502  0.1540
13320TIP3    H161451   4.114   5.736   4.579 -0.3091  1.1896  1.4004
13320TIP3    H261452   4.089   5.877   4.530 -2.1263 -0.2465 -1.9381
13321TIP3   OH261453   5.727   3.590   0.982 -0.3304  0.1016  0.5131
13321TIP3    H161454   5.811   3.565   1.020  0.0732 -2.3126 -1.7934
13321TIP3    H261455   5.663   3.536   1.030 -0.4030  0.8462  1.2577
13322TIP3   OH261456   5.586   4.630  16.551  0.3325  0.0602  0.0351
13322TIP3    H161457   5.664   4.576  16.567 -0.0302  0.0682  1.8989
13322TIP3    H261458   5.611   4.718  16.577 -1.0032 -0.3552  2.8664
13323TIP3   OH261459   5.569   0.815  13.652 -0.2761 -0.0130 -0.1832
13323TIP3    H161460   5.547   0.792  13.742  0.5647  0.9028  0.2658
13323TIP3    H261461   5.662   0.794  13.644  0.1238  1.6733 -0.2474
13324TIP3   OH261462   5.313   5.244  14.878  0.7280  0.5042 -0.3258
13324TIP3    H161463   5.292   5.283  14.793  0.2457 -0.8174 -0.8288
13324TIP3    H261464   5.377   5.304  14.917  1.5665  0.7038 -1.9814
13325TIP3   OH261465   2.804   2.679  11.409 -0.1256  0.2346 -0.3726
13325TIP3    H161466   2.732   2.741  11.402  1.1621  1.5475 -2.3167
13325TIP3    H261467   2.824   2.676  11.503 -2.0397  0.5948  0.0589
13326TIP3   OH261468   6.568   0.761  12.184 -0.2522  0.8725  0.5777
13326TIP3    H161469   6.619   0.818  12.126  0.8881  1.1835  1.8543
13326TIP3    H261470   6.525   0.822  12.245 -2.2577  0.6196 -0.5546
13327TIP3   OH261471   1.963   3.038  12.244  0.1123 -0.1474  0.3372
13327TIP3    H161472   2.012   3.106  12.198  0.8539 -1.1858 -0.4366
13327TIP3    H261473   1.879   3.033  12.198  0.4691 -0.4902 -0.2795
13328TIP3   OH261474   0.250   3.731   3.023  0.0916 -0.4198  0.4542
13328TIP3    H161475   0.250   3.706   3.116 -0.9108  0.5154  0.7118
13328TIP3    H261476   0.315   3.801   3.017  0.0035 -0.3349  0.4904
13329TIP3   OH261477   5.030   4.915   3.551  0.0772 -0.4303  0.6747
13329TIP3    H161478   5.002   4.874   3.632  0.9808 -3.2514 -0.3802
13329TIP3    H261479   5.094   4.854   3.513  1.0219  1.6692 -1.2706
13330TIP3   OH261480   4.030   3.895  11.100  0.1423  0.8283 -0.6376
13330TIP3    H161481   4.114   3.885  11.056 -0.1208  1.0712 -1.2087
13330TIP3    H261482   4.018   3.990  11.106 -0.1356  0.7939 -0.6439
13331TIP3   OH261483   0.696   6.124   0.201 -0.3957 -0.3326  0.0031
13331TIP3    H161484   0.616   6.076   0.180 -0.9267  0.0893  1.0452
13331TIP3    H261485   0.757   6.101   0.130 -2.3781  1.6852 -2.4783
13332TIP3   OH261486   2.569   1.256   3.338 -0.5202  0.2601  0.4953
13332TIP3    H161487   2.572   1.344   3.375 -0.3316  0.3617  0.2391
13332TIP3    H261488   2.579   1.269   3.244  2.5790 -0.2377  0.7025
13333TIP3   OH261489   0.965   6.421   2.077 -0.0051 -0.0816  0.5710
13333TIP3    H161490   1.026   6.487   2.045 -0.5634  0.7609  1.2129
13333TIP3    H261491   1.021   6.356   2.119  0.8003 -1.5855 -2.6721
13334TIP3   OH261492   3.224   5.797   1.674  0.6046  0.0927  0.8387
13334TIP3    H161493   3.283   5.872   1.685  2.6806 -1.4222  0.3356
13334TIP3    H261494   3.278   5.721   1.695 -1.6190 -1.2462  1.8188
13335TIP3   OH261495   0.222   6.108  16.663  0.7212 -0.1398 -0.0705
13335TIP3    H161496   0.202   6.015  16.673 -0.2650 -0.0028 -0.7162
13335TIP3    H261497   0.293   6.111  16.600  2.7263 -0.6279  2.1110
13336TIP3   OH261498   0.237   3.863   0.165 -0.1397  0.4513  0.3010
13336TIP3    H161499   0.316   3.908   0.193  1.1063 -0.7159 -1.2939
13336TIP3    H261500   0.266   3.777   0.134 -2.1095 -0.2940  0.4020
13337TIP3   OH261501   5.843   0.097  15.244 -0.0268 -0.0407  0.4309
13337TIP3    H161502   5.831   0.173  15.301 -0.2277 -0.1804  0.5733
13337TIP3    H261503   5.767   0.042  15.260  0.0298 -0.1893  0.1958
13338TIP3   OH261504   2.463   1.158  15.134  0.0560 -0.4547 -0.2334
13338TIP3    H161505   2.503   1.200  15.209  0.9081  0.1685 -1.0290
13338TIP3    H261506   2.412   1.228  15.092 -0.8589 -0.9330  0.0728
13339TIP3   OH261507   2.624   6.088   1.567  0.2020  0.2632  0.2720
13339TIP3    H161508   2.712   6.072   1.601  0.1011  0.4749  0.6356
13339TIP3    H261509   2.574   6.010   1.590 -0.4224  1.2813  2.4856
13340TIP3   OH261510   2.161   0.474  14.830 -0.2047 -0.2033 -0.1221
13340TIP3    H161511   2.097   0.403  14.835  0.0929 -0.7836 -3.5627
13340TIP3    H261512   2.122   0.538  14.771  2.2507 -0.4876 -2.1325
13341TIP3   OH261513   5.710   6.797   0.724 -0.1917 -0.2998 -0.2830
13341TIP3    H161514   5.710   6.727   0.789 -1.9873  0.3438  0.4515
13341TIP3    H261515   5.658   6.867   0.765  0.9231  1.1512 -1.3151
13342TIP3   OH261516   0.139   0.559  15.475 -0.5898 -0.3955  0.0973
13342TIP3    H161517   0.068   0.499  15.452 -1.1289  0.4311 -0.4115
13342TIP3    H261518   0.184   0.516  15.548 -0.6010 -1.7007 -0.6468
13343TIP3   OH261519   0.429   2.867   0.771  0.3244 -0.4280 -0.1597
13343TIP3    H161520   0.358   2.867   0.835  1.3755  0.1107  1.0406
13343TIP3    H261521   0.440   2.775   0.747 -0.6354 -0.5353 -0.1882
13344TIP3   OH261522   3.500   3.991  15.906  0.3864  0.1227  0.2285
13344TIP3    H161523   3.466   3.913  15.861 -0.6616  0.5136  0.3257
13344TIP3    H261524   3.465   4.064  15.856  1.0800  0.5393  0.3493
13345TIP3   OH261525   3.730   4.745   3.859 -0.4240 -0.1362 -0.1229
13345TIP3    H161526   3.795   4.717   3.794  0.3130 -0.5351  0.7741
13345TIP3    H261527   3.695   4.663   3.894 -0.1496  0.0648  0.6368
13346TIP3   OH261528   0.824   1.480   5.446  0.4002 -0.1328  0.1054
13346TIP3    H161529   0.892   1.547   5.448  0.3615 -0.0432 -1.4742
13346TIP3    H261530   0.755   1.516   5.391 -1.4078  0.2003  2.5143
13347TIP3   OH261531   5.932   0.057   1.455 -0.0383 -0.0316 -0.2203
13347TIP3    H161532   6.001   0.017   1.508 -0.8666  0.2069  1.0791
13347TIP3    H261533   5.928   0.148   1.486 -0.1337  0.2767 -1.1164
13348TIP3   OH261534   5.737   0.970   2.431 -0.1260  0.2374  0.2005
13348TIP3    H161535   5.825   0.934   2.445  0.1319  0.6980 -0.2279
13348TIP3    H261536   5.753   1.060   2.403 -0.6527 -0.4617 -2.4435
13349TIP3   OH261537   2.300   0.359   0.678 -0.2640  1.1169 -0.1585
13349TIP3    H161538   2.274   0.282   0.728 -0.5410  1.4291  0.1789
13349TIP3    H261539   2.273   0.339   0.588  0.0454  0.6440 -0.1474
13350TIP3   OH261540   5.184   0.561  15.259 -0.5627  0.3119  0.0281
13350TIP3    H161541   5.203   0.620  15.186  0.6692 -0.1817 -0.0807
13350TIP3    H261542   5.098   0.525  15.239 -0.9018  1.3310 -0.3978
13351TIP3   OH261543   3.619   3.391   6.051 -0.2284  0.2694  0.0655
13351TIP3    H161544   3.711   3.373   6.071 -0.1534  0.5047 -0.0665
13351TIP3    H261545   3.607   3.483   6.073 -0.6883 -0.0113  1.0132
13352TIP3   OH261546   6.549   1.973   2.050 -0.2869 -0.4595 -0.5832
13352TIP3    H161547   6.505   1.922   1.981 -0.7493 -1.6550  0.5839
13352TIP3    H261548   6.629   1.924   2.068 -0.0661 -0.0338 -0.3974
13353TIP3   OH261549   5.371   2.739   1.200 -0.6255  0.0551 -0.2032
13353TIP3    H161550   5.449   2.795   1.195 -0.5584 -0.1837 -2.3356
13353TIP3    H261551   5.300   2.795   1.171 -0.9029 -0.3492 -0.2996
13354TIP3   OH261552   2.348   3.826  15.734  0.1594  0.5432  0.2356
13354TIP3    H161553   2.376   3.784  15.815 -0.5167  0.6104  0.5083
13354TIP3    H261554   2.280   3.769  15.699  1.2941 -0.1262 -0.9219
13355TIP3   OH261555   0.827   6.505  17.065  0.2882  0.0693  0.0167
13355TIP3    H161556   0.852   6.533  17.153 -0.0706  0.3402  0.0334
13355TIP3    H261557   0.831   6.410  17.068 -0.3069  0.0555  0.5030
13356TIP3   OH261558   0.230   5.886   4.002  0.3633  0.1786 -0.6041
13356TIP3    H161559   0.258   5.872   4.092  1.5853  0.1620 -0.9871
13356TIP3    H261560   0.187   5.804   3.977  1.7087 -0.5174 -0.6655
13357TIP3   OH261561   5.415   2.876   5.480 -0.6793 -0.3072  0.2004
13357TIP3    H161562   5.439   2.939   5.411 -0.0771  0.8820  1.4624
13357TIP3    H261563   5.427   2.925   5.562  1.2909 -2.5070  1.3047
13358TIP3   OH261564   4.842   1.253   6.226  0.2633 -0.5473 -0.1143
13358TIP3    H161565   4.839   1.347   6.208 -0.3639 -0.5996 -0.2887
13358TIP3    H261566   4.772   1.238   6.290 -1.1415 -1.2455 -1.7487
13359TIP3   OH261567   1.165   3.374   2.530  0.5603  0.2386 -0.4332
13359TIP3    H161568   1.192   3.454   2.575  1.7617  0.0029 -0.7109
13359TIP3    H261569   1.245   3.323   2.523 -0.1149 -0.7999 -0.6532
13360TIP3   OH261570   6.049   2.351   0.729  0.0642 -0.0314 -0.4968
13360TIP3    H161571   6.103   2.407   0.785 -0.2977 -1.6154  1.4831
13360TIP3    H261572   6.101   2.273   0.715  0.0051  0.2082 -2.1082
13361TIP3   OH261573   0.088   1.732   5.689 -0.3094  0.1753 -0.4255
13361TIP3    H161574   0.071   1.817   5.731 -0.7108 -0.4265  0.6495
13361TIP3    H261575   0.012   1.679   5.712 -0.4254 -0.2415 -1.7455
13362TIP3   OH261576   1.498   2.402  10.866 -0.3531  0.4203 -0.4362
13362TIP3    H161577   1.514   2.459  10.791 -0.4567  0.9059 -0.0896
13362TIP3    H261578   1.456   2.458  10.931  1.1032  0.3960  0.5730
13363TIP3   OH261579   1.748   2.694   3.702  0.5849  0.4321 -0.1129
13363TIP3    H161580   1.669   2.700   3.756  1.9604 -0.0843  2.0522
13363TIP3    H261581   1.739   2.765   3.639 -1.3271  0.7630  0.4879
13364TIP3   OH261582   6.055   4.248  11.881 -0.6245 -0.3607  0.5595
13364TIP3    H161583   6.075   4.308  11.952 -1.0039 -1.1550  1.3435
13364TIP3    H261584   5.967   4.215  11.901 -0.9151 -0.2794 -0.4961
13365TIP3   OH261585   1.762   3.058  14.424 -0.3637  0.4737  0.3145
13365TIP3    H161586   1.699   2.997  14.462 -0.6847  0.4781 -0.2014
13365TIP3    H261587   1.841   3.048  14.477  0.1266 -1.5559 -0.7529
13366TIP3   OH261588   4.108   3.302   4.344  0.6906 -0.1490  0.5927
13366TIP3    H161589   4.022   3.343   4.352  0.4675 -0.1718 -1.5805
13366TIP3    H261590   4.110   3.239   4.417 -0.8295  0.3659  1.1109
13367TIP3   OH261591   2.051   2.420   2.880 -0.4944  0.7104 -0.4622
13367TIP3    H161592   2.067   2.327   2.867 -3.2098  0.2501 -0.8399
13367TIP3    H261593   2.071   2.436   2.972 -1.3638 -0.5483 -0.0483
13368TIP3   OH261594   5.757   6.283   3.181 -0.2823 -0.1344  0.3431
13368TIP3    H161595   5.785   6.372   3.204  0.8608 -0.7814  1.5111
13368TIP3    H261596   5.757   6.236   3.265 -1.3793 -1.1059 -0.1910
13369TIP3   OH261597   0.744   4.782  14.632  0.4321 -0.0488  0.3239
13369TIP3    H161598   0.819   4.841  14.639 -1.4613  2.3305  0.8266
13369TIP3    H261599   0.706   4.781  14.720 -1.7711  0.9470 -0.6092
13370TIP3   OH261600   1.150   3.428   1.594 -0.1255  0.1512  0.1927
13370TIP3    H161601   1.074   3.403   1.542  0.8533 -0.1212 -1.1245
13370TIP3    H261602   1.146   3.370   1.671 -1.1032 -0.0279  0.0126
13371TIP3   OH261603   6.089   3.797   2.521  0.1333 -0.1503  0.0884
13371TIP3    H161604   6.012   3.835   2.562  0.0318 -0.6579  0.3693
13371TIP3    H261605   6.077   3.702   2.529 -0.4139 -0.3008 -2.0490
13372TIP3   OH261606   0.400   5.852  11.028 -0.3842 -0.4028  0.9528
13372TIP3    H161607   0.332   5.820  11.087  0.5631  0.2724  2.4245
13372TIP3    H261608   0.474   5.792  11.041  0.1135  0.2208  1.0694
13373TIP3   OH261609   6.095   2.600  15.047 -0.3464 -0.0538 -0.1526
13373TIP3    H161610   6.034   2.530  15.071  0.3782 -0.1829  1.3325
13373TIP3    H261611   6.164   2.556  14.998 -1.0194 -0.0308 -1.1385
13374TIP3   OH261612   5.037   4.452  13.951  0.4956  0.3239  0.6939
13374TIP3    H161613   5.067   4.375  13.903 -0.9806 -0.8538  1.5878
13374TIP3    H261614   4.969   4.491  13.896 -2.0817 -1.7350  2.2702
13375TIP3   OH261615   3.186   5.802   2.198  0.0088  0.2916  0.1376
13375TIP3    H161616   3.201   5.889   2.161  1.6955  0.2937  0.7787
13375TIP3    H261617   3.159   5.818   2.289  2.2973  0.1217  0.8822
13376TIP3   OH261618   2.472   1.683   2.403  0.4787 -0.4306 -0.1215
13376TIP3    H161619   2.438   1.594   2.390  1.1890 -0.7607  0.2640
13376TIP3    H261620   2.396   1.734   2.430  0.3435 -1.2277  1.0218
13377TIP3   OH261621   3.435   6.103   5.681  0.8461 -0.4198 -0.2545
13377TIP3    H161622   3.377   6.047   5.733  2.4062  0.2103  2.2577
13377TIP3    H261623   3.433   6.187   5.726  1.6172  0.3834 -1.6985
13378TIP3   OH261624   2.553   6.320   3.929 -0.3114 -0.0283  0.1076
13378TIP3    H161625   2.459   6.336   3.923 -0.4191 -1.0344 -0.9195
13378TIP3    H261626   2.579   6.360   4.012 -1.6965 -0.0333  0.5423
13379TIP3   OH261627   1.318   1.137   4.764  0.3193 -0.1672 -0.3146
13379TIP3    H161628   1.233   1.159   4.726 -0.4160 -2.2001  0.1113
13379TIP3    H261629   1.326   1.196   4.840 -0.5309  0.2997 -0.5836
13380TIP3   OH261630   1.859   1.173  13.172  0.3159 -0.7241  0.2028
13380TIP3    H161631   1.944   1.171  13.128 -0.5772  0.2350 -1.6268
13380TIP3    H261632   1.807   1.108  13.126 -0.7884  0.6509 -0.5371
13381TIP3   OH261633   5.042   3.256   2.131  0.1903  0.0421 -0.7012
13381TIP3    H161634   5.064   3.349   2.124 -0.8329  0.2573 -1.1069
13381TIP3    H261635   4.946   3.254   2.131  0.2061 -0.9968 -0.4730
13382TIP3   OH261636   0.797   6.625  14.733 -0.2999 -0.0019 -0.0490
13382TIP3    H161637   0.857   6.600  14.662 -0.5148  0.4962 -0.4127
13382TIP3    H261638   0.740   6.691  14.693 -0.9157 -0.2770  0.3744
13383TIP3   OH261639   4.765   5.591  14.300  0.1900  0.2326  0.5979
13383TIP3    H161640   4.689   5.642  14.324 -0.0985 -0.2141  0.6486
13383TIP3    H261641   4.739   5.500  14.316  0.3398 -0.0045 -0.4305
13384TIP3   OH261642   3.403   3.061   0.357 -0.2978 -0.1886 -0.1182
13384TIP3    H161643   3.488   3.091   0.327 -0.2813  0.3729  0.4794
13384TIP3    H261644   3.364   3.137   0.400  0.1393 -1.2496  2.2673
13385TIP3   OH261645   1.878   4.511  11.679 -0.0717  0.2745  0.4907
13385TIP3    H161646   1.889   4.588  11.623  0.8556 -0.0864  0.1598
13385TIP3    H261647   1.958   4.460  11.666 -1.1945 -1.3623 -0.2407
13386TIP3   OH261648   6.099   6.049  12.811  0.2336 -0.1400  0.3652
13386TIP3    H161649   6.021   6.096  12.782 -0.9434 -0.4144  2.9423
13386TIP3    H261650   6.171   6.092  12.765 -1.2647  1.1588 -0.8344
13387TIP3   OH261651   5.779   2.150   5.759 -0.7969 -0.8645  0.7534
13387TIP3    H161652   5.685   2.131   5.751 -0.6599 -1.4773  0.5093
13387TIP3    H261653   5.822   2.070   5.726 -0.1889 -1.1439  2.1908
13388TIP3   OH261654   3.826   0.724  15.092  0.4899 -0.5939  0.1342
13388TIP3    H161655   3.864   0.797  15.044  2.7609 -0.9283  1.3738
13388TIP3    H261656   3.849   0.647  15.040  2.0191 -0.8487  1.1572
13389TIP3   OH261657   5.546   3.342  13.642  0.0449  0.4976 -0.3599
13389TIP3    H161658   5.625   3.342  13.588  0.2176 -2.5881 -0.1495
13389TIP3    H261659   5.474   3.326  13.581 -0.0506 -0.1661 -0.0763
13390TIP3   OH261660   3.267   3.352  10.631  0.4964  0.4803  0.3269
13390TIP3    H161661   3.354   3.321  10.607  0.8520 -0.3972  2.5739
13390TIP3    H261662   3.224   3.274  10.668 -1.5512  0.6838 -1.5465
13391TIP3   OH261663   3.719   4.231   0.559  0.8248  0.4472  0.3828
13391TIP3    H161664   3.812   4.243   0.580  0.4319  2.2500  1.2004
13391TIP3    H261665   3.675   4.305   0.601 -0.7341  0.8241 -1.8227
13392TIP3   OH261666   0.377   4.884  12.316 -0.0994  0.3172  0.0560
13392TIP3    H161667   0.412   4.834  12.242 -2.5559 -3.9739  1.5754
13392TIP3    H261668   0.301   4.931  12.280  0.3150  0.3901 -0.7221
13393TIP3   OH261669   6.594   3.299  11.671 -0.0631  0.2203 -0.2097
13393TIP3    H161670   6.634   3.233  11.728 -1.4055 -0.0689  0.4009
13393TIP3    H261671   6.622   3.383  11.709  0.5245  0.0242 -0.1955
13394TIP3   OH261672   5.984   4.680   5.630 -0.0203  0.3036 -0.2510
13394TIP3    H161673   5.945   4.762   5.660 -0.3672  0.4221 -0.9980
13394TIP3    H261674   5.912   4.617   5.633 -0.2679  0.5081 -1.5829
13395TIP3   OH261675   5.305   5.959   2.800 -0.0464 -0.2915  0.5873
13395TIP3    H161676   5.303   6.049   2.768  0.9414 -0.4682  0.0073
13395TIP3    H261677   5.320   5.966   2.894  1.8828  0.0959  0.2576
13396TIP3   OH261678   5.522   3.297   4.341 -0.6083 -0.5564 -0.1084
13396TIP3    H161679   5.535   3.336   4.427  1.0186 -0.9555 -0.1625
13396TIP3    H261680   5.610   3.274   4.311 -1.2042 -0.9020 -1.6514
13397TIP3   OH261681   5.437   6.409  15.646  0.5655  0.4911 -0.1062
13397TIP3    H161682   5.469   6.482  15.700  1.1210 -0.3449  0.6921
13397TIP3    H261683   5.343   6.428  15.635  0.0700 -0.1905  2.5498
13398TIP3   OH261684   2.643   5.260   4.663 -0.0570 -0.0878 -0.2913
13398TIP3    H161685   2.668   5.332   4.722 -0.4548 -1.2995  1.3992
13398TIP3    H261686   2.726   5.223   4.633  0.1588 -0.2039  0.4440
13399TIP3   OH261687   0.270   4.975   0.349  0.6975 -0.4199  0.2659
13399TIP3    H161688   0.347   4.926   0.320  0.2150 -1.0795  0.0864
13399TIP3    H261689   0.201   4.909   0.355 -0.1250  0.3543 -0.6144
13400TIP3   OH261690   2.438   1.602  15.874  0.0621 -0.1632  0.0395
13400TIP3    H161691   2.355   1.563  15.902 -1.0387  1.3176 -1.0789
13400TIP3    H261692   2.474   1.540  15.811 -0.6027 -0.4076 -0.0985
13401TIP3   OH261693   1.437   2.008  16.721  0.2523  0.0319  0.2802
13401TIP3    H161694   1.474   1.941  16.778 -0.3298  0.9488  1.7922
13401TIP3    H261695   1.355   1.969  16.689  0.5250 -0.4518  0.1735
13402TIP3   OH261696   5.318   0.514   0.538 -0.6026  0.6187  0.2067
13402TIP3    H161697   5.232   0.478   0.561 -0.5236  0.0112 -0.4505
13402TIP3    H261698   5.302   0.563   0.458 -0.2274  0.0717 -0.1996
13403TIP3   OH261699   4.127   1.610  14.107  0.1855  0.3543 -0.0720
13403TIP3    H161700   4.073   1.687  14.089  1.0374  1.2812  1.2073
13403TIP3    H261701   4.066   1.545  14.141 -0.3682  0.8374 -0.1331
13404TIP3   OH261702   4.774   2.369  12.294  0.3086 -0.3785  0.1329
13404TIP3    H161703   4.850   2.416  12.328  0.3229 -0.0307 -0.3762
13404TIP3    H261704   4.808   2.283  12.271  0.8926  0.2883 -1.5593
13405TIP3   OH261705   0.049   2.401   5.842 -0.2403  0.2157 -0.7243
13405TIP3    H161706   0.117   2.372   5.903 -0.1697  0.5092 -0.6619
13405TIP3    H261707   0.016   2.482   5.880 -1.6843 -0.7052  0.0393
13406TIP3   OH261708   3.635   2.450  13.026 -0.2677 -0.1802  0.0005
13406TIP3    H161709   3.658   2.406  13.108  0.1035 -1.6289 -0.8650
13406TIP3    H261710   3.611   2.379  12.966  0.1075  0.8099 -1.3513
13407TIP3   OH261711   2.080   5.748   1.077 -0.3230 -0.1886 -0.0845
13407TIP3    H161712   2.096   5.834   1.118 -0.6226  0.3144 -1.0229
13407TIP3    H261713   2.005   5.713   1.125 -0.3009  0.1447  0.1973
13408TIP3   OH261714   6.398   5.321  13.814  0.6474 -0.1066 -0.4773
13408TIP3    H161715   6.370   5.229  13.814 -1.2940  0.3784  3.0126
13408TIP3    H261716   6.481   5.321  13.862  0.8385 -0.1009 -0.8099
13409TIP3   OH261717   1.066   1.837  15.898 -0.2670 -0.9119 -0.4355
13409TIP3    H161718   1.021   1.875  15.974  3.4532  2.1921  0.4254
13409TIP3    H261719   1.095   1.751  15.928 -1.6254 -1.0524  0.5200
13410TIP3   OH261720   3.237   0.870   3.284  0.1338  0.0461  0.3465
13410TIP3    H161721   3.188   0.946   3.314 -1.0161 -0.2960 -0.5912
13410TIP3    H261722   3.196   0.796   3.328 -0.1278 -0.2329 -0.3580
13411TIP3   OH261723   2.026   5.787  14.312  0.4855 -0.4108 -0.6650
13411TIP3    H161724   1.944   5.764  14.355  1.2622 -0.6479  0.7042
13411TIP3    H261725   2.041   5.717  14.249  0.7022 -1.4715  0.5578
13412TIP3   OH261726   2.636   3.307  13.961  0.3065 -0.4953  0.0298
13412TIP3    H161727   2.610   3.367  14.032 -0.2929  0.7102 -1.1928
13412TIP3    H261728   2.569   3.319  13.894  0.8101 -1.7213 -0.6994
13413TIP3   OH261729   3.122   4.304  14.321 -0.3269  0.3543  0.4918
13413TIP3    H161730   3.137   4.389  14.278  0.7363  0.5788  1.2680
13413TIP3    H261731   3.193   4.298  14.386 -1.3390 -0.4121  1.5363
13414TIP3   OH261732   1.210   3.333  16.978 -0.3790 -0.0845 -0.4980
13414TIP3    H161733   1.114   3.330  16.986 -0.2559 -0.6684  0.7828
13414TIP3    H261734   1.225   3.346  16.884 -1.7528  1.9348 -0.4849
13415TIP3   OH261735   4.255   2.737   5.924 -0.3230  0.2193  0.8431
13415TIP3    H161736   4.200   2.788   5.983 -0.1677  0.9731  0.3455
13415TIP3    H261737   4.193   2.688   5.870 -0.6171  2.4326 -0.9497
13416TIP3   OH261738   2.268   3.524  11.326  0.9340  0.3502  0.2411
13416TIP3    H161739   2.308   3.569  11.400  0.2746 -0.4675  1.0892
13416TIP3    H261740   2.335   3.528  11.257  1.1311  2.0896  0.4909
13417TIP3   OH261741   5.165   2.612  14.313 -0.5536  0.6995  0.3553
13417TIP3    H161742   5.243   2.620  14.368  0.0759  0.8789 -0.5598
13417TIP3    H261743   5.112   2.546  14.357 -0.2617  1.1732  1.4288
13418TIP3   OH261744   5.629   6.521  15.489 -0.7059 -0.3690 -0.6079
13418TIP3    H161745   5.544   6.565  15.496 -0.0144  0.8225  0.5607
13418TIP3    H261746   5.666   6.526  15.577  0.8936 -0.2040 -1.2750
13419TIP3   OH261747   6.416   6.409   4.584 -0.6415  0.0424 -0.4070
13419TIP3    H161748   6.335   6.422   4.633  0.9600  0.2404  2.2627
13419TIP3    H261749   6.486   6.421   4.648  1.4794 -1.6415 -2.3076
13420TIP3   OH261750   1.155   6.701  16.829 -0.2104 -0.3590  0.0494
13420TIP3    H161751   1.084   6.640  16.851  0.3664 -0.6977  0.9777
13420TIP3    H261752   1.136   6.727  16.739 -1.7448 -0.1210  0.4261
13421TIP3   OH261753   1.963   0.084   2.207 -0.0356 -0.5174 -0.1718
13421TIP3    H161754   1.996  -0.006   2.200 -1.1885 -0.8720 -1.1340
13421TIP3    H261755   1.938   0.093   2.299  1.4580 -0.6904  0.2652
13422TIP3   OH261756   3.731   3.945   2.102  0.2081  0.8118  0.2140
13422TIP3    H161757   3.687   4.016   2.150 -1.2525  0.7213 -0.9578
13422TIP3    H261758   3.794   3.990   2.046 -0.9034  1.2448 -0.7256
13423TIP3   OH261759   2.217   0.394  11.977 -0.1261  0.5794 -0.0711
13423TIP3    H161760   2.286   0.365  11.917 -0.7559  0.0940 -0.5736
13423TIP3    H261761   2.175   0.314  12.006  0.9867  0.7326  2.0429
13424TIP3   OH261762   3.070   5.619  11.857  0.5004 -0.0670 -0.4674
13424TIP3    H161763   3.020   5.600  11.937  1.5923  0.0002  0.2361
13424TIP3    H261764   3.149   5.566  11.865  0.1740 -0.7892 -1.9664
13425TIP3   OH261765   0.146   3.617  13.148 -0.2923 -0.1169  0.4686
13425TIP3    H161766   0.069   3.650  13.194 -1.1437 -0.7062 -0.5099
13425TIP3    H261767   0.131   3.523  13.141  1.6213 -0.6110  2.3080
13426TIP3   OH261768   3.210   0.028  11.336 -0.0534 -0.0580 -0.0951
13426TIP3    H161769   3.282  -0.033  11.320 -0.0165  0.2925 -1.2588
13426TIP3    H261770   3.160   0.030  11.254 -1.9066 -0.9696  0.9656
13427TIP3   OH261771   6.300   6.519  11.447  0.2892  0.0835 -0.1417
13427TIP3    H161772   6.341   6.441  11.411  1.5150  1.3457 -1.5399
13427TIP3    H261773   6.303   6.583  11.376  2.6609  2.5865  2.0868
13428TIP3   OH261774   3.055   2.620  14.127 -0.0827 -0.4008  0.3746
13428TIP3    H161775   3.131   2.669  14.158  0.4868  0.2565 -1.9495
13428TIP3    H261776   3.045   2.549  14.190  1.3177  0.5777  1.7477
13429TIP3   OH261777   0.810   0.278   3.144  0.0765  0.0098  0.1887
13429TIP3    H161778   0.898   0.315   3.152  0.0033  0.4321 -0.8690
13429TIP3    H261779   0.776   0.316   3.063 -1.5498  0.8399  1.2366
13430TIP3   OH261780   1.397   4.237  16.940 -0.0481  0.2416  0.4677
13430TIP3    H161781   1.366   4.161  16.890 -0.1048  1.5900 -1.5815
13430TIP3    H261782   1.321   4.264  16.991 -1.0980  1.0836 -1.5015
13431TIP3   OH261783   0.301   0.346   1.741 -0.2592 -0.4197  0.6119
13431TIP3    H161784   0.324   0.434   1.769 -1.3102  0.0385  0.0409
13431TIP3    H261785   0.279   0.300   1.823  1.0931 -0.4060  0.9962
13432TIP3   OH261786   2.576   0.232   2.089  0.1018  0.7603 -0.1277
13432TIP3    H161787   2.607   0.183   2.165 -0.6885  2.0121  1.0311
13432TIP3    H261788   2.501   0.182   2.056  0.9770 -0.2461 -0.6381
13433TIP3   OH261789   0.313   0.214  12.725 -0.1651  0.1398 -0.0313
13433TIP3    H161790   0.302   0.263  12.807  1.2055  1.2309 -0.4759
13433TIP3    H261791   0.289   0.277  12.657 -1.0160 -0.6764 -0.4971
13434TIP3   OH261792   1.671   6.614  15.440  0.0456 -0.1005 -0.0097
13434TIP3    H161793   1.587   6.659  15.443 -1.0743 -2.2080  1.4550
13434TIP3    H261794   1.648   6.521  15.431  2.2281 -0.6362 -0.4151
13435TIP3   OH261795   1.726   1.970   1.554  0.0514  0.6596  0.4967
13435TIP3    H161796   1.721   1.994   1.461  3.5534 -2.2455 -0.5814
13435TIP3    H261797   1.641   1.929   1.572 -0.4419  0.6432 -1.6602
13436TIP3   OH261798   1.555   3.233  15.572  0.0610 -0.5444  0.4094
13436TIP3    H161799   1.505   3.302  15.527  1.7726 -0.0175 -0.7515
13436TIP3    H261800   1.616   3.281  15.628  0.9428 -1.1212 -0.0537
13437TIP3   OH261801   6.513   6.394   5.072  0.0560 -0.1937 -0.7467
13437TIP3    H161802   6.568   6.470   5.056  0.0114 -0.1400 -0.6474
13437TIP3    H261803   6.458   6.419   5.146 -0.2655 -0.1612 -0.9944
13438TIP3   OH261804   0.478   6.580  16.794 -0.2355 -0.1995 -0.1814
13438TIP3    H161805   0.483   6.533  16.877 -1.0018 -0.8696 -0.5040
13438TIP3    H261806   0.549   6.645  16.798  0.3942 -0.9246  0.5561
13439TIP3   OH261807   4.093   2.908  11.968 -0.3091 -0.4015 -0.5242
13439TIP3    H161808   4.020   2.861  12.008  0.3625 -0.2935  0.8431
13439TIP3    H261809   4.052   2.985  11.928 -1.2831 -1.6274 -1.9709
13440TIP3   OH261810   6.621   4.099   3.968 -0.1335 -0.1076 -0.3427
13440TIP3    H161811   6.578   4.121   3.886 -0.8931 -0.4109 -0.0241
13440TIP3    H261812   6.611   4.178   4.022 -0.1355 -0.1137 -0.3347
13441TIP3   OH261813   1.177   5.573   5.844 -0.2740  0.4723 -0.4580
13441TIP3    H161814   1.188   5.478   5.844 -0.5419  0.4283 -1.5328
13441TIP3    H261815   1.261   5.607   5.813  0.1801  0.6451  0.9404
13442TIP3   OH261816   4.231   0.184   3.379  0.3535 -0.6681  0.2970
13442TIP3    H161817   4.155   0.209   3.327  0.7329  0.4496  0.2690
13442TIP3    H261818   4.296   0.153   3.316  1.9609  3.5405 -0.2742
13443TIP3   OH261819   2.221   5.990   0.191  0.1081 -0.4611 -0.3279
13443TIP3    H161820   2.269   6.073   0.196  0.4731 -0.5355 -2.4297
13443TIP3    H261821   2.168   5.997   0.112 -3.2247 -0.4777  1.7662
13444TIP3   OH261822   0.666   5.892   0.924 -0.0469  0.3975 -0.0443
13444TIP3    H161823   0.718   5.968   0.896 -0.3699  1.0894  1.1649
13444TIP3    H261824   0.635   5.853   0.843  0.0701  1.6041 -0.6890
13445TIP3   OH261825   0.781   2.497  15.915  0.3548  0.3555  0.3866
13445TIP3    H161826   0.701   2.475  15.867  0.0758 -0.7469  1.3260
13445TIP3    H261827   0.762   2.580  15.957  0.3210  0.9481 -0.7715
13446TIP3   OH261828   3.251   5.068  14.778 -0.1094  0.5227  0.2657
13446TIP3    H161829   3.300   5.030  14.705  0.4524 -0.8349  1.3208
13446TIP3    H261830   3.311   5.132  14.816  0.1918  0.1109  0.4871
13447TIP3   OH261831   2.958   6.667  13.212  0.3754  0.5885 -0.6801
13447TIP3    H161832   3.034   6.658  13.155  0.2543 -0.0080 -0.7495
13447TIP3    H261833   2.904   6.589  13.194 -1.1522  1.8929 -1.9686
13448TIP3   OH261834   0.121   4.982  12.458  0.2999  0.5978  0.8271
13448TIP3    H161835   0.044   4.935  12.489  0.7958 -0.1156  0.9951
13448TIP3    H261836   0.086   5.054  12.405 -0.5051  0.7963  1.6144
13449TIP3   OH261837   3.484   1.387  13.155 -0.0152 -0.0898 -0.1946
13449TIP3    H161838   3.484   1.300  13.115  1.6476 -0.2295  0.0919
13449TIP3    H261839   3.449   1.444  13.087  2.0782 -0.4500 -1.6218
13450TIP3   OH261840   1.584   2.862  13.735 -0.0320 -0.4750  0.7795
13450TIP3    H161841   1.589   2.917  13.657  0.0996 -0.8384  0.5234
13450TIP3    H261842   1.593   2.772  13.700 -3.4383 -0.8966  0.8364
13451TIP3   OH261843   2.985   4.810  17.163  0.2798  0.4760  0.3686
13451TIP3    H161844   3.036   4.730  17.162  1.2885  1.1167  0.3540
13451TIP3    H261845   3.028   4.865  17.228  0.2195  1.4170 -0.3827
13452TIP3   OH261846   5.578   3.085  16.931  0.0438 -0.5113 -0.3538
13452TIP3    H161847   5.570   3.097  17.026  4.1467 -0.8548  0.1206
13452TIP3    H261848   5.574   2.990  16.918  1.0266 -0.5577 -0.3401
13453TIP3   OH261849   3.000   4.441  16.700 -0.5022 -0.3313 -0.0355
13453TIP3    H161850   2.938   4.378  16.664 -0.4623 -2.3271  3.1500
13453TIP3    H261851   3.070   4.446  16.635 -0.7531 -3.2193 -0.5993
13454TIP3   OH261852   0.482   3.744   2.815  0.1272  0.0414  0.7926
13454TIP3    H161853   0.506   3.651   2.814  0.9615  0.2620 -0.6195
13454TIP3    H261854   0.449   3.759   2.904  2.4126 -0.9909  1.8675
13455TIP3   OH261855   1.512   2.819   3.809  0.0839 -0.0196 -0.2674
13455TIP3    H161856   1.421   2.831   3.836 -0.0160 -0.8619 -0.2156
13455TIP3    H261857   1.563   2.851   3.883 -0.1760 -0.0893 -0.0550
13456TIP3   OH261858   4.235   0.825   0.220 -0.2794 -0.3107 -0.1981
13456TIP3    H161859   4.193   0.826   0.133  0.9435  0.4616 -0.7827
13456TIP3    H261860   4.284   0.907   0.224 -0.5123 -0.2378  1.3276
13457TIP3   OH261861   6.463   0.991  14.855  0.1874  0.5589  1.1262
13457TIP3    H161862   6.391   0.931  14.876 -0.1168  0.3037 -0.5919
13457TIP3    H261863   6.542   0.941  14.874 -0.0472 -0.9197 -1.6189
13458TIP3   OH261864   1.332   6.206   5.223  0.1723 -0.6063 -0.0513
13458TIP3    H161865   1.264   6.145   5.251 -0.3094 -0.4669 -0.8886
13458TIP3    H261866   1.351   6.181   5.133 -0.3864  0.7946 -0.5730
13459TIP3   OH261867   3.065   5.412  16.759  0.8195  0.7212 -0.6699
13459TIP3    H161868   3.142   5.462  16.786  0.0342  0.8538  1.4142
13459TIP3    H261869   2.992   5.453  16.807 -0.2949 -0.4571 -1.3222
13460TIP3   OH261870   4.007   0.684   6.560  0.4770  0.5150 -0.2873
13460TIP3    H161871   3.962   0.625   6.500  2.7382 -0.0972 -1.4581
13460TIP3    H261872   4.100   0.665   6.547  1.1004  1.5812  2.1808
13461TIP3   OH261873   5.590   3.303   0.337  0.0752  0.4587  0.3097
13461TIP3    H161874   5.521   3.307   0.271 -0.5523 -1.2039  0.8343
13461TIP3    H261875   5.666   3.268   0.290  0.2646  1.3233 -0.0310
13462TIP3   OH261876   3.106   3.796  16.874 -0.0099  0.1239  0.1871
13462TIP3    H161877   3.014   3.823  16.876 -0.1703 -0.3937 -0.0427
13462TIP3    H261878   3.132   3.793  16.966 -0.0227  0.9274  0.2203
13463TIP3   OH261879   3.350   5.304   5.845 -0.2986  0.0482  0.2119
13463TIP3    H161880   3.266   5.351   5.841 -0.9006 -0.9708  0.7936
13463TIP3    H261881   3.333   5.223   5.797  0.9454  0.7190 -1.4126
13464TIP3   OH261882   1.776   4.187  12.499 -0.4187 -0.4609 -0.2855
13464TIP3    H161883   1.825   4.248  12.444 -0.0105 -1.2111 -0.7633
13464TIP3    H261884   1.833   4.169  12.573 -1.4337  1.4386  0.9778
13465TIP3   OH261885   2.165   5.868  16.237 -0.5924 -0.0914 -0.6675
13465TIP3    H161886   2.118   5.836  16.314 -1.7357 -0.2233 -1.4067
13465TIP3    H261887   2.254   5.835  16.248 -1.2840 -1.9861 -0.4960
13466TIP3   OH261888   1.880   2.647  11.869 -0.1230  0.1525 -0.3644
13466TIP3    H161889   1.911   2.693  11.791  1.8050 -1.0127 -0.3366
13466TIP3    H261890   1.941   2.673  11.938  0.1045 -1.2538 -0.0163
13467TIP3   OH261891   2.907   5.157   5.809  0.6100 -0.0769  0.1288
13467TIP3    H161892   2.863   5.097   5.869  2.3982 -1.8570 -0.2917
13467TIP3    H261893   2.836   5.209   5.771 -0.9474 -1.6967  0.7519
13468TIP3   OH261894   6.207   5.977   5.740 -0.2694  0.2680  0.0872
13468TIP3    H161895   6.241   5.914   5.804  0.0461 -0.5524 -0.8823
13468TIP3    H261896   6.266   5.970   5.665  0.2577  2.3209  0.2710
13469TIP3   OH261897   4.660   6.526   2.662  0.3291 -0.6756  0.5945
13469TIP3    H161898   4.662   6.432   2.645  1.5232 -0.0358 -3.3081
13469TIP3    H261899   4.627   6.565   2.581  0.8255  2.3771  1.7612
13470TIP3   OH261900   1.660   3.485  16.289 -0.1798 -0.0553  0.2683
13470TIP3    H161901   1.749   3.452  16.295  0.5610  1.6927 -0.7760
13470TIP3    H261902   1.609   3.427  16.346  1.3502 -1.9464 -0.2506
13471TIP3   OH261903   4.724   4.798  11.942  0.1434  0.4191  0.3871
13471TIP3    H161904   4.814   4.824  11.920  0.3301  0.2376  0.9188
13471TIP3    H261905   4.700   4.857  12.013  0.3842 -0.5234  1.2633
13472TIP3   OH261906   5.769   4.234   5.142  0.3147  1.1014 -0.4770
13472TIP3    H161907   5.856   4.243   5.103  1.0991  0.4517  1.0735
13472TIP3    H261908   5.709   4.254   5.071  1.7320  1.4839 -1.5962
13473TIP3   OH261909   3.388   1.831  10.463 -0.5964  0.1016  0.2861
13473TIP3    H161910   3.466   1.822  10.409 -0.9076  0.7682 -0.2767
13473TIP3    H261911   3.331   1.891  10.414 -0.6281  1.1994  1.6403
13474TIP3   OH261912   0.101   3.566  11.196 -0.1030  0.4996 -0.2723
13474TIP3    H161913   0.047   3.497  11.157 -1.0297  2.0161 -1.6882
13474TIP3    H261914   0.102   3.545  11.289 -1.8191 -0.4512 -0.4454
13475TIP3   OH261915   1.616   4.247  17.089  0.4324 -0.4908 -0.2751
13475TIP3    H161916   1.592   4.284  17.174  0.4838 -1.9130  0.3780
13475TIP3    H261917   1.532   4.238  17.043  0.1907 -1.3853  0.3214
13476TIP3   OH261918   2.437   3.056  16.318  0.1754 -0.0562  0.3363
13476TIP3    H161919   2.495   3.032  16.246  1.8093 -0.0786  1.6160
13476TIP3    H261920   2.388   2.976  16.338 -0.8186  0.1583 -1.2236
13477TIP3   OH261921   6.353   2.514  16.624  0.0202  0.7611  0.2963
13477TIP3    H161922   6.358   2.597  16.575  0.3184  0.4745 -0.1556
13477TIP3    H261923   6.409   2.454  16.576  0.2475  0.4472  0.9426
13478TIP3   OH261924   4.131   5.144  14.672 -0.0550 -0.0904  0.9634
13478TIP3    H161925   4.057   5.086  14.653 -0.1894 -0.1998  1.7763
13478TIP3    H261926   4.190   5.134  14.598  0.4344 -2.1147  1.5965
13479TIP3   OH261927   6.496   5.819   4.877  0.0204  0.2881 -0.0319
13479TIP3    H161928   6.572   5.851   4.925 -0.1322  0.1363  0.3135
13479TIP3    H261929   6.527   5.741   4.831  0.4285  0.9972 -0.9845
13480TIP3   OH261930   0.332   6.564  10.988 -0.4162  0.0264 -0.6591
13480TIP3    H161931   0.409   6.618  10.969 -0.1691 -0.7894 -2.0902
13480TIP3    H261932   0.261   6.607  10.940 -1.0710  1.3102  1.4187
13481TIP3   OH261933   6.463   2.828  16.654  0.4429 -0.3296 -0.0974
13481TIP3    H161934   6.543   2.873  16.627  1.7404 -1.8164  1.2017
13481TIP3    H261935   6.427   2.793  16.572  1.1786  0.2220 -0.6699
13482TIP3   OH261936   6.215   3.850  12.077  0.4830  0.5119 -0.6912
13482TIP3    H161937   6.264   3.928  12.051 -1.2670  1.5082 -1.0745
13482TIP3    H261938   6.166   3.877  12.155 -0.2557 -0.1569 -0.9160
13483TIP3   OH261939   1.782   4.735   1.330  0.3496 -0.5769 -0.3395
13483TIP3    H161940   1.836   4.788   1.389  0.3790 -0.1481 -0.7470
13483TIP3    H261941   1.718   4.797   1.295 -0.7374 -1.1863  0.5230
13484TIP3   OH261942   0.939   1.432  13.596  0.0433 -0.4716  0.0698
13484TIP3    H161943   0.979   1.419  13.510  0.4984 -4.5447  0.7630
13484TIP3    H261944   1.010   1.414  13.658 -0.8622  0.1228  1.3044
13485TIP3   OH261945   3.699   0.014   3.977 -0.1209  0.4934 -0.2983
13485TIP3    H161946   3.744   0.034   3.895  0.6740  1.7332  0.4258
13485TIP3    H261947   3.770   0.010   4.042 -0.6437 -1.3187  0.1789
13486TIP3   OH261948   0.700   0.351   0.449  0.2324  0.1556 -0.1934
13486TIP3    H161949   0.781   0.304   0.471 -0.2837  0.1051  1.7057
13486TIP3    H261950   0.630   0.289   0.471 -0.4358  1.5235  1.7345
13487TIP3   OH261951   5.563   2.698  13.257 -0.2689  0.5876  0.2124
13487TIP3    H161952   5.546   2.678  13.164 -1.5056  0.8174  0.3723
13487TIP3    H261953   5.657   2.690  13.266 -0.1063  0.7707 -1.1293
13488TIP3   OH261954   1.438   0.741   4.963 -0.0386  0.8225 -0.1258
13488TIP3    H161955   1.346   0.761   4.946 -0.5645  0.8268  2.6087
13488TIP3    H261956   1.486   0.803   4.908 -1.6725  2.0684 -0.1981
13489TIP3   OH261957   5.172   0.458   5.848  0.0044 -0.0218 -0.4806
13489TIP3    H161958   5.109   0.398   5.887  1.1484 -1.5337 -0.9369
13489TIP3    H261959   5.135   0.480   5.763 -0.5591  0.1781 -0.1885
13490TIP3   OH261960   0.923   1.687   2.193  0.0620  0.2420 -0.5297
13490TIP3    H161961   0.891   1.712   2.279  1.3006 -2.2416  0.7162
13490TIP3    H261962   0.982   1.758   2.168  1.3463  0.0047  1.6596
13491TIP3   OH261963   3.528   1.598   2.487 -0.2300 -0.0583  0.3942
13491TIP3    H161964   3.581   1.677   2.499 -0.2921  0.1701 -0.7852
13491TIP3    H261965   3.484   1.611   2.404 -0.5923 -1.1404  0.4086
13492TIP3   OH261966   2.337   3.189  14.807  0.2835  0.4691  0.3365
13492TIP3    H161967   2.358   3.207  14.715 -0.2115  2.7204  0.6370
13492TIP3    H261968   2.406   3.235  14.856 -0.0892  0.2062  1.1127
13493TIP3   OH261969   3.468   4.940   5.152  0.2231 -0.0060  0.4868
13493TIP3    H161970   3.470   4.863   5.208  0.8694 -0.6537 -0.4080
13493TIP3    H261971   3.542   4.993   5.182  0.9745 -0.6617 -0.1610
13494TIP3   OH261972   3.796   4.341  10.908  0.3892 -0.3117 -0.0462
13494TIP3    H161973   3.850   4.301  10.976 -0.8760 -0.9582  0.5922
13494TIP3    H261974   3.820   4.434  10.911  1.7010 -0.6469 -0.0004
13495TIP3   OH261975   2.364   4.280  13.076 -0.1849  0.0420  0.0829
13495TIP3    H161976   2.274   4.292  13.107 -0.3503  1.4662 -0.8903
13495TIP3    H261977   2.355   4.236  12.992  0.0696 -0.4712  0.3223
13496TIP3   OH261978   2.019   3.239   4.647  0.1573  0.5245 -0.2500
13496TIP3    H161979   1.949   3.181   4.679  1.8930 -2.8962 -2.3650
13496TIP3    H261980   2.097   3.212   4.697  0.5383  2.6307  0.3483
13497TIP3   OH261981   1.513   6.757  13.026 -0.2043  0.0671 -0.1914
13497TIP3    H161982   1.447   6.811  12.984  0.1237  0.4693 -0.1882
13497TIP3    H261983   1.467   6.675  13.047 -0.2759 -0.2738 -1.6483
13498TIP3   OH261984   3.056   5.732  14.086  0.0108 -0.0886 -0.1457
13498TIP3    H161985   3.092   5.771  14.166 -0.2178 -0.5096  0.1646
13498TIP3    H261986   3.020   5.806  14.037  2.4812  0.5238 -1.0945
13499TIP3   OH261987   6.062   3.404  14.031  0.5686 -0.0169  0.7855
13499TIP3    H161988   6.005   3.332  14.005  1.3305 -0.2487 -0.2757
13499TIP3    H261989   6.019   3.442  14.107 -0.2767 -1.0650  0.8480
13500TIP3   OH261990   4.289   5.286  15.713 -0.6276  0.4523 -1.1550
13500TIP3    H161991   4.240   5.319  15.788  1.0086 -1.8484  0.9929
13500TIP3    H261992   4.232   5.220  15.674 -0.2419 -0.5376 -0.0734
13501TIP3   OH261993   2.426   0.232  11.455 -0.3668  0.5033 -0.1736
13501TIP3    H161994   2.448   0.164  11.392  0.9188  0.5642  0.1888
13501TIP3    H261995   2.509   0.253  11.498 -0.3976  3.5772 -1.5089
13502TIP3   OH261996   5.783   0.047   0.007  0.0028  0.1198 -0.9371
13502TIP3    H161997   5.780   0.020  -0.085  2.9099 -0.4207 -0.9078
13502TIP3    H261998   5.872   0.026   0.035 -1.0814 -0.4283  2.2303
13503TIP3   OH261999   1.587   3.088  15.049 -0.0667 -0.1038  0.3224
13503TIP3    H162000   1.673   3.129  15.057 -0.2754  0.2192  0.9445
13503TIP3    H262001   1.541   3.113  15.129 -0.6935 -0.3878  0.0537
13504TIP3   OH262002   2.128   1.587  15.868  0.2370 -0.3993 -0.2800
13504TIP3    H162003   2.090   1.663  15.824  0.6080 -0.2336 -0.3176
13504TIP3    H262004   2.101   1.512  15.815 -0.5001 -0.3396  0.0006
13505TIP3   OH262005   0.718   0.101  14.509 -0.2244  0.4996  0.2904
13505TIP3    H162006   0.729   0.193  14.530 -1.4450  0.6048  0.4724
13505TIP3    H262007   0.644   0.072  14.561 -0.4683 -0.3370 -0.4946
13506TIP3   OH262008   0.663   1.943  12.486  0.6720 -0.1314  0.0514
13506TIP3    H162009   0.699   2.013  12.433  0.9109 -0.6895 -0.5276
13506TIP3    H262010   0.735   1.914  12.541  1.1564 -1.3078 -1.1706
13507TIP3   OH262011   2.290   5.978   1.820 -0.6921  0.2905  0.0220
13507TIP3    H162012   2.315   6.027   1.742 -1.2242 -0.0217 -0.3442
13507TIP3    H262013   2.321   5.889   1.803 -1.2917  0.0969 -0.0707
13508TIP3   OH262014   2.136   0.256  13.062 -0.1129  0.3583 -0.7632
13508TIP3    H162015   2.137   0.336  13.011  0.4089  1.6655  1.2246
13508TIP3    H262016   2.043   0.235  13.073 -0.2592  0.8683 -1.0257
13509TIP3   OH262017   0.532   1.913  12.223 -0.3055 -0.3757  0.0193
13509TIP3    H162018   0.455   1.963  12.248 -0.1476  0.4086 -1.0195
13509TIP3    H262019   0.589   1.915  12.300 -1.0454 -0.4292  0.5709
13510TIP3   OH262020   5.420   0.465  11.520  0.4492  0.2174  0.3734
13510TIP3    H162021   5.426   0.521  11.443  0.4851  0.7437  0.7619
13510TIP3    H262022   5.343   0.497  11.568  0.4424 -0.0890  0.5734
13511TIP3   OH262023   0.575   5.695  13.090 -0.5798 -0.4652  0.3143
13511TIP3    H162024   0.484   5.669  13.083 -1.0360  1.3212 -0.7343
13511TIP3    H262025   0.580   5.742  13.174 -0.4563 -1.1714  0.7071
13512TIP3   OH262026   2.183   1.477  14.094  0.2055 -0.4434 -0.1694
13512TIP3    H162027   2.240   1.532  14.147 -0.7918 -1.1592  1.6870
13512TIP3    H262028   2.164   1.401  14.149 -2.0823 -0.4922 -0.9598
13513TIP3   OH262029   4.387   1.101   1.987 -0.2099 -0.2874  0.5496
13513TIP3    H162030   4.465   1.155   1.974 -0.5802  0.0652 -0.2052
13513TIP3    H262031   4.316   1.165   1.999 -0.4892 -0.6081  0.5988
13514TIP3   OH262032   4.755   1.056   1.571  0.2917  0.3000  0.2048
13514TIP3    H162033   4.832   1.108   1.547  1.2873 -0.2292  2.1279
13514TIP3    H262034   4.781   0.965   1.554  0.3896  0.0591  1.5362
13515TIP3   OH262035   6.436   5.362   1.027  0.1462  0.8141  0.0941
13515TIP3    H162036   6.530   5.370   1.013  0.0193  0.7071 -0.8436
13515TIP3    H262037   6.399   5.350   0.939 -0.5860 -0.7454  0.6068
13516TIP3   OH262038   2.998   0.253   0.059  0.1842 -0.8216 -0.0284
13516TIP3    H162039   3.025   0.239   0.149 -0.1721 -0.3496  0.1540
13516TIP3    H262040   3.005   0.166   0.018 -0.5009 -1.2233  0.6866
13517TIP3   OH262041   3.692   3.246  16.000  0.1844  0.1353  0.0004
13517TIP3    H162042   3.782   3.280  15.998  0.6016 -0.9519 -0.1808
13517TIP3    H262043   3.647   3.293  15.931  1.1983 -0.8781 -1.3887
13518TIP3   OH262044   0.756   4.180  11.926  0.3716 -0.8529  0.5443
13518TIP3    H162045   0.788   4.247  11.987 -0.4202 -1.2537  1.4129
13518TIP3    H262046   0.835   4.139  11.892  0.8512  0.1162  0.4615
13519TIP3   OH262047   1.319   5.520   3.510 -0.0494 -0.0906 -0.5729
13519TIP3    H162048   1.239   5.472   3.488 -1.4488  1.6848  0.4907
13519TIP3    H262049   1.298   5.612   3.490  1.3372  0.5311  0.7472
13520TIP3   OH262050   4.742   1.979  16.142  0.3598  0.1919 -0.3045
13520TIP3    H162051   4.744   2.054  16.082 -2.0985  0.2318 -0.3764
13520TIP3    H262052   4.781   2.012  16.223  2.2717  0.5845 -1.3532
13521TIP3   OH262053   2.547   3.829  13.736  0.2863  1.1462  0.3680
13521TIP3    H162054   2.624   3.786  13.773  0.5326 -0.3955 -1.8173
13521TIP3    H262055   2.552   3.919  13.768  1.8371  0.5232  1.9637
13522TIP3   OH262056   3.383   0.843  16.456 -0.8575  0.1618 -0.0304
13522TIP3    H162057   3.343   0.765  16.495  0.8855 -0.4188  0.6470
13522TIP3    H262058   3.309   0.900  16.434 -2.0257 -0.6312  1.7490
13523TIP3   OH262059   0.250   0.630   0.334 -0.2033 -0.0486  0.1350
13523TIP3    H162060   0.291   0.551   0.300 -0.5153 -0.1210 -0.0745
13523TIP3    H262061   0.270   0.629   0.428  0.5659  0.0968 -0.0274
13524TIP3   OH262062   2.464   1.234  13.815  0.1466 -0.1287 -0.3212
13524TIP3    H162063   2.371   1.223  13.797 -0.1739  1.9872 -0.0711
13524TIP3    H262064   2.472   1.217  13.909  0.1945 -1.3226 -0.5339
13525TIP3   OH262065   0.965   0.958   1.388 -0.3034 -0.3919 -0.0015
13525TIP3    H162066   1.019   0.925   1.460 -1.3211 -0.1812  0.8679
13525TIP3    H262067   0.894   0.894   1.381 -2.2167  1.4916  1.5991
13526TIP3   OH262068   0.660   0.620  17.143 -0.4052 -0.4359  0.0565
13526TIP3    H162069   0.704   0.674  17.208  0.7541 -0.4849 -0.6700
13526TIP3    H262070   0.627   0.544  17.191 -2.4073  1.1049  1.1590
13527TIP3   OH262071   2.438   3.307   4.996  0.3675 -0.3758  0.1491
13527TIP3    H162072   2.378   3.372   5.032  0.8794  0.7930 -1.0662
13527TIP3    H262073   2.516   3.313   5.052 -0.6972 -2.0971  1.9070
13528TIP3   OH262074   2.796   1.033  12.926  0.1360 -0.3402  0.2065
13528TIP3    H162075   2.713   1.079  12.939 -0.4144 -0.9979 -0.8665
13528TIP3    H262076   2.792   1.002  12.836  0.7529 -1.9846  0.7312
13529TIP3   OH262077   3.626   1.085  15.558 -0.5098  0.1056 -1.4055
13529TIP3    H162078   3.538   1.122  15.562  0.1509  1.6332 -0.6541
13529TIP3    H262079   3.667   1.130  15.484 -0.3522 -0.6073 -1.7563
13530TIP3   OH262080   4.984   6.290   3.714 -0.0995 -0.2481 -1.3910
13530TIP3    H162081   4.924   6.223   3.747 -0.6031 -1.1316 -3.9223
13530TIP3    H262082   5.068   6.244   3.706 -0.0489 -0.1224 -1.5812
13531TIP3   OH262083   4.015   4.669  17.130  0.3690 -0.1267  0.0740
13531TIP3    H162084   4.033   4.575  17.125 -2.2779 -0.6909  0.0373
13531TIP3    H262085   3.922   4.674  17.154  0.8532  2.4953  1.6021
13532TIP3   OH262086   0.202   1.045  16.200  0.5210 -0.0706 -0.4858
13532TIP3    H162087   0.128   1.097  16.170  2.5421  3.0541 -0.2947
13532TIP3    H262088   0.185   1.031  16.293 -0.4328 -0.4759 -0.7154
13533TIP3   OH262089   3.855   5.403   0.830 -0.1097 -0.5173 -0.0590
13533TIP3    H162090   3.805   5.424   0.908  0.0755 -0.8414  0.1525
13533TIP3    H262091   3.881   5.487   0.794  0.6559 -0.3805  0.7919
13534TIP3   OH262092   4.478   3.856  15.029  0.2236 -0.2248 -0.0838
13534TIP3    H162093   4.527   3.786  15.071  0.4718 -1.0975 -1.7658
13534TIP3    H262094   4.473   3.830  14.937 -0.7396  1.3678 -0.5099
13535TIP3   OH262095   1.910   0.656  16.249  0.0487  0.1391 -0.1189
13535TIP3    H162096   1.888   0.567  16.221 -2.0890  0.2981  0.9854
13535TIP3    H262097   1.994   0.647  16.293  0.6805 -1.0396 -1.5134
13536TIP3   OH262098   5.902   3.867   6.174  0.0703  0.2507 -0.1142
13536TIP3    H162099   5.816   3.839   6.204  0.1648  0.0004 -0.0762
13536TIP3    H262100   5.930   3.932   6.238  0.3464 -0.4042  0.4449
13537TIP3   OH262101   1.801   1.430   5.735 -0.3779  0.1044  0.0885
13537TIP3    H162102   1.845   1.371   5.796 -1.2186 -0.9302 -0.2775
13537TIP3    H262103   1.761   1.497   5.791 -1.1354 -0.8291  0.6973
13538TIP3   OH262104   2.277   1.295  16.480  0.0482 -0.3575 -0.1611
13538TIP3    H162105   2.303   1.213  16.439  0.3818 -0.3924  0.1228
13538TIP3    H262106   2.359   1.338  16.503 -0.0312  1.2957 -2.7184
13539TIP3   OH262107   3.870   3.624   5.589  0.2029 -0.1112 -0.0376
13539TIP3    H162108   3.843   3.544   5.634  0.6212  0.0802  0.5547
13539TIP3    H262109   3.802   3.638   5.523  0.1139 -0.9394 -0.1341
13540TIP3   OH262110   5.999   1.575   2.123  0.2290 -0.2133 -0.0522
13540TIP3    H162111   5.925   1.632   2.144  0.2127  0.4479 -1.7904
13540TIP3    H262112   5.962   1.511   2.062  1.4117  1.0305 -2.1236
13541TIP3   OH262113   6.780   2.722   0.586  0.5522  0.3022  0.1942
13541TIP3    H162114   6.827   2.708   0.503  1.1933 -1.5781  0.8491
13541TIP3    H262115   6.759   2.815   0.586  0.1352  0.2507 -2.3026
13542TIP3   OH262116   4.860   5.093   2.605  0.4883  0.0432 -0.2788
13542TIP3    H162117   4.892   5.058   2.688 -1.3784 -0.8679  0.0908
13542TIP3    H262118   4.939   5.114   2.555  1.6302 -1.5654  0.8158
13543TIP3   OH262119   5.463   4.726  15.639 -0.0698  1.2942 -0.8325
13543TIP3    H162120   5.410   4.703  15.563 -1.4297  2.5085 -0.2974
13543TIP3    H262121   5.448   4.820  15.650 -1.2878  0.8481  1.9217
13544TIP3   OH262122   2.028   1.945   0.684 -0.2288  0.1106  0.7691
13544TIP3    H162123   1.981   1.907   0.758 -0.6434 -0.3996  0.2455
13544TIP3    H262124   2.120   1.932   0.704 -0.2513  2.2860  2.4383
13545TIP3   OH262125   2.316   5.843  17.206  0.0264 -0.2080  0.2899
13545TIP3    H162126   2.399   5.880  17.179  0.5312 -1.0227  0.7077
13545TIP3    H262127   2.337   5.754  17.236 -0.9773 -0.4118  0.4318
13546TIP3   OH262128   2.806   2.063   3.315  0.0122 -0.1442 -0.5587
13546TIP3    H162129   2.849   2.118   3.381 -2.0531  0.9429 -0.0649
13546TIP3    H262130   2.727   2.112   3.292  0.2314 -0.9566 -3.1826
13547TIP3   OH262131   0.208   5.287   5.224 -0.4145  0.5036  0.1475
13547TIP3    H162132   0.218   5.298   5.130 -0.6159  3.3697  0.4291
13547TIP3    H262133   0.114   5.296   5.240 -0.4002 -0.1086  0.6232
13548TIP3   OH262134   5.014   1.998  11.849  0.4846 -0.1802  0.0827
13548TIP3    H162135   5.030   1.909  11.879 -0.3507 -1.0464 -1.9876
13548TIP3    H262136   4.922   2.015  11.872  0.0818 -0.5541 -1.2007
13549TIP3   OH262137   4.914   5.889   1.884  0.0485 -0.0824  0.0411
13549TIP3    H162138   4.981   5.900   1.952 -0.2950 -0.5637  0.4663
13549TIP3    H262139   4.960   5.849   1.810  0.5423  0.9595 -0.2123
13550TIP3   OH262140   1.962   1.111   2.327 -0.2559  0.5452  0.3863
13550TIP3    H162141   1.940   1.017   2.329 -0.8164  0.6522 -0.4632
13550TIP3    H262142   2.056   1.114   2.340  0.0197 -0.2492 -1.2312
13551TIP3   OH262143   3.782   0.755   3.929 -0.1764 -0.2203  0.0110
13551TIP3    H162144   3.787   0.660   3.921 -1.5561 -0.2118 -1.3271
13551TIP3    H262145   3.741   0.784   3.847  1.0702  1.6121 -0.0010
13552TIP3   OH262146   3.911   2.544   4.859 -0.1717  0.2290 -0.2206
13552TIP3    H162147   3.861   2.544   4.777 -3.3458  0.2115  1.6390
13552TIP3    H262148   3.904   2.454   4.891  1.0870  0.2298  0.0810
13553TIP3   OH262149   1.315   3.903  14.076  0.1580 -0.1191  0.1693
13553TIP3    H162150   1.346   3.816  14.052 -0.7600 -0.1960 -0.8040
13553TIP3    H262151   1.394   3.956  14.083  0.6908 -0.9461  0.3839
13554TIP3   OH262152   2.947   3.994   4.568  0.1044  0.2377 -0.1600
13554TIP3    H162153   2.863   4.010   4.610  0.4999  1.7784  0.0796
13554TIP3    H262154   2.931   3.921   4.508 -0.4970 -1.9868  2.6089
13555TIP3   OH262155   0.279   1.162  14.208 -0.3396  0.4542 -0.8906
13555TIP3    H162156   0.256   1.222  14.137 -1.3168  0.6396 -0.4222
13555TIP3    H262157   0.219   1.088  14.197 -1.9551  1.4439  1.0082
13556TIP3   OH262158   1.689   1.997  16.103  0.4801  0.3748 -0.7187
13556TIP3    H162159   1.621   2.021  16.166  0.1955  0.5523 -1.0945
13556TIP3    H262160   1.748   1.941  16.153  0.4938  0.8663 -0.1697
13557TIP3   OH262161   3.041   1.481  11.250  0.1594 -0.5647 -0.1351
13557TIP3    H162162   3.097   1.557  11.237  0.4649 -0.7458  0.0946
13557TIP3    H262163   2.983   1.480  11.175 -1.2298  1.0773  0.9005
13558TIP3   OH262164   2.678   2.556   5.320 -0.0929 -0.3440  0.1537
13558TIP3    H162165   2.659   2.613   5.246  0.7274  0.1225  0.3044
13558TIP3    H262166   2.593   2.517   5.342 -0.9492  1.9452  1.0145
13559TIP3   OH262167   6.106   5.401   4.337 -0.2124  0.1814  0.0042
13559TIP3    H162168   6.161   5.338   4.290  0.6981  0.8852  0.1196
13559TIP3    H262169   6.090   5.361   4.422  0.3435  0.0977  0.0685
13560TIP3   OH262170   2.732   3.281  15.178 -0.8738  0.2468  0.0533
13560TIP3    H162171   2.760   3.190  15.178  1.7182  0.9801  1.4724
13560TIP3    H262172   2.784   3.322  15.109 -0.3483  1.1233  0.9660
13561TIP3   OH262173   2.483   6.238  15.717 -0.2228 -0.1623 -0.1354
13561TIP3    H162174   2.514   6.155  15.752 -0.0635 -0.1402 -0.2183
13561TIP3    H262175   2.409   6.262  15.771 -0.9644 -0.9140 -0.8072
13562TIP3   OH262176   1.906   0.039  14.056  0.3388  0.4254  0.3975
13562TIP3    H162177   1.822   0.043  14.011  0.4295  1.1124  0.2910
13562TIP3    H262178   1.883   0.034  14.149  0.0884 -3.3236  0.2196
13563TIP3   OH262179   6.505   3.205   5.895  0.7315  0.1444  0.3818
13563TIP3    H162180   6.512   3.120   5.938  2.8848  0.0021 -0.1480
13563TIP3    H262181   6.520   3.269   5.965 -1.2953  0.1093  0.8562
13564TIP3   OH262182   3.975   6.810   4.029  0.7134 -0.1747  0.0490
13564TIP3    H162183   4.004   6.723   4.056  1.2017  0.1982  0.7442
13564TIP3    H262184   3.988   6.865   4.107  1.0706  0.6728 -0.5942
13565TIP3   OH262185   2.025   2.806   3.368  0.3015 -0.6150 -0.0572
13565TIP3    H162186   2.003   2.714   3.384 -3.5560 -0.0449 -1.6680
13565TIP3    H262187   1.948   2.855   3.395  2.0425  2.1473  0.1268
13566TIP3   OH262188   1.709   0.594  11.842 -0.4056  0.2048  0.2068
13566TIP3    H162189   1.768   0.638  11.903 -0.1486  1.0265 -0.6325
13566TIP3    H262190   1.673   0.664  11.787 -0.7901 -0.5024 -0.4635
13567TIP3   OH262191   4.253   4.412  14.198  0.7258  0.0529  0.3601
13567TIP3    H162192   4.254   4.335  14.255 -0.0542 -0.8522 -0.8403
13567TIP3    H262193   4.317   4.391  14.129  0.6031  0.5316  0.0996
13568TIP3   OH262194   1.622   0.447  15.165 -0.4835  0.0238  0.4033
13568TIP3    H162195   1.613   0.353  15.180 -1.0039  0.0246  0.1127
13568TIP3    H262196   1.705   0.471  15.207 -0.6458 -0.4511  0.9891
13569TIP3   OH262197   6.017   3.498   5.843  0.4762 -0.0670  0.3175
13569TIP3    H162198   6.024   3.402   5.843  0.0273 -0.1089  1.4431
13569TIP3    H262199   6.067   3.525   5.920  0.3393  0.5903  0.1779
13570TIP3   OH262200   6.020   1.919  15.705  0.4757 -0.1614  0.1725
13570TIP3    H162201   6.107   1.921  15.744  1.2429 -0.0094 -1.5052
13570TIP3    H262202   5.970   1.858  15.760  1.6416 -0.2453  1.1421
13571TIP3   OH262203   1.781   5.330   2.333 -0.8059  0.4770 -0.1943
13571TIP3    H162204   1.692   5.296   2.326 -0.0042 -1.6031 -0.6457
13571TIP3    H262205   1.824   5.301   2.253  0.5207  0.7687  0.4057
13572TIP3   OH262206   0.889   5.888   1.801  0.1671  0.2427  0.3349
13572TIP3    H162207   0.892   5.849   1.888 -1.9379  0.7768  0.6690
13572TIP3    H262208   0.925   5.976   1.813  0.9549 -0.0846  0.4210
13573TIP3   OH262209   1.704   5.392   0.201 -0.4187 -0.4526  0.0753
13573TIP3    H162210   1.762   5.440   0.142  0.6796  0.1704  1.6210
13573TIP3    H262211   1.764   5.351   0.264 -1.5519 -1.3502  0.5797
13574TIP3   OH262212   3.216   0.143   1.403 -0.4096  0.6725 -0.2570
13574TIP3    H162213   3.274   0.208   1.365 -0.5732  0.3754 -1.0309
13574TIP3    H262214   3.269   0.064   1.412 -0.3778  0.7329  0.1187
13575TIP3   OH262215   4.754   0.113   1.102  0.3136 -0.3945  0.3060
13575TIP3    H162216   4.812   0.147   1.171 -2.1611  0.1935  2.1564
13575TIP3    H262217   4.728   0.026   1.133 -0.5107 -0.2864 -0.0752
13576TIP3   OH262218   5.220   2.507   1.803 -0.2163 -0.3591 -0.2386
13576TIP3    H162219   5.255   2.419   1.799 -0.0491 -0.2657 -0.8573
13576TIP3    H262220   5.292   2.560   1.839 -0.2831 -0.4507  0.0369
13577TIP3   OH262221   6.282   0.367  11.762 -0.4236 -0.4570  0.4750
13577TIP3    H162222   6.245   0.294  11.811 -1.3043  1.0858  2.2190
13577TIP3    H262223   6.223   0.378  11.687  0.2643 -2.1201 -0.3123
13578TIP3   OH262224   0.730   2.926  15.364  0.1028 -0.1692  0.2848
13578TIP3    H162225   0.645   2.968  15.352  0.3677  0.3345  0.1666
13578TIP3    H262226   0.745   2.931  15.459 -1.1654 -2.5456  0.6370
13579TIP3   OH262227   3.300   6.058   2.313 -0.4675  0.0828  0.8542
13579TIP3    H162228   3.246   6.125   2.356  0.1377  0.8101  0.4825
13579TIP3    H262229   3.353   6.021   2.383 -0.0569  0.7132  0.8792
13580TIP3   OH262230   1.485   3.536   0.185 -0.4464 -0.3222  0.4994
13580TIP3    H162231   1.530   3.515   0.103 -0.8507 -0.7091  0.3741
13580TIP3    H262232   1.411   3.590   0.159 -1.5460 -1.8570  0.4318
13581TIP3   OH262233   3.659   4.658   2.414 -0.2216  0.7285  0.0967
13581TIP3    H162234   3.570   4.689   2.394 -0.2522 -1.1828 -3.0127
13581TIP3    H262235   3.712   4.738   2.411 -1.5158  1.6224  0.0809
13582TIP3   OH262236   6.444   5.772   1.656  0.4925  0.5323 -0.3666
13582TIP3    H162237   6.467   5.845   1.598 -1.4041 -0.1369 -2.0215
13582TIP3    H262238   6.508   5.777   1.728  2.0428  2.1952 -1.8146
13583TIP3   OH262239   3.291   2.483  16.149 -0.1416  0.1700  0.4810
13583TIP3    H162240   3.300   2.468  16.055 -1.3291  0.9142  0.2375
13583TIP3    H262241   3.261   2.399  16.184 -1.7728  0.4876 -0.1225
13584TIP3   OH262242   3.500   1.098  14.453  0.5303  0.2534  0.1115
13584TIP3    H162243   3.465   1.172  14.502  1.0856  0.5816  0.0086
13584TIP3    H262244   3.594   1.098  14.472  0.6706  0.0930 -0.5666
13585TIP3   OH262245   0.297   2.808  16.858 -0.3691 -0.7273 -0.3963
13585TIP3    H162246   0.291   2.893  16.901 -0.4135 -1.5478  1.2750
13585TIP3    H262247   0.383   2.807  16.816 -0.9339  0.6677 -1.6020
13586TIP3   OH262248   2.979   1.008  13.780  0.0142 -0.2560 -0.7009
13586TIP3    H162249   2.965   1.102  13.793 -1.0097 -0.7703  2.4507
13586TIP3    H262250   3.074   0.999  13.771  0.4036  0.8628  1.7205
13587TIP3   OH262251   4.832   3.629  16.969 -0.0794 -0.1352 -0.8883
13587TIP3    H162252   4.868   3.605  17.054 -0.1842 -0.5341 -0.9538
13587TIP3    H262253   4.882   3.707  16.942 -0.8900  0.7435  0.1057
13588TIP3   OH262254   4.624   4.327   4.792 -0.1036 -0.6411  0.0029
13588TIP3    H162255   4.690   4.272   4.833 -0.6524 -1.2334  0.1009
13588TIP3    H262256   4.545   4.273   4.791 -0.4947 -0.0664 -0.4265
13589TIP3   OH262257   6.709   0.967   3.380 -0.0187 -0.4286  0.8327
13589TIP3    H162258   6.629   1.015   3.398  0.3281  0.6755 -0.4972
13589TIP3    H262259   6.738   0.935   3.465  0.0483  2.2018  1.8234
13590TIP3   OH262260   5.951   2.368   5.088  0.8634  0.2606  0.3466
13590TIP3    H162261   6.028   2.383   5.032  0.8804 -0.1821  0.2495
13590TIP3    H262262   5.880   2.354   5.026  0.3544  2.3003  0.4174
13591TIP3   OH262263   0.753   0.011  13.520 -0.2193  0.1569  0.4771
13591TIP3    H162264   0.761  -0.017  13.429  0.4891  1.4012  0.1277
13591TIP3    H262265   0.844   0.028  13.547 -0.3748 -0.8288  1.6176
13592TIP3   OH262266   1.373   3.758  12.090 -0.0335  0.5540 -0.6361
13592TIP3    H162267   1.394   3.800  12.007 -0.1882 -2.7885 -2.4390
13592TIP3    H262268   1.298   3.808  12.124  2.2065  4.1389 -0.6990
13593TIP3   OH262269   3.831   1.882  15.506  0.4116  0.2784  0.3017
13593TIP3    H162270   3.922   1.863  15.483  0.1302 -3.0007  1.5891
13593TIP3    H262271   3.806   1.811  15.566 -3.4463  0.3103 -1.1332
13594TIP3   OH262272   2.912   5.757  15.243 -0.0660  0.0348 -0.2918
13594TIP3    H162273   2.911   5.850  15.220 -1.4404  1.2364  4.1111
13594TIP3    H262274   2.996   5.743  15.286 -0.3482 -0.4661  0.1085
13595TIP3   OH262275   5.573   2.555   2.423  0.3041  0.0438 -0.5909
13595TIP3    H162276   5.630   2.628   2.400 -0.1184  0.6113  0.1083
13595TIP3    H262277   5.555   2.568   2.516  2.1266 -2.2834  0.1116
13596TIP3   OH262278   0.804   2.261  12.117  0.1122 -0.0469  0.2144
13596TIP3    H162279   0.876   2.241  12.057  0.3144 -0.3544  0.5542
13596TIP3    H262280   0.767   2.343  12.084  0.4479 -0.0304 -0.1216
13597TIP3   OH262281   6.107   2.116   4.165  0.0903 -0.2611  0.7436
13597TIP3    H162282   6.135   2.032   4.127  1.1462  0.2065  0.4793
13597TIP3    H262283   6.052   2.155   4.098  2.1065  0.6524 -0.4441
13598TIP3   OH262284   5.723   1.882  12.186  0.3691  0.6196  0.1288
13598TIP3    H162285   5.663   1.848  12.252 -0.9750  2.0407 -0.3285
13598TIP3    H262286   5.686   1.967  12.162  2.1042  1.1399 -0.7826
13599TIP3   OH262287   4.086   5.687  11.845 -0.1083 -0.3331  0.1385
13599TIP3    H162288   4.174   5.652  11.832 -0.2169 -0.6133  0.1551
13599TIP3    H262289   4.069   5.674  11.939 -0.5492 -1.1820 -0.0513
13600TIP3   OH262290   6.577   1.182  17.221  0.2844  0.3663  0.2255
13600TIP3    H162291   6.524   1.235  17.162 -1.1231 -0.4835  0.7194
13600TIP3    H262292   6.647   1.241  17.250 -0.7715  1.6851  0.1121
13601TIP3   OH262293   3.625   1.906   1.912 -1.0619  0.8814  0.0136
13601TIP3    H162294   3.672   1.830   1.948 -2.0046 -0.2063 -0.9736
13601TIP3    H262295   3.573   1.939   1.985  0.5332  1.5443  0.8718
13602TIP3   OH262296   5.451   5.498   4.588 -0.4789  0.1726 -0.1268
13602TIP3    H162297   5.433   5.459   4.503 -1.1975  0.9591 -0.3350
13602TIP3    H262298   5.384   5.565   4.600  0.0291  0.5488  0.7526
13603TIP3   OH262299   5.421   1.001   4.775  0.2613 -0.2815  0.2944
13603TIP3    H162300   5.449   1.082   4.731 -1.9554  0.4586  0.1911
13603TIP3    H262301   5.344   0.973   4.727  0.6370 -2.1344  0.7419
13604TIP3   OH262302   5.843   1.700  16.726 -0.3921 -0.8765 -0.1455
13604TIP3    H162303   5.897   1.675  16.801  0.1516  0.0787 -0.1979
13604TIP3    H262304   5.793   1.622  16.704  1.0388 -1.8116 -0.1407
13605TIP3   OH262305   6.324   2.689  10.821  0.9881 -0.0980 -0.0580
13605TIP3    H162306   6.417   2.678  10.804  1.1661  0.3187  0.6170
13605TIP3    H262307   6.307   2.782  10.804  0.4841 -0.3873 -1.1648
13606TIP3   OH262308   2.280   4.584  14.003  0.1377  0.3121 -0.3850
13606TIP3    H162309   2.275   4.532  14.083 -2.7051 -1.7660 -1.8335
13606TIP3    H262310   2.219   4.656  14.017  0.9544  0.9405 -0.0167
13607TIP3   OH262311   5.364   3.591   0.859 -0.2339  0.7110  0.3949
13607TIP3    H162312   5.435   3.649   0.886  0.2814 -0.3474  1.3431
13607TIP3    H262313   5.370   3.589   0.764  0.4557  1.3294  0.4204
13608TIP3   OH262314   1.490   5.375   1.775  0.6105  0.1993 -0.4813
13608TIP3    H162315   1.416   5.377   1.835 -0.9707  2.9438 -2.4310
13608TIP3    H262316   1.457   5.331   1.697  1.4189  0.3177 -0.9041
13609TIP3   OH262317   1.363   4.109  16.207  0.3683  0.0677 -0.0436
13609TIP3    H162318   1.459   4.111  16.214  0.3076 -0.0781  0.9302
13609TIP3    H262319   1.333   4.121  16.297 -0.5253 -0.6298 -0.2471
13610TIP3   OH262320   4.036   2.689  14.360  0.0614  0.1009 -0.0105
13610TIP3    H162321   4.127   2.715  14.377 -0.0920  0.7538 -0.1724
13610TIP3    H262322   4.016   2.624  14.428 -0.3672  2.2828  1.9998
13611TIP3   OH262323   2.356   5.717   2.182 -0.0788 -0.0199 -0.3796
13611TIP3    H162324   2.303   5.646   2.145 -0.4546  0.3708 -0.5979
13611TIP3    H262325   2.441   5.708   2.139 -1.0357  1.4765 -2.6229
13612TIP3   OH262326   4.542   0.694   0.177 -0.0948 -0.1859 -0.0327
13612TIP3    H162327   4.577   0.677   0.090 -0.3422  0.2265 -0.2121
13612TIP3    H262328   4.487   0.771   0.167 -0.9729 -0.7515  0.2688
13613TIP3   OH262329   0.113   3.172   1.862  0.4845 -0.4684 -0.3684
13613TIP3    H162330   0.135   3.099   1.920 -1.1775 -1.1229 -0.5305
13613TIP3    H262331   0.079   3.240   1.921  0.5080 -0.4508 -0.3751
13614TIP3   OH262332   5.662   4.469   4.226  0.1901 -0.2623  0.4963
13614TIP3    H162333   5.728   4.464   4.156 -0.7811  1.1117 -0.5515
13614TIP3    H262334   5.685   4.548   4.275  0.0017 -0.4175  0.8371
13615TIP3   OH262335   2.630   1.874   3.902 -0.0075  0.3488  0.2197
13615TIP3    H162336   2.697   1.817   3.939 -0.1214  0.0378 -0.0601
13615TIP3    H262337   2.562   1.876   3.969  0.4254  0.9375  0.6565
13616TIP3   OH262338   1.119   2.641   1.501  0.3154 -0.2543  0.3864
13616TIP3    H162339   1.197   2.679   1.541 -0.7217  0.7142  1.5008
13616TIP3    H262340   1.148   2.618   1.412  1.8498  0.1311  0.7603
13617TIP3   OH262341   0.516   6.709  15.274  0.7196 -0.0313  0.1324
13617TIP3    H162342   0.583   6.776  15.289  0.5704  0.0206  0.5684
13617TIP3    H262343   0.448   6.754  15.223  1.6040 -0.4302 -1.4382
13618TIP3   OH262344   3.234   0.447   3.595 -0.4566  0.4201  0.0753
13618TIP3    H162345   3.325   0.419   3.604  0.0440  1.6453 -1.0188
13618TIP3    H262346   3.199   0.391   3.525 -0.2358  0.6730 -0.2388
13619TIP3   OH262347   5.556   4.494  13.431 -0.6351  0.0360  0.1771
13619TIP3    H162348   5.586   4.422  13.375 -1.5031 -1.1783  1.2338
13619TIP3    H262349   5.594   4.572  13.392  2.5489 -1.2712  0.5482
13620TIP3   OH262350   5.604   0.957   2.763 -0.5220  0.1706 -0.3505
13620TIP3    H162351   5.602   0.987   2.672 -3.3530 -0.5691 -0.5814
13620TIP3    H262352   5.598   0.862   2.758  2.9959 -0.1762  0.5540
13621TIP3   OH262353   4.283   5.936   1.348 -0.1847  0.0224  0.3243
13621TIP3    H162354   4.215   5.912   1.411 -1.6403  0.2221 -1.1492
13621TIP3    H262355   4.362   5.895   1.382 -1.2911 -1.2921  1.3727
13622TIP3   OH262356   5.502   1.107   5.929 -0.4614  0.5475 -0.0545
13622TIP3    H162357   5.566   1.037   5.942 -2.4583 -1.5942 -1.3669
13622TIP3    H262358   5.536   1.181   5.980  1.7855 -1.3036  1.2078
13623TIP3   OH262359   1.856   5.795   1.696 -0.3956 -0.4262  0.1128
13623TIP3    H162360   1.878   5.703   1.703 -0.5627 -0.5580 -0.9905
13623TIP3    H262361   1.829   5.807   1.605  0.4770  0.8892  0.0045
13624TIP3   OH262362   5.739   5.146  10.753  0.2259  0.3297 -0.4358
13624TIP3    H162363   5.684   5.068  10.762 -1.2032  1.3530 -0.0544
13624TIP3    H262364   5.694   5.199  10.688  0.8978  1.0829 -0.2965
13625TIP3   OH262365   5.607   3.395   1.173 -0.4583  0.0674  0.2679
13625TIP3    H162366   5.583   3.303   1.183 -0.3759  0.0315  0.1350
13625TIP3    H262367   5.529   3.443   1.202  0.1091 -0.0066  1.9846
13626TIP3   OH262368   3.569   1.489  15.883 -0.2967  0.0012 -0.3272
13626TIP3    H162369   3.643   1.489  15.944 -0.2356  1.9935 -0.3533
13626TIP3    H262370   3.557   1.581  15.860 -2.1756 -0.4003 -1.0851
13627TIP3   OH262371   4.411   6.417  11.596 -0.1341  0.0290  0.4082
13627TIP3    H162372   4.404   6.402  11.690 -0.2426 -0.6827  0.2884
13627TIP3    H262373   4.323   6.400  11.563 -0.2228  0.7699  0.2383
13628TIP3   OH262374   4.713   1.175   3.913  0.0603 -0.7078 -0.0325
13628TIP3    H162375   4.629   1.194   3.872  0.4891  0.4619 -0.3785
13628TIP3    H262376   4.691   1.154   4.004 -0.6902 -1.3423 -0.3506
13629TIP3   OH262377   0.975   4.204  12.904 -0.0262 -0.5325  0.1652
13629TIP3    H162378   1.001   4.263  12.974  0.1219 -1.8591  1.2309
13629TIP3    H262379   0.954   4.121  12.947 -1.6654 -0.8485 -1.1434
13630TIP3   OH262380   1.187   4.569  13.486 -0.4175  0.1795 -0.0714
13630TIP3    H162381   1.195   4.474  13.488 -1.2223  0.1152  0.2779
13630TIP3    H262382   1.154   4.593  13.573  0.9215  0.8873  0.2558
13631TIP3   OH262383   1.172   5.734  13.764 -0.3870 -0.3947  0.2118
13631TIP3    H162384   1.092   5.786  13.775 -0.6688 -0.3230 -1.8865
13631TIP3    H262385   1.145   5.644  13.785 -0.7910 -0.2228  0.4332
13632TIP3   OH262386   2.866   5.676   1.004  0.2555 -0.1571 -0.1546
13632TIP3    H162387   2.864   5.751   1.063 -2.2441  0.6082 -1.1538
13632TIP3    H262388   2.839   5.602   1.059 -0.0305  0.1756  0.1554
13633TIP3   OH262389   1.934   5.078   0.087  0.3866 -0.3026 -0.6131
13633TIP3    H162390   1.870   5.007   0.100  0.8144 -0.8428 -1.3790
13633TIP3    H262391   1.895   5.132   0.017 -0.8886  1.3678  1.3361
13634TIP3   OH262392   3.247   4.238  13.686  0.1198 -0.0739 -0.3124
13634TIP3    H162393   3.166   4.286  13.703  0.6610  0.5447  0.5543
13634TIP3    H262394   3.251   4.230  13.590  0.7444  2.8709 -0.5503
13635TIP3   OH262395   1.040   2.739  15.479 -0.2411 -0.1578  0.8336
13635TIP3    H162396   1.073   2.715  15.566 -0.4395  0.0790  0.9752
13635TIP3    H262397   1.055   2.834  15.474  3.2103 -0.7125 -0.8454
13636TIP3   OH262398   6.170   4.820  16.319  0.0911 -0.1766 -0.0935
13636TIP3    H162399   6.229   4.881  16.275  0.3859 -1.4288 -1.4674
13636TIP3    H262400   6.197   4.824  16.411  1.3580  0.3390 -0.4725
13637TIP3   OH262401   2.777   3.610  13.376  0.4266  0.0984 -0.1212
13637TIP3    H162402   2.735   3.528  13.404 -0.3157  0.3578 -0.4657
13637TIP3    H262403   2.774   3.607  13.281  1.1439  0.1488 -0.1448
13638TIP3   OH262404   2.133   0.154   3.823 -0.2201 -0.1043 -0.4088
13638TIP3    H162405   2.206   0.184   3.878 -1.1311  0.7154  0.3798
13638TIP3    H262406   2.109   0.069   3.860  0.9275 -0.8005 -1.2487
13639TIP3   OH262407   2.853   4.023  15.047 -0.1844  0.3272  0.1137
13639TIP3    H162408   2.792   3.963  15.090  0.9900  0.1426  1.5468
13639TIP3    H262409   2.798   4.074  14.987 -1.5059 -0.8391  0.3066
13640TIP3   OH262410   4.268   0.332  13.600 -0.0716 -0.6646  0.4877
13640TIP3    H162411   4.358   0.314  13.628 -0.0165  0.8427  1.3211
13640TIP3    H262412   4.274   0.341  13.504  0.7383 -0.2002  0.5791
13641TIP3   OH262413   4.132   6.474  14.283 -0.2859  0.1594  0.1519
13641TIP3    H162414   4.069   6.508  14.220  0.4455 -0.0245 -0.6859
13641TIP3    H262415   4.194   6.546  14.297  0.2242 -0.1970 -0.2445
13642TIP3   OH262416   4.619   3.729   1.278 -0.0152  0.7006 -0.1658
13642TIP3    H162417   4.662   3.731   1.363 -0.8688  1.6250  0.2598
13642TIP3    H262418   4.687   3.704   1.217  1.1296  2.1223  0.4932
13643TIP3   OH262419   1.334   3.516   2.895  0.5772  0.4922 -0.7442
13643TIP3    H162420   1.324   3.431   2.854  0.8495  0.3048 -0.4228
13643TIP3    H262421   1.420   3.514   2.936 -0.9550 -0.5261  2.5806
13644TIP3   OH262422   6.204   3.213  10.724  0.1661  0.1474 -0.3879
13644TIP3    H162423   6.117   3.232  10.761  1.2619 -1.5709  3.3409
13644TIP3    H262424   6.264   3.269  10.774  1.5489 -1.1585 -0.5534
13645TIP3   OH262425   3.918   2.569   2.098 -0.2441  0.4112 -0.1578
13645TIP3    H162426   3.950   2.531   2.016 -0.3815  0.2801 -0.1507
13645TIP3    H262427   3.837   2.522   2.116 -0.2480  0.4863  0.0193
13646TIP3   OH262428   2.686   1.630   2.112 -0.3833  0.2078 -0.2705
13646TIP3    H162429   2.745   1.582   2.054 -0.5219 -0.3944  0.0867
13646TIP3    H262430   2.744   1.675   2.174 -0.3036 -0.6323  0.2754
13647TIP3   OH262431   5.092   2.728   0.981 -0.0479 -0.1066  0.3627
13647TIP3    H162432   5.098   2.822   0.995 -2.5586  0.0638  0.4435
13647TIP3    H262433   5.018   2.700   1.034  0.2777 -2.0462 -0.1531
13648TIP3   OH262434   1.515   2.825   0.226  0.3954 -0.2549  0.4499
13648TIP3    H162435   1.521   2.761   0.297  1.3160  0.7311  1.2838
13648TIP3    H262436   1.602   2.864   0.222  0.7017 -1.1160 -2.0170
13649TIP3   OH262437   3.719   2.826   6.558  0.1737 -0.1639 -0.1709
13649TIP3    H162438   3.727   2.749   6.614  1.8750  1.4886  1.9541
13649TIP3    H262439   3.806   2.866   6.559 -0.7553  1.9715 -0.9062
13650TIP3   OH262440   2.133   4.245  11.907 -0.2312 -0.3273  0.1990
13650TIP3    H162441   2.213   4.215  11.863 -0.8464 -1.6597 -0.0262
13650TIP3    H262442   2.125   4.337  11.880  0.5054 -0.5487 -0.8373
13651TIP3   OH262443   2.425   6.815  13.406 -0.0462  0.0784 -0.2010
13651TIP3    H162444   2.509   6.770  13.398  0.1186 -0.4328  3.5319
13651TIP3    H262445   2.360   6.745  13.394  0.1404 -0.1780  0.2452
13652TIP3   OH262446   1.230   6.679  11.685  0.7773  0.3059 -0.6201
13652TIP3    H162447   1.306   6.621  11.677 -0.5860 -1.7377  0.8883
13652TIP3    H262448   1.169   6.647  11.618  0.9634  1.5253 -1.3840
13653TIP3   OH262449   3.994   5.222  10.505  0.9446  0.2585 -0.4982
13653TIP3    H162450   4.007   5.150  10.443 -0.4794  1.1564 -1.8676
13653TIP3    H262451   3.977   5.179  10.589 -1.4417 -1.0550 -1.6075
13654TIP3   OH262452   6.013   4.149   0.663  0.4231 -0.2341  0.0631
13654TIP3    H162453   5.965   4.079   0.620  1.3562 -1.6382  1.2367
13654TIP3    H262454   6.102   4.144   0.627  0.5773  0.1270  0.3812
13655TIP3   OH262455   5.963   5.866   4.328  0.1014 -0.5295  0.7320
13655TIP3    H162456   6.043   5.815   4.326  0.0901 -0.5121 -0.0454
13655TIP3    H262457   5.990   5.955   4.306 -0.5555 -1.0728 -2.4661
13656TIP3   OH262458   4.422   4.674   5.292  0.0015 -0.0546 -0.1212
13656TIP3    H162459   4.369   4.721   5.356  1.0441  1.0511 -0.0496
13656TIP3    H262460   4.475   4.614   5.344 -0.0808 -0.0691 -0.0544
13657TIP3   OH262461   2.610   4.197   1.118 -0.3262 -0.1637  0.1996
13657TIP3    H162462   2.655   4.269   1.163  1.2571 -0.3879 -0.9762
13657TIP3    H262463   2.611   4.125   1.181 -2.2000  0.9220  1.4999
13658TIP3   OH262464   2.986   1.143   0.910  0.0702 -0.8839 -0.2738
13658TIP3    H162465   2.989   1.120   0.817 -1.3239 -0.6722 -0.3768
13658TIP3    H262466   2.994   1.059   0.955  0.5159 -1.0106 -0.5776
13659TIP3   OH262467   4.849   5.322  11.785  0.0516 -0.3667  0.5859
13659TIP3    H162468   4.830   5.416  11.785  0.3542 -0.2993  1.8624
13659TIP3    H262469   4.924   5.313  11.845  0.4354 -1.3388 -0.0294
13660TIP3   OH262470   4.658   2.072  16.727 -0.3561 -0.3502  0.0251
13660TIP3    H162471   4.639   2.046  16.637  0.2974 -2.6271  0.5033
13660TIP3    H262472   4.739   2.123  16.722  0.3465 -1.4949 -0.5708
13661TIP3   OH262473   6.770   2.787  13.295  0.2273  0.1786  0.1240
13661TIP3    H162474   6.759   2.724  13.366 -0.2114 -1.4461 -1.3354
13661TIP3    H262475   6.860   2.818  13.303  0.7594 -1.3846  0.2724
13662TIP3   OH262476   4.145   1.700   0.733 -0.2174  0.2450  0.7538
13662TIP3    H162477   4.117   1.790   0.747  0.3732  0.8169 -1.5721
13662TIP3    H262478   4.239   1.701   0.750 -0.4184 -0.2331  1.9779
13663TIP3   OH262479   6.452   4.074   0.704 -0.0804  0.3472  0.8482
13663TIP3    H162480   6.469   4.033   0.788  2.2993  2.5641  1.4925
13663TIP3    H262481   6.421   4.162   0.725  1.1497  1.1546 -0.5793
13664TIP3   OH262482   0.773   5.567  15.483 -0.4109  0.6874  0.4176
13664TIP3    H162483   0.799   5.633  15.547 -0.4818  1.4378 -0.3201
13664TIP3    H262484   0.854   5.522  15.459 -0.1198  1.5671 -0.2585
13665TIP3   OH262485   1.782   5.131  14.026  0.6168 -1.2445  0.4560
13665TIP3    H162486   1.814   5.208  14.074  0.7471 -0.1692 -1.3124
13665TIP3    H262487   1.861   5.089  13.993  0.4356 -0.8026 -0.5668
13666TIP3   OH262488   5.410   4.927  13.515 -0.1805 -0.1144 -0.3364
13666TIP3    H162489   5.468   4.980  13.461  1.3149  0.3033  1.5991
13666TIP3    H262490   5.373   4.988  13.579 -0.4207 -0.9274  0.3235
13667TIP3   OH262491   2.706   0.760   2.306 -0.5664 -0.5428  0.3883
13667TIP3    H162492   2.705   0.694   2.237  0.7265 -1.4498  1.2067
13667TIP3    H262493   2.651   0.831   2.273  1.4744 -0.1522 -2.3368
13668TIP3   OH262494   6.148   0.152  11.895 -0.2489 -0.2062  0.4371
13668TIP3    H162495   6.213   0.085  11.916 -0.0384  0.3118  1.4643
13668TIP3    H262496   6.107   0.173  11.979  0.6784  1.9796  0.3815
13669TIP3   OH262497   3.531   6.345  15.197  0.0558 -0.1908 -0.2493
13669TIP3    H162498   3.493   6.400  15.130  0.8180  1.2087  0.4481
13669TIP3    H262499   3.456   6.302  15.239 -0.7285  1.9778  0.6285
13670TIP3   OH262500   5.782   2.706   4.235 -0.3515 -0.2965 -0.7396
13670TIP3    H162501   5.801   2.639   4.169  3.9901  0.9776 -0.9306
13670TIP3    H262502   5.800   2.663   4.319 -0.6325 -0.2996 -0.6798
13671TIP3   OH262503   4.671   2.479  12.786  0.2554  0.0527  0.1411
13671TIP3    H162504   4.672   2.422  12.863  1.7361 -0.0725  0.0321
13671TIP3    H262505   4.627   2.428  12.718 -0.1974 -0.1949  0.6142
13672TIP3   OH262506   1.506   5.999  17.096 -0.0521  0.0327 -0.1691
13672TIP3    H162507   1.445   6.019  17.026 -1.6643 -0.4210  1.0826
13672TIP3    H262508   1.504   6.076  17.152  0.4178 -0.0456 -0.0413
13673TIP3   OH262509   4.961   3.616  12.149 -0.6380 -0.4992  0.4799
13673TIP3    H162510   5.035   3.585  12.095 -2.5877 -1.3718 -1.7903
13673TIP3    H262511   4.887   3.563  12.120 -2.4047  1.0751  2.0009
13674TIP3   OH262512   2.428   1.361   4.724 -0.3613 -0.1680 -0.2398
13674TIP3    H162513   2.477   1.316   4.793 -1.0189  1.7514  1.5443
13674TIP3    H262514   2.488   1.363   4.650  1.2671 -0.2506  1.0406
13675TIP3   OH262515   1.942   1.710  15.050 -0.1718  0.3542  0.0545
13675TIP3    H162516   2.023   1.668  15.080 -0.1958 -0.3615 -0.8598
13675TIP3    H262517   1.970   1.784  14.997 -0.0738 -1.0202 -1.8687
13676TIP3   OH262518   2.625   2.685   5.577 -0.3242 -0.1093  0.0357
13676TIP3    H162519   2.614   2.628   5.501 -1.5127  1.2980 -0.8564
13676TIP3    H262520   2.569   2.646   5.644  1.4958 -1.9267  0.5452
13677TIP3   OH262521   0.905   6.753  15.193  0.6030 -0.1355 -0.0730
13677TIP3    H162522   0.881   6.842  15.165 -0.4219 -0.9721 -1.9154
13677TIP3    H262523   0.909   6.759  15.289 -1.0791  1.5065 -0.0619
13678TIP3   OH262524   1.569   0.827   4.515  0.2296 -0.1007  0.3279
13678TIP3    H162525   1.548   0.878   4.593 -1.7271  1.0172 -0.8797
13678TIP3    H262526   1.566   0.736   4.544 -0.6593  0.2945  1.5117
13679TIP3   OH262527   3.570   0.537  15.736  0.4781  0.3127 -0.1626
13679TIP3    H162528   3.601   0.450  15.763 -0.7132 -0.3686 -0.9237
13679TIP3    H262529   3.547   0.581  15.818 -0.5824 -0.7550  0.1331
13680TIP3   OH262530   3.369   3.635   4.035 -0.5008 -0.1614 -0.6151
13680TIP3    H162531   3.444   3.683   4.000 -2.0942  1.0776 -2.4387
13680TIP3    H262532   3.395   3.613   4.125  2.7250 -1.3027 -1.7488
13681TIP3   OH262533   1.557   5.817   3.348  0.5170  0.0325 -0.2605
13681TIP3    H162534   1.476   5.869   3.344  0.5436  0.0136 -1.0775
13681TIP3    H262535   1.604   5.853   3.424  0.4104  1.0219 -0.6522
13682TIP3   OH262536   4.122   1.288   0.663 -0.1974 -0.7881  0.0953
13682TIP3    H162537   4.056   1.355   0.647  0.0355 -0.7862 -0.9194
13682TIP3    H262538   4.147   1.257   0.576  0.7877 -1.1278  0.4813
13683TIP3   OH262539   2.233   4.908   3.343 -0.8503  0.0134  0.1157
13683TIP3    H162540   2.316   4.948   3.368 -0.8773  0.4942 -0.5229
13683TIP3    H262541   2.183   4.980   3.304 -1.0931 -0.5286 -0.5963
13684TIP3   OH262542   3.470   3.652  13.417 -0.4053 -0.3490  0.0251
13684TIP3    H162543   3.566   3.645  13.410 -0.2686  1.0605  0.2409
13684TIP3    H262544   3.446   3.585  13.481  0.2849 -1.6346 -1.0514
13685TIP3   OH262545   2.681   5.619   5.372  0.0133  0.5661  0.0714
13685TIP3    H162546   2.667   5.713   5.379  0.5453  0.7235 -0.8756
13685TIP3    H262547   2.709   5.591   5.459  0.2407  1.3438  0.2460
13686TIP3   OH262548   0.671   4.714   5.817 -0.0362  0.3180 -0.6273
13686TIP3    H162549   0.726   4.709   5.896 -0.1719  1.1878 -0.4688
13686TIP3    H262550   0.593   4.761   5.846 -0.3814  0.0503 -1.1231
13687TIP3   OH262551   2.119   3.910  15.983 -0.3333 -0.3933  0.3408
13687TIP3    H162552   2.061   3.950  15.919  0.6672  1.6852  0.6664
13687TIP3    H262553   2.206   3.944  15.961 -0.0930  1.2338  3.3739
13688TIP3   OH262554   5.334   4.680  12.961 -0.4063  0.1148 -0.3268
13688TIP3    H162555   5.257   4.626  12.942 -0.8655  0.8769 -0.6730
13688TIP3    H262556   5.301   4.770  12.957  0.5060  0.4432 -0.4550
13689TIP3   OH262557   5.736   0.619  13.856 -0.6760  0.3989 -0.3837
13689TIP3    H162558   5.810   0.587  13.908 -1.9687 -0.5126  0.9395
13689TIP3    H262559   5.700   0.691  13.907 -0.6094  0.9569 -1.1166
13690TIP3   OH262560   5.158   1.023  17.226 -0.3226  0.3007 -0.2277
13690TIP3    H162561   5.243   1.020  17.271  0.3444  2.1493 -1.2976
13690TIP3    H262562   5.169   0.969  17.148 -1.0728 -1.8423  1.1090
13691TIP3   OH262563   4.832   5.326   0.948  0.3303 -0.3175  0.3711
13691TIP3    H162564   4.856   5.325   0.855  3.1899  0.0370  1.0429
13691TIP3    H262565   4.910   5.360   0.992 -0.6913 -1.2562  3.0007
13692TIP3   OH262566   6.176   1.910  15.258  0.1589  0.5990 -0.1409
13692TIP3    H162567   6.219   1.847  15.201  0.8660 -0.4645  1.5416
13692TIP3    H262568   6.144   1.858  15.332 -0.5238  1.9901  0.5636
13693TIP3   OH262569   6.469   3.056   3.861  0.1941 -0.2359 -0.1685
13693TIP3    H162570   6.467   3.137   3.811  3.6828  0.9222  1.4271
13693TIP3    H262571   6.417   3.074   3.939  0.7891  0.3802  0.0812
13694TIP3   OH262572   5.432   5.905   5.142 -0.3266 -0.6837 -0.3143
13694TIP3    H162573   5.462   5.816   5.160 -0.6397 -0.4555  1.3757
13694TIP3    H262574   5.338   5.896   5.125 -0.2338 -0.7560 -0.8008
13695TIP3   OH262575   1.686   2.654  14.434 -0.2711  0.3399 -0.5164
13695TIP3    H162576   1.666   2.714  14.507  1.8318 -0.5237  0.8161
13695TIP3    H262577   1.765   2.691  14.394  0.0235 -0.5567 -0.7730
13696TIP3   OH262578   4.922   6.696  13.517 -0.2216 -0.6755  0.2078
13696TIP3    H162579   4.851   6.760  13.526  0.3237  0.1261 -0.9796
13696TIP3    H262580   4.889   6.617  13.561 -2.2493 -0.6233 -1.1198
13697TIP3   OH262581   0.901   1.107  14.588 -0.2932  0.1969  0.3872
13697TIP3    H162582   0.812   1.135  14.568  0.3503  1.1226 -1.3394
13697TIP3    H262583   0.943   1.185  14.625 -0.0708 -0.0960  0.7532
13698TIP3   OH262584   3.635   3.073  17.232 -0.3542 -0.1690 -0.2140
13698TIP3    H162585   3.675   3.151  17.193  2.7325 -1.5045  0.0846
13698TIP3    H262586   3.666   3.074  17.323 -2.6240 -0.2484  0.5832
13699TIP3   OH262587   3.767   0.180   2.293 -0.2454 -0.1009 -0.0790
13699TIP3    H162588   3.705   0.126   2.244 -0.1932 -0.7715  0.5890
13699TIP3    H262589   3.839   0.121   2.315  0.2846  0.4910 -0.1987
13700TIP3   OH262590   2.774   4.856  11.800  0.0184  0.1346 -0.2417
13700TIP3    H162591   2.846   4.799  11.827  0.0773 -0.4614 -1.6109
13700TIP3    H262592   2.798   4.942  11.833  0.7865 -0.2865  0.3266
13701TIP3   OH262593   3.649   6.555   2.653 -0.0441 -0.4297 -0.1562
13701TIP3    H162594   3.627   6.529   2.743 -0.7536  1.9467  0.3709
13701TIP3    H262595   3.737   6.592   2.661 -0.3635  0.3713 -0.3175
13702TIP3   OH262596   1.694   2.256  13.220 -0.0759 -0.4613  0.0192
13702TIP3    H162597   1.652   2.243  13.305  0.6359 -0.4095  0.3796
13702TIP3    H262598   1.760   2.187  13.215 -0.2798 -0.6230 -0.6055
13703TIP3   OH262599   1.479   5.855  13.119 -0.0587 -0.0781  0.2344
13703TIP3    H162600   1.553   5.841  13.060 -0.8197  0.5927 -0.8832
13703TIP3    H262601   1.447   5.943  13.097 -2.8436 -1.3889 -1.1259
13704TIP3   OH262602   1.308   5.398  16.302  0.1275  0.0704 -0.1815
13704TIP3    H162603   1.315   5.304  16.286 -0.0225  0.2352 -1.2592
13704TIP3    H262604   1.214   5.417  16.293  0.4074  0.6844 -2.1786
13705TIP3   OH262605   3.349   3.741  13.133 -0.2022  0.6380 -0.3312
13705TIP3    H162606   3.373   3.684  13.206 -2.0868  2.3701  1.6886
13705TIP3    H262607   3.433   3.769  13.096  0.7515 -1.6111  0.0717
13706TIP3   OH262608   5.846   3.405  17.253  0.2911  0.2448  1.0099
13706TIP3    H162609   5.873   3.361  17.172 -0.0254  1.3289  0.3044
13706TIP3    H262610   5.804   3.486  17.223  1.0204  1.1155  2.2978
13707TIP3   OH262611   0.932   3.463  10.658 -0.0508  0.1483 -0.1280
13707TIP3    H162612   0.837   3.473  10.654 -0.2151 -0.6991  1.1225
13707TIP3    H262613   0.957   3.432  10.571 -0.8607  0.8661 -0.6159
13708TIP3   OH262614   2.754   6.229  13.413  0.8145 -1.0213 -0.0694
13708TIP3    H162615   2.830   6.170  13.408  0.5774 -1.4828  1.6317
13708TIP3    H262616   2.679   6.171  13.409  0.5768 -0.8214  1.3084
13709TIP3   OH262617   6.133   0.098  14.409 -0.5544  0.0219  0.0294
13709TIP3    H162618   6.199   0.067  14.347  0.6694  1.4466  0.5881
13709TIP3    H262619   6.150   0.048  14.489  0.8072  1.4120  0.6313
13710TIP3   OH262620   2.303   6.174  12.818  0.0372  0.5185  0.1664
13710TIP3    H162621   2.280   6.096  12.767 -1.2140  2.5078 -2.4777
13710TIP3    H262622   2.264   6.160  12.904 -2.4659 -0.6439 -1.1078
13711TIP3   OH262623   5.910   4.054  11.043  0.4958  0.3310  0.2032
13711TIP3    H162624   5.841   4.109  11.005  0.3572  0.9670  1.3261
13711TIP3    H262625   5.978   4.116  11.068 -0.1688  0.1736  2.5835
13712TIP3   OH262626   2.601   1.525  11.636  0.4964 -0.4094 -0.6194
13712TIP3    H162627   2.529   1.488  11.688  1.3225 -2.2593 -0.7522
13712TIP3    H262628   2.558   1.553  11.554 -0.8304  2.6707  1.0271
13713TIP3   OH262629   4.444   6.770  17.027  0.1631  0.1074 -0.2869
13713TIP3    H162630   4.418   6.824  17.101 -2.0839  0.3682 -1.2267
13713TIP3    H262631   4.417   6.681  17.051 -1.3395  0.3267 -1.1370
13714TIP3   OH262632   4.336   3.677   2.474 -0.4138  0.4495  0.0154
13714TIP3    H162633   4.325   3.640   2.561 -1.5244  1.7240  0.4322
13714TIP3    H262634   4.421   3.721   2.476 -0.4235  0.4488  0.4392
13715TIP3   OH262635   2.795   1.784  12.114  0.1011  0.2481  0.2065
13715TIP3    H162636   2.851   1.706  12.119  1.2897  0.9998 -1.1584
13715TIP3    H262637   2.786   1.812  12.205  2.2091  0.2872  0.4213
13716TIP3   OH262638   1.463   2.359  16.835 -0.7803 -0.1044  0.5298
13716TIP3    H162639   1.448   2.416  16.760  0.8481 -1.5002 -0.9139
13716TIP3    H262640   1.378   2.318  16.852 -0.8548 -0.8566 -1.5015
13717TIP3   OH262641   2.744   0.185  16.976  0.3350  0.1187 -0.4762
13717TIP3    H162642   2.758   0.096  17.007 -0.7115  0.0489 -0.1668
13717TIP3    H262643   2.774   0.184  16.885 -0.4188 -0.7758 -0.7287
13718TIP3   OH262644   4.958   5.140  16.748 -0.2937 -0.0484 -0.5439
13718TIP3    H162645   4.879   5.128  16.801 -0.0415 -0.3256 -0.2224
13718TIP3    H262646   4.947   5.226  16.708 -0.2431  0.4129  0.3999
13719TIP3   OH262647   2.024   1.811   6.827  0.6358  0.4080 -0.0145
13719TIP3    H162648   2.000   1.744   6.764  0.3585  0.9123 -0.4478
13719TIP3    H262649   1.942   1.833   6.872  0.9938 -0.6015  1.1631
13720TIP3   OH262650   4.649   0.542  12.628  0.3005  0.0790  0.3217
13720TIP3    H162651   4.725   0.487  12.648 -0.5557 -1.0005  0.7020
13720TIP3    H262652   4.608   0.556  12.714  0.2443  0.9010  0.1564
13721TIP3   OH262653   3.151   5.437   1.336 -0.7934  0.4005 -0.1062
13721TIP3    H162654   3.137   5.525   1.373  1.8834  1.8034 -2.2392
13721TIP3    H262655   3.100   5.437   1.255  1.5919  1.1116 -1.6386
13722TIP3   OH262656   5.956   5.270  14.232  0.9324  0.4633 -0.3886
13722TIP3    H162657   5.920   5.311  14.153  1.8117  2.1342  0.0632
13722TIP3    H262658   5.880   5.260  14.290  0.4398  0.0259 -1.0955
13723TIP3   OH262659   5.883   4.499  16.019  0.1128 -0.0986 -0.3854
13723TIP3    H162660   5.949   4.522  16.084  1.0959 -3.0150 -0.2992
13723TIP3    H262661   5.886   4.571  15.956  0.5610  1.7633  1.6825
13724TIP3   OH262662   5.467   1.449   4.933  0.4285 -0.2024  0.6416
13724TIP3    H162663   5.462   1.377   4.871  1.0479  0.2798  0.0228
13724TIP3    H262664   5.556   1.444   4.969  0.2348 -0.1838  1.1196
13725TIP3   OH262665   3.644   4.355   2.114  0.0524  0.4910  0.0151
13725TIP3    H162666   3.553   4.358   2.144  0.4562  0.5838  1.2611
13725TIP3    H262667   3.681   4.279   2.159 -0.0511 -1.0241 -2.3700
13726TIP3   OH262668   1.000   3.033   0.790 -0.2205 -0.1897 -0.0476
13726TIP3    H162669   1.087   3.070   0.803 -0.0813 -0.1528 -1.0516
13726TIP3    H262670   1.015   2.952   0.740 -0.5737 -1.2891  1.5935
13727TIP3   OH262671   0.073   4.099   1.067 -0.0850 -0.1021 -0.6223
13727TIP3    H162672   0.012   4.144   1.125  0.6079  0.1627 -0.0926
13727TIP3    H262673   0.025   4.021   1.038 -0.8115  0.2978 -0.5250
13728TIP3   OH262674   5.778   1.569   4.485  0.0617  0.3178 -0.4247
13728TIP3    H162675   5.714   1.591   4.553  0.5549  0.9040 -0.1441
13728TIP3    H262676   5.821   1.490   4.516 -0.5589 -0.1083 -0.6393
13729TIP3   OH262677   1.594   5.288   5.823 -0.1682  0.1703 -0.5343
13729TIP3    H162678   1.619   5.380   5.829 -1.8639  0.6109  0.2475
13729TIP3    H262679   1.587   5.271   5.730 -2.4659  1.6302 -0.6934
13730TIP3   OH262680   1.958   0.728  12.664  0.5736 -0.3113  0.8226
13730TIP3    H162681   1.977   0.713  12.757  0.0977  1.0380  1.1455
13730TIP3    H262682   1.965   0.641  12.624  1.1043 -0.8523  2.0581
13731TIP3   OH262683   2.112   2.711  11.672 -0.1156 -0.1220 -0.3852
13731TIP3    H162684   2.184   2.664  11.630 -0.9102 -1.1599 -0.6231
13731TIP3    H262685   2.107   2.794  11.626  1.6499  0.4124  0.3868
13732TIP3   OH262686   3.662   2.118   2.161  0.7479 -0.0795  0.0175
13732TIP3    H162687   3.641   2.204   2.125  0.6859 -0.3134 -0.5177
13732TIP3    H262688   3.747   2.129   2.203 -0.3709  0.8446  2.0942
13733TIP3   OH262689   1.729   4.932  11.357 -0.0150 -0.3545  0.0192
13733TIP3    H162690   1.818   4.907  11.332 -0.3995  1.3464 -3.4231
13733TIP3    H262691   1.672   4.880  11.299 -1.2383 -0.8838  1.6668
13734TIP3   OH262692   4.272   0.566   2.451  0.4029  0.3608  0.1952
13734TIP3    H162693   4.304   0.475   2.453  1.2382  0.6302 -0.4894
13734TIP3    H262694   4.255   0.583   2.358  1.4172  1.2985  0.1763
13735TIP3   OH262695   4.936   2.873   2.301 -0.1839  0.5545  0.3154
13735TIP3    H162696   4.852   2.911   2.328 -0.4720  0.2738 -0.1798
13735TIP3    H262697   4.918   2.779   2.292  0.4141  0.3610  1.1047
13736TIP3   OH262698   2.069   1.842   3.368 -0.5201  0.3455  0.3241
13736TIP3    H162699   2.123   1.891   3.305 -1.0214  0.3664 -0.0960
13736TIP3    H262700   2.094   1.877   3.453 -0.2748  0.7517  0.0879
13737TIP3   OH262701   3.045   4.177  13.006 -0.2395  0.5330  0.0129
13737TIP3    H162702   3.036   4.157  12.913 -0.6443  0.8295 -0.0160
13737TIP3    H262703   2.956   4.198  13.035 -0.0469  0.9009  0.3546
13738TIP3   OH262704   2.801   4.457   3.440 -0.1106 -0.0466  0.6885
13738TIP3    H162705   2.796   4.550   3.415 -0.1009  0.4707  2.4990
13738TIP3    H262706   2.890   4.445   3.472  0.1775 -0.9291 -0.4329
13739TIP3   OH262707   2.435   6.735   2.269  0.3723  0.4784 -0.4586
13739TIP3    H162708   2.488   6.811   2.295  0.5302  0.1219  0.2836
13739TIP3    H262709   2.435   6.737   2.173 -0.1132  1.7587 -0.4446
13740TIP3   OH262710   5.269   5.036  13.297 -0.1353  0.1054 -0.2291
13740TIP3    H162711   5.242   4.945  13.287 -0.4800  0.2518 -0.6707
13740TIP3    H262712   5.310   5.040  13.383 -0.6639 -0.3351  0.0466
13741TIP3   OH262713   5.083   4.409  16.419 -0.0101  0.2719 -0.6648
13741TIP3    H162714   5.010   4.461  16.384  0.1597  1.0652  0.1478
13741TIP3    H262715   5.143   4.473  16.456  1.2531 -0.3584 -1.5757
13742TIP3   OH262716   2.912   0.579   4.280 -0.6541  0.5028  0.6291
13742TIP3    H162717   2.857   0.544   4.210  0.7978 -0.6710  0.0402
13742TIP3    H262718   2.895   0.673   4.279 -0.6189  0.5129 -1.3400
13743TIP3   OH262719   1.466   4.944  15.218  0.6172 -0.1232 -0.2745
13743TIP3    H162720   1.511   4.926  15.300  1.2398 -0.3580 -0.6643
13743TIP3    H262721   1.466   4.861  15.171 -1.1168 -0.3715  0.1472
13744TIP3   OH262722   5.810   1.636  12.132 -0.4695  0.0073  0.1617
13744TIP3    H162723   5.772   1.723  12.122  0.7182  0.5984  0.6200
13744TIP3    H262724   5.898   1.644  12.096  0.8943 -0.0508  3.2517
13745TIP3   OH262725   5.572   2.782   6.290  0.1494  0.2789  0.1083
13745TIP3    H162726   5.578   2.876   6.309 -0.7660  0.1123  1.3052
13745TIP3    H262727   5.566   2.741   6.377 -0.9687 -0.7722 -0.4524
13746TIP3   OH262728   1.545   4.231   5.084 -0.4187  0.1824  0.0790
13746TIP3    H162729   1.466   4.184   5.059 -0.9265  0.9465  0.2367
13746TIP3    H262730   1.516   4.321   5.100  0.2518  0.1614  1.4351
13747TIP3   OH262731   0.712   3.975   1.318  0.1198 -0.1625  0.3569
13747TIP3    H162732   0.793   4.007   1.278  0.0273 -1.2679 -0.7227
13747TIP3    H262733   0.742   3.909   1.382  0.0653 -0.7570 -0.2246
13748TIP3   OH262734   1.783   4.685   5.090 -0.2185  0.5523 -0.0876
13748TIP3    H162735   1.720   4.702   5.160  0.3833 -0.6684  0.7540
13748TIP3    H262736   1.866   4.720   5.124  0.0458  0.0711 -0.2372
13749TIP3   OH262737   5.428   1.408  11.570  0.4410 -0.1739 -0.2100
13749TIP3    H162738   5.349   1.461  11.569 -0.0071 -0.8303 -0.7251
13749TIP3    H262739   5.498   1.468  11.596 -0.6196 -0.1729  2.8126
13750TIP3   OH262740   5.414   0.802   1.493 -0.1151 -0.6812  0.2948
13750TIP3    H162741   5.472   0.798   1.568 -0.4640 -1.5275  0.5228
13750TIP3    H262742   5.342   0.860   1.521 -0.2241 -0.9631  0.5958
13751TIP3   OH262743   5.808   3.328   1.377  0.0359  0.1280  0.2546
13751TIP3    H162744   5.743   3.356   1.313 -0.4069  2.5531  1.7254
13751TIP3    H262745   5.874   3.397   1.377  0.3685 -0.1682  1.9294
13752TIP3   OH262746   2.883   5.934   1.123 -0.0063  0.3944  0.1569
13752TIP3    H162747   2.817   5.975   1.067 -1.2607 -0.8098  0.7080
13752TIP3    H262748   2.944   6.004   1.144 -1.9827  1.9251  0.9188
13753TIP3   OH262749   2.864   3.865  16.972 -0.4139 -0.1088 -0.1376
13753TIP3    H162750   2.784   3.845  16.923  0.3111 -1.8608 -0.6496
13753TIP3    H262751   2.852   3.955  17.002 -2.2099 -0.0656 -0.9222
13754TIP3   OH262752   1.843   4.118  16.080 -0.3527 -0.2007  0.1913
13754TIP3    H162753   1.875   4.122  15.990 -0.7306  1.0691  0.1146
13754TIP3    H262754   1.883   4.038  16.116  1.4782  0.4233 -0.4322
13755TIP3   OH262755   0.878   4.379   3.813 -0.8438 -0.1984 -0.4964
13755TIP3    H162756   0.797   4.354   3.767 -0.8386 -0.9157 -0.1312
13755TIP3    H262757   0.848   4.403   3.901 -0.5128 -1.7622  0.0529
13756TIP3   OH262758   1.966   4.212  11.302 -0.8361  0.1385 -0.1269
13756TIP3    H162759   2.061   4.215  11.288 -0.7676 -0.7177  0.1323
13756TIP3    H262760   1.949   4.280  11.366 -0.0767 -1.2608  1.5954
13757TIP3   OH262761   5.538   1.348  16.790  0.0791 -0.0005 -0.0970
13757TIP3    H162762   5.564   1.439  16.801  0.1838  0.2215 -1.9798
13757TIP3    H262763   5.490   1.347  16.708 -0.8479 -1.4618  0.4505
13758TIP3   OH262764   1.953   4.407   4.299 -0.8405 -0.5335 -0.5997
13758TIP3    H162765   2.031   4.409   4.355 -0.8827  0.0400 -0.5537
13758TIP3    H262766   1.984   4.435   4.213 -1.1235  0.3993 -0.4094
13759TIP3   OH262767   4.668   4.113  15.228 -0.1721  0.1523  0.3016
13759TIP3    H162768   4.754   4.130  15.189 -0.5459  0.9106 -0.2017
13759TIP3    H262769   4.687   4.072  15.313  0.6930  1.2463  0.6327
13760TIP3   OH262770   2.436   4.240   4.629 -0.1437 -0.6113 -0.3573
13760TIP3    H162771   2.379   4.212   4.701 -1.5632  0.7495 -0.9216
13760TIP3    H262772   2.474   4.322   4.659 -2.1436  0.9016 -1.8368
13761TIP3   OH262773   5.102   0.901   3.610  0.7254 -0.2827 -0.2164
13761TIP3    H162774   5.010   0.902   3.580  1.3608  0.6564 -2.2389
13761TIP3    H262775   5.143   0.835   3.554  1.8765  1.2637 -1.2151
13762TIP3   OH262776   6.091   1.084   3.621 -0.2347 -0.0376  0.6558
13762TIP3    H162777   6.014   1.131   3.652 -0.4550  0.0078  0.0564
13762TIP3    H262778   6.165   1.127   3.664 -0.5709 -0.2929  1.4838
13763TIP3   OH262779   2.179   4.247   0.360 -0.3310  0.0566  0.2158
13763TIP3    H162780   2.101   4.295   0.388 -0.4436 -0.3170  0.5515
13763TIP3    H262781   2.210   4.203   0.439 -0.3828 -0.6374 -0.1443
13764TIP3   OH262782   5.363   4.462  11.614 -0.1856  0.0655 -0.4562
13764TIP3    H162783   5.387   4.458  11.706 -0.7982 -0.2154 -0.3089
13764TIP3    H262784   5.439   4.427  11.568  0.2954  0.6132 -0.0878
13765TIP3   OH262785   3.959   6.304  11.690  0.2791 -0.2720 -0.2821
13765TIP3    H162786   3.906   6.244  11.743  0.5361  1.5109  2.1047
13765TIP3    H262787   4.048   6.268  11.695  0.0184 -1.0152 -0.8931
13766TIP3   OH262788   0.430   6.244   1.944  0.3122 -0.0908  0.7221
13766TIP3    H162789   0.525   6.232   1.939  0.7328  2.5299  1.4073
13766TIP3    H262790   0.414   6.268   2.036 -0.9282  0.0849  0.4711
13767TIP3   OH262791   4.245   1.403  16.465  0.1965 -0.4261  0.3715
13767TIP3    H162792   4.236   1.438  16.376  0.3592  0.6200  0.7576
13767TIP3    H262793   4.155   1.391  16.495  0.1282  0.3172  0.4774
13768TIP3   OH262794   2.250   4.997   2.999 -0.0352 -0.1507 -0.0450
13768TIP3    H162795   2.344   4.988   3.013  0.2217  0.7470 -1.1385
13768TIP3    H262796   2.210   4.937   3.063  1.3424 -2.7948 -1.5794
13769TIP3   OH262797   5.501   1.498   0.157  0.0036  0.0716 -0.3581
13769TIP3    H162798   5.460   1.553   0.224 -0.5780 -0.3678 -0.3507
13769TIP3    H262799   5.430   1.441   0.126  0.4207 -0.1544 -0.9017
13770TIP3   OH262800   2.356   3.730  16.664  0.2971  0.0161 -0.1528
13770TIP3    H162801   2.440   3.754  16.625 -0.1781  0.2773 -1.0465
13770TIP3    H262802   2.297   3.801  16.639 -0.5934 -0.9882 -0.9933
13771TIP3   OH262803   1.599   0.313   3.295 -0.4150  0.3296 -0.1352
13771TIP3    H162804   1.616   0.244   3.359 -0.6285  0.4283  0.0292
13771TIP3    H262805   1.679   0.318   3.243 -0.7569 -0.7046 -0.7642
13772TIP3   OH262806   1.586   1.276   3.087  0.0640  0.2820 -0.0768
13772TIP3    H162807   1.549   1.362   3.067  0.1378  0.1572 -0.7739
13772TIP3    H262808   1.510   1.217   3.088 -0.0371  0.4183  0.7998
13773TIP3   OH262809   0.747   6.274  14.590  0.0360  0.0585  0.4880
13773TIP3    H162810   0.802   6.352  14.581  0.1049  0.3252  3.0093
13773TIP3    H262811   0.808   6.200  14.585 -0.0397  0.1176 -1.9942
13774TIP3   OH262812   3.656   3.812   6.297 -0.2342  0.3440  0.1228
13774TIP3    H162813   3.633   3.724   6.269  1.1487  0.0363 -0.0485
13774TIP3    H262814   3.596   3.830   6.370 -0.3408 -0.8429  0.3402
13775TIP3   OH262815   1.610   0.202   2.798  0.0096  0.9621  0.5437
13775TIP3    H162816   1.543   0.239   2.854 -0.0732  1.5721  0.0464
13775TIP3    H262817   1.636   0.274   2.741 -0.9680 -0.0465 -1.2076
13776TIP3   OH262818   1.038   3.680  11.854  0.5068  0.4690  0.0276
13776TIP3    H162819   0.986   3.601  11.840  0.3377  0.9895 -2.4495
13776TIP3    H262820   1.129   3.651  11.848  0.4815  0.2025  0.7734
13777TIP3   OH262821   6.189   3.144  14.754  0.2716 -0.3953 -0.6478
13777TIP3    H162822   6.097   3.167  14.771  0.5300  0.2363 -0.1028
13777TIP3    H262823   6.211   3.191  14.673  0.3083 -0.0494 -0.4345
13778TIP3   OH262824   3.306   5.723  14.469  0.4495  0.4575  0.4711
13778TIP3    H162825   3.385   5.699  14.420  0.3091 -0.7447  0.8370
13778TIP3    H262826   3.309   5.819  14.472  3.0214  0.3715  2.2572
13779TIP3   OH262827   3.760   1.525   4.186  0.4693 -0.1620 -0.4452
13779TIP3    H162828   3.744   1.445   4.137  0.7492 -1.4286  1.4729
13779TIP3    H262829   3.827   1.572   4.135  2.6198 -2.6492 -0.0026
13780TIP3   OH262830   2.857   0.113  14.264  0.5834  0.2678 -0.1260
13780TIP3    H162831   2.763   0.128  14.272  0.9109  1.9309  0.7576
13780TIP3    H262832   2.873   0.108  14.170 -0.4068 -0.2421 -0.2755
13781TIP3   OH262833   4.834   0.364  11.487  0.0374  0.1615  0.4058
13781TIP3    H162834   4.794   0.389  11.404  0.0528 -0.2626  0.2701
13781TIP3    H262835   4.807   0.273  11.501 -0.4876  0.4289  1.1799
13782TIP3   OH262836   6.741   2.893   2.329 -0.2202  0.1264  0.0372
13782TIP3    H162837   6.670   2.943   2.369  0.1696 -0.1344  1.0627
13782TIP3    H262838   6.821   2.931   2.366  0.0929 -1.0105  0.5454
13783TIP3   OH262839   2.030   6.339   1.001 -0.2711  0.2397  0.5483
13783TIP3    H162840   1.977   6.270   1.041 -0.5902 -0.1346 -0.5027
13783TIP3    H262841   2.117   6.299   0.991 -0.4943 -0.0789 -0.1988
13784TIP3   OH262842   6.307   1.025  16.443 -0.4350 -0.2507  0.1765
13784TIP3    H162843   6.382   1.085  16.433 -0.3276 -0.4646 -0.3180
13784TIP3    H262844   6.332   0.948  16.392  0.1619 -1.4183  2.1960
13785TIP3   OH262845   4.084   5.127  12.163  0.4749  0.6938  0.2916
13785TIP3    H162846   4.144   5.157  12.094  1.4653  0.7175  1.1649
13785TIP3    H262847   4.123   5.047  12.196 -0.5127  0.1572  0.1805
13786TIP3   OH262848   1.865   0.652   1.142 -0.2056 -0.0571 -0.3314
13786TIP3    H162849   1.938   0.713   1.138 -0.7962  0.7073  0.2967
13786TIP3    H262850   1.872   0.600   1.062  0.9058  0.1405 -0.3693
13787TIP3   OH262851   6.335   3.683  11.907  0.2450  0.9214 -0.2585
13787TIP3    H162852   6.291   3.733  11.976 -0.9686 -0.0200 -0.3342
13787TIP3    H262853   6.289   3.600  11.905  0.1544  1.0064 -2.3493
13788TIP3   OH262854   3.237   0.104   3.172  0.3223 -0.5441  0.0348
13788TIP3    H162855   3.266   0.033   3.115 -0.1754 -0.6343 -0.1085
13788TIP3    H262856   3.161   0.141   3.127  0.8107  0.3279 -0.0844
13789TIP3   OH262857   3.063   4.432  13.672 -0.0274  0.8696  0.2133
13789TIP3    H162858   2.978   4.394  13.696  0.8618 -1.8407 -0.7649
13789TIP3    H262859   3.045   4.485  13.594 -0.9048  0.6471  0.2655
13790TIP3   OH262860   2.198   1.632  15.134  0.4334 -0.2103  0.1603
13790TIP3    H162861   2.155   1.575  15.198 -0.4338 -0.4941 -0.6625
13790TIP3    H262862   2.254   1.689  15.187 -1.1992  0.3740  1.2782
13791TIP3   OH262863   4.615   4.958   5.547 -0.3103  0.1082  0.0200
13791TIP3    H162864   4.560   4.968   5.625  0.9036  0.7960  0.8207
13791TIP3    H262865   4.704   4.974   5.579  0.3271 -0.7320 -1.2911
13792TIP3   OH262866   5.047   5.689  12.458 -0.5069  0.3052 -0.1107
13792TIP3    H162867   5.062   5.780  12.483  1.0075  0.1457 -0.3848
13792TIP3    H262868   5.123   5.666  12.405 -1.2612 -0.8853 -0.7067
13793TIP3   OH262869   2.542   2.737   2.392  0.2021 -0.1414 -0.0546
13793TIP3    H162870   2.617   2.684   2.419 -0.2132 -0.9300 -0.4243
13793TIP3    H262871   2.571   2.781   2.312  1.3047  1.9058  1.4163
13794TIP3   OH262872   6.586   3.954   1.903 -0.4764  0.4544 -0.2061
13794TIP3    H162873   6.579   4.006   1.983 -0.1618  0.0376  0.0953
13794TIP3    H262874   6.576   3.863   1.932  0.5435  0.2369 -0.5081
13795TIP3   OH262875   6.053   1.563  14.353  0.4963  0.1176  0.7763
13795TIP3    H162876   6.062   1.501  14.280  1.6480  0.2215  0.8078
13795TIP3    H262877   6.144   1.586  14.375  0.1677 -0.0681  2.3702
13796TIP3   OH262878   6.543   4.231  16.665 -0.1208 -0.1265 -0.4451
13796TIP3    H162879   6.490   4.287  16.722 -0.1694 -1.9591  1.3522
13796TIP3    H262880   6.557   4.151  16.716  0.1496 -1.6641 -2.8842
13797TIP3   OH262881   3.920   5.524  17.078 -0.3255 -0.1704  0.0849
13797TIP3    H162882   3.841   5.503  17.027  0.2785  0.6521 -1.1824
13797TIP3    H262883   3.937   5.444  17.128 -0.9033 -1.0060 -1.0273
13798TIP3   OH262884   6.513   5.678  16.088  0.6078  0.1421 -0.5999
13798TIP3    H162885   6.550   5.734  16.156 -0.3466  0.6183 -0.4635
13798TIP3    H262886   6.537   5.721  16.006  2.4674 -0.8765 -0.5994
13799TIP3   OH262887   4.280   1.263  14.562  0.2549  0.4067 -0.3568
13799TIP3    H162888   4.345   1.192  14.565 -1.1630 -0.9700 -1.5051
13799TIP3    H262889   4.331   1.340  14.537  1.7013 -0.3361  0.2076
13800TIP3   OH262890   5.349   1.692   5.792 -0.9064  0.3419  0.4987
13800TIP3    H162891   5.254   1.689   5.786 -1.0835  0.6527  2.8018
13800TIP3    H262892   5.368   1.775   5.836  0.3997 -0.0191  0.6321
13801TIP3   OH262893   0.647   6.423  15.305 -0.1859 -0.1419 -0.1491
13801TIP3    H162894   0.666   6.448  15.214 -1.4365  1.0335 -0.1001
13801TIP3    H262895   0.669   6.500  15.356  0.6870 -0.8672  0.5789
13802TIP3   OH262896   6.229   3.865   3.156 -0.3627 -0.2603  0.2821
13802TIP3    H162897   6.270   3.864   3.242 -0.6146 -0.1873  0.4037
13802TIP3    H262898   6.231   3.774   3.127 -0.7424 -0.3651  0.5852
13803TIP3   OH262899   5.925   1.341   2.005  0.0335 -0.1119  0.6593
13803TIP3    H162900   5.933   1.246   2.000 -3.4029 -0.3906 -0.9143
13803TIP3    H262901   5.927   1.370   1.913  2.2403  1.4812  1.1683
13804TIP3   OH262902   3.568   1.753   5.747 -0.0631  0.2499  0.3723
13804TIP3    H162903   3.486   1.709   5.724 -0.0873  0.6754 -0.3815
13804TIP3    H262904   3.541   1.827   5.801 -0.2099  0.6503 -0.2535
13805TIP3   OH262905   0.790   6.242   1.201  0.7513 -0.3519  0.0703
13805TIP3    H162906   0.755   6.180   1.266 -2.2726 -0.3222 -1.4206
13805TIP3    H262907   0.844   6.188   1.143 -1.1203 -1.4940 -0.6688
13806TIP3   OH262908   5.731   4.684  12.020 -0.7703 -0.5095  0.0260
13806TIP3    H162909   5.713   4.609  11.963 -1.4625 -0.6827  0.4624
13806TIP3    H262910   5.644   4.712  12.051 -0.5053  0.3594  0.0075
13807TIP3   OH262911   1.945   6.754   5.908  0.2020 -0.4323 -1.1063
13807TIP3    H162912   1.993   6.673   5.897  0.0057 -0.6496 -0.3794
13807TIP3    H262913   1.855   6.727   5.923  0.2319 -0.1005 -0.3134
13808TIP3   OH262914   0.257   4.730   0.770  0.7228 -0.0153 -0.1730
13808TIP3    H162915   0.215   4.789   0.707  0.5013 -0.8066 -0.7724
13808TIP3    H262916   0.351   4.737   0.751  0.7410  0.4988  0.0779
13809TIP3   OH262917   2.678   3.366  13.475  0.3456 -0.0274 -0.0136
13809TIP3    H162918   2.752   3.348  13.534  0.0861  0.5843  0.5056
13809TIP3    H262919   2.678   3.292  13.414  2.0005  0.4344 -0.6272
13810TIP3   OH262920   4.893   3.560  12.792  0.0345  0.2085  0.4137
13810TIP3    H162921   4.916   3.646  12.757 -0.0455  0.4126  0.8602
13810TIP3    H262922   4.949   3.499  12.744 -2.1913  0.1532 -2.2286
13811TIP3   OH262923   2.446   1.985   1.660 -0.3356 -0.3802 -0.4095
13811TIP3    H162924   2.389   2.059   1.640 -1.4394 -1.3129 -0.7676
13811TIP3    H262925   2.448   1.983   1.756 -3.3105 -2.1225 -0.3351
13812TIP3   OH262926   6.312   6.285   3.555  0.2105  0.3441  0.3815
13812TIP3    H162927   6.292   6.225   3.626  0.3156 -0.8195 -0.5664
13812TIP3    H262928   6.402   6.312   3.571  0.0679  0.4732  0.9694
13813TIP3   OH262929   5.322   2.602   3.155  0.5909 -0.0251  0.0371
13813TIP3    H162930   5.342   2.534   3.091  1.1813  0.6086 -0.4599
13813TIP3    H262931   5.245   2.569   3.202 -0.0368 -0.3585 -1.1980
13814TIP3   OH262932   0.865   5.122  14.061 -0.0362  0.0574  0.1262
13814TIP3    H162933   0.830   5.048  14.011 -2.2751  0.7585  0.5991
13814TIP3    H262934   0.949   5.090  14.096 -1.7327 -2.8539  1.7450
13815TIP3   OH262935   3.675   0.204   6.063 -0.1744 -0.1167  0.2311
13815TIP3    H162936   3.742   0.245   6.118  0.4925  0.6672 -1.1544
13815TIP3    H262937   3.597   0.203   6.118  0.4539  0.7443  1.1630
13816TIP3   OH262938   4.226   1.393   2.044 -0.7176 -0.1714  0.4078
13816TIP3    H162939   4.250   1.343   2.122 -0.0541 -1.0049 -0.3133
13816TIP3    H262940   4.281   1.472   2.049  0.8299 -1.1705 -0.2427
13817TIP3   OH262941   1.846   1.979   4.029  0.4120 -0.3951  0.1780
13817TIP3    H162942   1.855   1.911   4.096 -0.9360 -1.2652 -0.5035
13817TIP3    H262943   1.769   2.029   4.056 -0.3363 -0.9560 -0.8891
13818TIP3   OH262944   5.277   6.121  13.486  0.2118  0.3811  0.1498
13818TIP3    H162945   5.365   6.087  13.502  1.1951  2.0928 -1.4409
13818TIP3    H262946   5.290   6.214  13.468 -2.2742  1.3455  2.9377
13819TIP3   OH262947   5.589   1.940  16.956  0.1758 -0.0173  0.1341
13819TIP3    H162948   5.588   1.856  17.003  0.4629  0.7367  1.5209
13819TIP3    H262949   5.513   1.987  16.990  0.5390  0.6378  0.0464
13820TIP3   OH262950   4.366   0.654  15.935 -0.5789 -0.1252  0.0182
13820TIP3    H162951   4.435   0.651  16.002 -0.9519 -1.4672  0.3618
13820TIP3    H262952   4.285   0.638  15.983 -1.2596  2.3257 -0.2463
13821TIP3   OH262953   5.378   0.283   3.750  0.2264 -0.0060 -0.3047
13821TIP3    H162954   5.335   0.358   3.708  0.4904  0.9589  1.1490
13821TIP3    H262955   5.340   0.207   3.706 -1.0901  0.9256 -0.8143
13822TIP3   OH262956   0.223   3.113   3.346 -0.4480  0.6743  0.0854
13822TIP3    H162957   0.197   3.050   3.279 -0.3945  1.1407 -0.3711
13822TIP3    H262958   0.151   3.110   3.410 -0.1289 -0.3448  0.4166
13823TIP3   OH262959   5.152   3.307  15.006 -0.3764 -0.4876  0.1953
13823TIP3    H162960   5.154   3.317  15.101 -2.4036  1.0522  0.1174
13823TIP3    H262961   5.070   3.262  14.988 -0.7757  0.6490 -0.9145
13824TIP3   OH262962   3.079   0.891   1.044  0.3155  0.0519 -0.4455
13824TIP3    H162963   3.171   0.911   1.029  0.3884 -0.7598 -1.1172
13824TIP3    H262964   3.078   0.797   1.063 -0.3131  0.1656  0.0896
13825TIP3   OH262965   0.551   4.127   5.639  0.5266  0.0166 -0.9594
13825TIP3    H162966   0.548   4.103   5.732 -0.6262 -0.3382 -1.0795
13825TIP3    H262967   0.544   4.223   5.639  1.4382  0.0907 -0.6491
13826TIP3   OH262968   1.719   0.874  16.211  0.3125 -0.0311  0.0347
13826TIP3    H162969   1.795   0.818  16.198  1.1439  1.1176 -0.1499
13826TIP3    H262970   1.644   0.817  16.195  1.1380 -1.0621 -0.2289
13827TIP3   OH262971   2.360   5.227  14.465 -0.0672  0.3545  0.2155
13827TIP3    H162972   2.272   5.208  14.432 -1.3246  1.6675  2.5963
13827TIP3    H262973   2.345   5.287  14.539  2.9985  2.6212 -0.8791
13828TIP3   OH262974   5.551   4.847   5.472  0.1042 -0.4061  0.0832
13828TIP3    H162975   5.457   4.868   5.477  0.3311  0.5274  0.5170
13828TIP3    H262976   5.570   4.804   5.555  0.2821  0.3335  0.4302
13829TIP3   OH262977   3.410   4.754  16.495 -0.2781 -0.1717 -0.2139
13829TIP3    H162978   3.499   4.764  16.464  0.4559 -0.3764  1.7410
13829TIP3    H262979   3.368   4.838  16.477  0.4947  0.1373 -0.5662
13830TIP3   OH262980   2.244   3.322  12.842  0.0788 -0.7263 -0.6890
13830TIP3    H162981   2.209   3.236  12.866 -0.1270 -0.9715 -1.8100
13830TIP3    H262982   2.168   3.380  12.843  0.0215 -0.7961 -1.0202
13831TIP3   OH262983   6.084   0.322  16.402 -0.0794  0.0527 -0.1250
13831TIP3    H162984   6.019   0.272  16.452  1.3355 -1.5761  0.1492
13831TIP3    H262985   6.048   0.325  16.314 -0.4076 -1.0803 -0.0454
13832TIP3   OH262986   4.836   1.805  11.320  0.1644 -0.4068  0.1384
13832TIP3    H162987   4.881   1.882  11.355  0.3648  0.5221 -2.0792
13832TIP3    H262988   4.905   1.739  11.310  0.6287  0.2497 -1.0861
13833TIP3   OH262989   0.651   2.326  16.745 -0.7802  0.0283  0.6306
13833TIP3    H162990   0.609   2.385  16.807 -1.6658 -0.7386  0.7653
13833TIP3    H262991   0.639   2.239  16.783  2.0221 -0.1275  1.3306
13834TIP3   OH262992   4.815   2.344   4.214 -0.0699  0.2030 -0.6342
13834TIP3    H162993   4.779   2.256   4.209 -0.8917  0.5047 -0.1547
13834TIP3    H262994   4.760   2.396   4.155  1.3363  0.0983 -2.0667
13835TIP3   OH262995   1.081   3.620  13.164 -0.0332  0.2697 -0.2163
13835TIP3    H162996   1.028   3.650  13.237 -1.2053  0.3576 -1.0894
13835TIP3    H262997   1.082   3.694  13.103 -1.1733 -0.6962 -1.4255
13836TIP3   OH262998   1.672   0.320   3.584  0.4829 -0.0223  0.3187
13836TIP3    H162999   1.679   0.233   3.622 -2.3759 -1.0205 -1.2920
13836TIP3    H263000   1.591   0.356   3.621 -1.2253 -0.2063 -3.0793
13837TIP3   OH263001   0.464   5.561  11.918  0.0642 -0.2638 -0.6629
13837TIP3    H163002   0.432   5.585  11.832 -4.4603 -1.0594  0.6646
13837TIP3    H263003   0.474   5.644  11.964  0.2418  0.0145 -1.2010
13838TIP3   OH263004   6.178   0.909  11.734 -0.1673 -0.1999  0.4556
13838TIP3    H163005   6.136   0.917  11.819  0.3682 -0.2390  0.7225
13838TIP3    H263006   6.192   0.999  11.705 -0.1568 -0.1885  0.4969
13839TIP3   OH263007   6.596   2.327   1.205  0.3097  0.1348  0.2249
13839TIP3    H163008   6.605   2.416   1.172  0.2750  0.7146  1.7391
13839TIP3    H263009   6.571   2.338   1.297 -2.8103 -1.4193 -0.3596
13840TIP3   OH263010   4.816   3.211  16.274 -0.1300  1.0617  0.2292
13840TIP3    H163011   4.806   3.268  16.351 -0.3354  0.2940  0.7854
13840TIP3    H263012   4.830   3.271  16.201 -2.0433  1.9168  0.5240
13841TIP3   OH263013   5.177   0.111   0.515  0.2327 -0.2092  0.4297
13841TIP3    H163014   5.138   0.157   0.590  0.6540  1.6597 -0.4721
13841TIP3    H263015   5.244   0.055   0.553 -1.5951 -1.5630  1.7473
13842TIP3   OH263016   4.364   1.220   3.227 -0.1337 -0.4038 -0.9809
13842TIP3    H163017   4.416   1.233   3.306 -1.9666 -0.5074  0.2514
13842TIP3    H263018   4.402   1.142   3.186  0.0378 -1.0610  0.4272
13843TIP3   OH263019   5.608   0.464  15.152 -0.0995  0.0802 -0.1104
13843TIP3    H163020   5.577   0.513  15.076  0.8532  1.1928  0.1997
13843TIP3    H263021   5.659   0.393  15.115  1.3137  1.2762 -0.4997
13844TIP3   OH263022   2.160   2.959   1.543 -0.8018  0.3240 -0.2035
13844TIP3    H163023   2.129   3.010   1.618  0.5743  2.1562 -0.8289
13844TIP3    H263024   2.186   3.025   1.479  2.1977 -1.1515 -0.5649
13845TIP3   OH263025   3.554   0.419   4.161 -0.2703  0.2827  0.5400
13845TIP3    H163026   3.583   0.505   4.190 -0.4745  0.0585  1.4368
13845TIP3    H263027   3.587   0.411   4.071  3.2431 -0.3300  1.8102
13846TIP3   OH263028   4.203   3.738   1.101 -0.2716  0.5445  0.2507
13846TIP3    H163029   4.291   3.772   1.087  1.6926 -3.2396  2.4492
13846TIP3    H263030   4.212   3.678   1.175 -4.4747 -0.7965 -0.1736
13847TIP3   OH263031   0.588   3.363   5.359 -0.3272  0.1803 -0.2913
13847TIP3    H163032   0.604   3.430   5.292 -1.1399  1.0700  0.3911
13847TIP3    H263033   0.502   3.385   5.394  0.2096 -0.1086  1.2364
13848TIP3   OH263034   4.805   0.233   0.535  0.0524 -0.2699  0.1456
13848TIP3    H163035   4.794   0.296   0.464  3.0594  0.2879  0.1049
13848TIP3    H263036   4.867   0.169   0.501 -2.5359 -3.0226  0.3886
13849TIP3   OH263037   3.845   2.758   3.606 -0.2430 -0.0731  0.2734
13849TIP3    H163038   3.912   2.747   3.539 -1.1052  1.7049 -0.9216
13849TIP3    H263039   3.773   2.702   3.577 -0.1329 -0.2694  0.3789
13850TIP3   OH263040   3.253   2.216  16.508  0.1888 -0.5815  0.4736
13850TIP3    H163041   3.308   2.273  16.563 -0.2976 -2.7628  3.3573
13850TIP3    H263042   3.163   2.237  16.535 -0.1783 -0.2960 -0.9339
13851TIP3   OH263043   3.760   5.090  14.412  0.1236  0.1429  0.2627
13851TIP3    H163044   3.838   5.038  14.392  1.6429  1.5458  2.4394
13851TIP3    H263045   3.755   5.154  14.341  0.2345 -0.7358 -0.5486
13852TIP3   OH263046   1.582   1.245  12.192 -0.0148 -0.0068  0.3020
13852TIP3    H163047   1.607   1.193  12.269 -0.4692 -1.2979 -0.4239
13852TIP3    H263048   1.487   1.253  12.199 -0.3111 -1.9537 -1.2692
13853TIP3   OH263049   1.986   5.080   4.953 -0.2080  0.5135  0.1216
13853TIP3    H163050   1.894   5.059   4.934 -0.0444 -0.0021 -0.1104
13853TIP3    H263051   2.035   5.037   4.883  0.2167  0.7178  0.2953
13854TIP3   OH263052   2.261   1.248   1.689  0.3981 -0.1713 -0.2239
13854TIP3    H163053   2.344   1.295   1.696  0.9618 -0.9834 -1.3235
13854TIP3    H263054   2.194   1.312   1.713  1.3251  0.5627  0.3962
13855TIP3   OH263055   6.490   1.707   4.137  0.4803  0.3369 -0.5367
13855TIP3    H163056   6.482   1.614   4.158 -0.4803  0.9381  1.8796
13855TIP3    H263057   6.503   1.709   4.042  1.6326 -2.3093 -0.4646
13856TIP3   OH263058   3.966   6.316  11.040  0.1439  0.2267  0.3045
13856TIP3    H163059   3.952   6.349  10.952 -1.7411 -0.9674  0.1273
13856TIP3    H263060   3.885   6.335  11.087  1.0140  0.5863  1.7006
13857TIP3   OH263061   2.368   5.917  11.784 -0.0096 -0.0710  0.2846
13857TIP3    H163062   2.343   5.825  11.773  1.9934 -0.5457 -0.3411
13857TIP3    H263063   2.385   5.948  11.695 -0.9918  1.0138  0.4628
13858TIP3   OH263064   2.613   0.755  12.056  0.0301  0.2437 -0.1362
13858TIP3    H163065   2.601   0.850  12.066  0.5154  0.4200 -1.1563
13858TIP3    H263066   2.571   0.718  12.134  1.5501  1.3957  1.2637
13859TIP3   OH263067   4.209   6.702  13.980 -0.1690 -0.1649 -0.0219
13859TIP3    H163068   4.196   6.767  14.049 -0.1612 -0.7263  0.5102
13859TIP3    H263069   4.132   6.710  13.924  0.4301  1.1780 -0.6709
13860TIP3   OH263070   5.359   6.063   3.045 -0.3685 -0.9651  0.1867
13860TIP3    H163071   5.274   6.106   3.048  0.0245 -0.2535  1.5027
13860TIP3    H263072   5.420   6.132   3.018  0.0289 -1.0871  0.7766
13861TIP3   OH263073   2.174   6.063  13.736 -0.4224 -0.4130 -0.3818
13861TIP3    H163074   2.099   6.117  13.712 -0.5878 -0.0945  0.8195
13861TIP3    H263075   2.137   5.994  13.791 -0.0271 -1.0132 -0.8714
13862TIP3   OH263076   0.750   3.259  15.978  0.3868 -0.2781 -0.4771
13862TIP3    H163077   0.748   3.271  15.883 -0.4359  1.0500 -0.3157
13862TIP3    H263078   0.658   3.270  16.005  0.4434 -1.7616  0.3434
13863TIP3   OH263079   6.026   2.319  11.879 -1.1039  0.6293 -0.3649
13863TIP3    H163080   5.964   2.383  11.843 -2.8589 -0.1067  1.2528
13863TIP3    H263081   6.015   2.242  11.824 -2.3104  0.1942  0.4653
13864TIP3   OH263082   1.822   6.550  13.091  0.8112 -0.0408 -0.0647
13864TIP3    H163083   1.879   6.474  13.084 -0.5748 -1.0466 -0.6395
13864TIP3    H263084   1.734   6.514  13.101  0.1919  1.4796  0.1472
13865TIP3   OH263085   1.540   1.855  16.906  0.3938 -0.2358  0.1706
13865TIP3    H163086   1.494   1.820  16.982 -1.5821  0.3281 -0.7531
13865TIP3    H263087   1.627   1.814  16.910 -0.7727 -2.7163  0.9127
13866TIP3   OH263088   3.014   1.486  14.916  0.0487  0.4930  0.0184
13866TIP3    H163089   2.971   1.401  14.930  0.8006 -0.2689 -2.1740
13866TIP3    H263090   3.100   1.476  14.957  0.4286 -0.0684 -0.9146
13867TIP3   OH263091   4.811   6.759   2.748  0.1298  0.3320 -0.0205
13867TIP3    H163092   4.793   6.720   2.663 -0.8102  0.3724  0.1576
13867TIP3    H263093   4.801   6.687   2.810  2.1175 -0.0174 -0.0549
13868TIP3   OH263094   4.797   3.727   2.616 -0.6675  0.3268  0.0032
13868TIP3    H163095   4.718   3.775   2.589 -0.5561 -0.0052 -0.9546
13868TIP3    H263096   4.867   3.791   2.608 -0.4525 -0.0815 -1.6897
13869TIP3   OH263097   6.340   5.392  10.798 -0.1803  0.0519 -0.4647
13869TIP3    H163098   6.379   5.333  10.734  0.2567  0.5910 -0.6978
13869TIP3    H263099   6.324   5.473  10.749 -0.8548  0.0996 -0.1703
13870TIP3   OH263100   2.350   2.716  17.284  0.3449  0.7119 -0.1198
13870TIP3    H163101   2.368   2.622  17.296  0.0327  0.7622  0.8231
13870TIP3    H263102   2.255   2.720  17.271  0.2455  0.9659  0.6620
13871TIP3   OH263103   1.142   4.149  16.732  0.7249 -0.7089  0.1087
13871TIP3    H163104   1.149   4.064  16.776  1.1187 -1.4638 -1.3631
13871TIP3    H263105   1.076   4.135  16.664  0.8549  0.1416 -0.1971
13872TIP3   OH263106   4.913   0.159  10.707 -0.0195 -0.4542  0.2731
13872TIP3    H163107   4.973   0.139  10.635 -0.2446  1.0788 -0.3587
13872TIP3    H263108   4.913   0.080  10.761  3.3549 -0.1565  0.8436
13873TIP3   OH263109   2.485   1.306   2.597  0.4042  0.0050  0.1411
13873TIP3    H163110   2.556   1.273   2.542 -0.6717 -0.9966 -0.6909
13873TIP3    H263111   2.421   1.341   2.534  0.7796  2.2062  0.9359
13874TIP3   OH263112   5.162   0.593  11.568  0.2973 -0.5478  0.1600
13874TIP3    H163113   5.132   0.509  11.603 -2.9295  0.4531 -0.0741
13874TIP3    H263114   5.128   0.595  11.479 -0.6430  1.4935  0.5445
13875TIP3   OH263115   5.208   1.653  12.565 -0.1418  0.3334 -0.3602
13875TIP3    H163116   5.157   1.722  12.607 -0.2626  0.1337 -0.1763
13875TIP3    H263117   5.230   1.688  12.479  1.3300  1.3252  0.4108
13876TIP3   OH263118   5.918   2.606   3.349  0.3350 -0.2022 -0.1304
13876TIP3    H163119   5.885   2.517   3.338 -0.2707  0.1637 -1.3531
13876TIP3    H263120   5.843   2.657   3.379  0.6063 -0.0277  0.2714
13877TIP3   OH263121   2.686   6.618   4.597  0.1368 -0.1518 -0.4981
13877TIP3    H163122   2.590   6.610   4.598  0.2237 -1.5059  1.6591
13877TIP3    H263123   2.703   6.711   4.611 -0.8717 -0.0369  0.0120
13878TIP3   OH263124   4.600   2.110   5.048  0.3207  0.3081  0.4958
13878TIP3    H163125   4.534   2.045   5.074 -0.6153  1.2593  0.4940
13878TIP3    H263126   4.551   2.176   4.999  1.4732  0.3950 -0.5712
13879TIP3   OH263127   4.905   4.148   4.417 -0.2593  0.1121  0.3589
13879TIP3    H163128   4.993   4.153   4.380 -1.1899 -2.0702 -2.2539
13879TIP3    H263129   4.891   4.055   4.433 -2.3773  0.3602  0.0226
13880TIP3   OH263130   4.086   6.579   1.154 -0.6401  0.6809  0.5464
13880TIP3    H163131   4.035   6.635   1.095  1.9665  0.1418 -2.3085
13880TIP3    H263132   4.050   6.598   1.241 -3.9046  2.2532 -1.0477
13881TIP3   OH263133   6.054   5.913   1.417 -0.3650  0.1109 -0.0785
13881TIP3    H163134   6.088   5.976   1.481  2.5466 -0.6206 -0.8211
13881TIP3    H263135   6.127   5.852   1.403 -2.6914 -2.6945 -0.3357
13882TIP3   OH263136   5.778   3.903  13.889 -0.1503  0.2138 -0.6596
13882TIP3    H163137   5.807   3.827  13.940 -1.0824 -0.1705 -0.6925
13882TIP3    H263138   5.834   3.904  13.812  1.0060  0.5618  0.1810
13883TIP3   OH263139   6.075   3.298  11.249  0.0001  0.0835 -0.4509
13883TIP3    H163140   5.990   3.271  11.283  0.1158  0.0427 -0.1952
13883TIP3    H263141   6.120   3.338  11.324  0.6696 -0.9679 -0.2796
13884TIP3   OH263142   5.683   2.713   3.435 -0.4555  0.0258 -0.0993
13884TIP3    H163143   5.620   2.684   3.500 -0.4011 -1.5881 -0.7359
13884TIP3    H263144   5.629   2.751   3.365 -0.5197  1.6284  0.8149
13885TIP3   OH263145   5.578   1.518   2.891 -0.0742  0.6018  0.5178
13885TIP3    H163146   5.536   1.553   2.813  0.4827 -2.1056 -1.0430
13885TIP3    H263147   5.505   1.486   2.945 -0.3665  1.3655  0.5971
13886TIP3   OH263148   0.226   1.769  11.157 -0.2656  0.3981 -1.1343
13886TIP3    H163149   0.175   1.708  11.105 -0.5110 -0.1694 -0.2401
13886TIP3    H263150   0.306   1.783  11.107 -0.0577 -0.9260 -1.1749
13887TIP3   OH263151   1.486   3.850  15.949  0.1730  0.2048  0.5220
13887TIP3    H163152   1.542   3.775  15.932  1.4860  1.0023  1.2725
13887TIP3    H263153   1.459   3.841  16.041 -1.6303 -0.6215 -0.0595
13888TIP3   OH263154   5.933   5.397   0.555  0.0279 -0.2512 -0.0820
13888TIP3    H163155   5.949   5.478   0.602  1.2425  0.5911 -1.9052
13888TIP3    H263156   6.015   5.348   0.562 -0.1173 -0.5558 -0.4435
13889TIP3   OH263157   6.159   2.377  13.261 -0.2404 -0.0760  0.0202
13889TIP3    H163158   6.198   2.453  13.219 -3.6851  2.3499  0.9992
13889TIP3    H263159   6.209   2.365  13.342  0.0606  1.4082  0.0572
13890TIP3   OH263160   3.776   6.711  15.544 -0.6815 -0.3489 -0.5908
13890TIP3    H163161   3.736   6.725  15.630  2.1127 -2.0253  1.0573
13890TIP3    H263162   3.729   6.636  15.508 -0.9606 -0.4786  0.0369
13891TIP3   OH263163   3.953   5.303  17.199  0.1003  0.0009  0.1514
13891TIP3    H163164   3.978   5.325  17.289  1.9930  1.0924 -0.5994
13891TIP3    H263165   3.962   5.208  17.194  1.5934  0.1032  0.6640
13892TIP3   OH263166   2.030   6.126  11.748 -0.5963 -0.9381  0.0492
13892TIP3    H163167   2.089   6.187  11.792 -1.3437  0.9538 -1.4825
13892TIP3    H263168   2.002   6.066  11.817  0.5302  0.1679  1.5067
13893TIP3   OH263169   3.007   6.232  16.384  0.7901 -0.3085  0.2343
13893TIP3    H163170   3.099   6.258  16.384  0.2875  1.5442  0.1211
13893TIP3    H263171   2.964   6.297  16.438 -0.7059 -0.2263 -1.0233
13894TIP3   OH263172   4.642   6.193  13.573  0.1859  0.7538  1.0502
13894TIP3    H163173   4.673   6.122  13.517  0.3939  0.8007  1.1073
13894TIP3    H263174   4.551   6.170  13.592  0.0654  0.8117  0.5742
13895TIP3   OH263175   1.204   2.910   1.416  0.2390 -0.9142 -0.0789
13895TIP3    H163176   1.110   2.908   1.429  0.4852  1.2274  2.7559
13895TIP3    H263177   1.240   2.876   1.499  1.9430 -0.7628 -0.7371
13896TIP3   OH263178   0.372   4.329   0.064 -0.4371  0.5250  0.4575
13896TIP3    H163179   0.411   4.387  -0.002  1.3273 -1.0365  0.0927
13896TIP3    H263180   0.358   4.386   0.140  0.0484  1.7280 -0.3411
13897TIP3   OH263181   5.509   2.064  12.100 -0.4338 -0.0590  0.7788
13897TIP3    H163182   5.449   1.996  12.069 -0.7169 -0.2663  1.7648
13897TIP3    H263183   5.526   2.118  12.023 -1.8354 -0.0498  0.4576
13898TIP3   OH263184   4.015   3.023  15.490  0.0539  0.3709  0.1698
13898TIP3    H163185   3.941   3.083  15.499 -1.3271 -0.9064 -2.2488
13898TIP3    H263186   4.014   2.972  15.570 -2.6988 -0.7091 -0.5108
13899TIP3   OH263187   6.607   5.903   5.372  0.1267  0.2021  0.1795
13899TIP3    H163188   6.688   5.943   5.401 -1.0367  2.3094  0.6404
13899TIP3    H263189   6.589   5.943   5.287  0.4171 -1.4956 -0.7082
13900TIP3   OH263190   1.984   4.948   1.002 -0.4483 -0.2359  0.2852
13900TIP3    H163191   1.980   4.997   0.920 -1.4652 -1.1516 -0.2321
13900TIP3    H263192   1.948   5.008   1.068 -0.6075  0.1252 -0.1298
13901TIP3   OH263193   5.620   4.820  12.958  0.0402 -0.5994 -0.6826
13901TIP3    H163194   5.593   4.911  12.963  0.7262 -0.4420  0.5218
13901TIP3    H263195   5.539   4.770  12.962 -0.3309 -0.0392 -1.2232
13902TIP3   OH263196   0.503   6.012   4.812  0.6922 -0.3390  0.1166
13902TIP3    H163197   0.513   6.092   4.863  0.2325  1.0013 -1.8332
13902TIP3    H263198   0.409   5.993   4.816  0.9094 -1.2389  1.2193
13903TIP3   OH263199   2.392   0.176   3.365 -0.2497 -0.4409 -0.1300
13903TIP3    H163200   2.400   0.205   3.455 -1.3713  0.4149 -0.2942
13903TIP3    H263201   2.399   0.081   3.370  1.8218 -0.2859  0.5950
13904TIP3   OH263202   5.649   4.653   1.509  0.4588 -0.4302  0.2946
13904TIP3    H163203   5.564   4.609   1.515 -0.1194  0.4542 -1.0606
13904TIP3    H263204   5.667   4.656   1.415  1.3667  0.5616  0.4990
13905TIP3   OH263205   4.631   1.893  14.556  0.0032  0.0294 -0.9044
13905TIP3    H163206   4.623   1.983  14.522  2.6178 -0.6001 -3.3707
13905TIP3    H263207   4.575   1.841  14.498 -2.2935  0.1615  1.1360
13906TIP3   OH263208   2.172   4.854  14.575 -0.1483 -0.2948  0.8177
13906TIP3    H163209   2.098   4.910  14.551  1.4659  0.8644 -1.7594
13906TIP3    H263210   2.217   4.902  14.645  0.5722  1.1404 -0.5859
13907TIP3   OH263211   4.016   4.152   4.579 -0.4274 -0.1082  0.5548
13907TIP3    H163212   4.059   4.174   4.497 -1.4257  1.0092  0.3231
13907TIP3    H263213   4.073   4.085   4.618  0.6279  0.1348 -0.5211
13908TIP3   OH263214   4.234   3.528  11.175 -0.0158  0.1823 -0.0459
13908TIP3    H163215   4.273   3.508  11.090 -1.3758  1.7555 -1.0595
13908TIP3    H263216   4.308   3.555  11.229  1.2403 -3.2381  0.0627
13909TIP3   OH263217   0.995   6.481  16.815  0.4300 -0.3464 -0.1321
13909TIP3    H163218   0.970   6.490  16.907 -0.1389 -1.7272 -0.1411
13909TIP3    H263219   0.913   6.491  16.767  0.5656 -0.7000 -0.4309
13910TIP3   OH263220   1.888   3.135  13.392 -0.2936  0.1182  0.2815
13910TIP3    H163221   1.836   3.057  13.372 -0.4375  0.2831  0.0067
13910TIP3    H263222   1.823   3.205  13.397  0.1562  0.7806 -2.4755
13911TIP3   OH263223   5.920   1.697  11.848 -0.4766 -0.5566  0.3670
13911TIP3    H163224   5.946   1.628  11.787 -0.4662  0.7045 -1.0696
13911TIP3    H263225   5.977   1.685  11.924 -0.9042 -2.5166  0.4124
13912TIP3   OH263226   2.935   4.291   2.409  0.2447 -0.3289  0.2067
13912TIP3    H163227   2.866   4.314   2.346 -0.8799 -1.3466  1.0358
13912TIP3    H263228   2.976   4.375   2.431 -0.2647  0.2022 -0.8516
13913TIP3   OH263229   1.442   3.983   2.274  0.1286  0.3749 -0.3185
13913TIP3    H163230   1.442   4.079   2.280 -0.4447  0.3437  0.1960
13913TIP3    H263231   1.356   3.957   2.306  0.2851 -0.3188 -0.4527
13914TIP3   OH263232   3.864   5.855  14.657  0.2191 -0.4034  0.1051
13914TIP3    H163233   3.835   5.937  14.618 -0.3946 -0.5579  0.2367
13914TIP3    H263234   3.800   5.837  14.726  1.0789 -0.3324  0.9361
13915TIP3   OH263235   1.542   1.746  12.418  0.5615  0.3326  0.2718
13915TIP3    H163236   1.584   1.823  12.456 -1.1367  1.5222 -0.2160
13915TIP3    H263237   1.588   1.732  12.335  0.8962  0.7731  0.3808
13916TIP3   OH263238   0.814   0.191  15.758  0.2176  0.1540 -0.3567
13916TIP3    H163239   0.892   0.222  15.712 -1.0742  2.2216 -1.2474
13916TIP3    H263240   0.743   0.204  15.695 -1.4260  1.9342  1.7742
13917TIP3   OH263241   5.707   2.576  15.529 -0.2498 -0.1642 -0.2189
13917TIP3    H163242   5.798   2.561  15.554 -0.3148  0.8929  0.6965
13917TIP3    H263243   5.685   2.661  15.568 -1.8250 -0.7018  0.1204
13918TIP3   OH263244   2.259   5.518  15.580  0.0943 -0.1531  0.4313
13918TIP3    H163245   2.239   5.498  15.489  2.6618  1.7826 -0.5903
13918TIP3    H263246   2.225   5.606  15.593 -0.4001 -0.4749  1.4333
13919TIP3   OH263247   6.487   4.919  14.180 -0.2043  0.6288 -0.4068
13919TIP3    H163248   6.396   4.935  14.206 -0.5113 -0.4512 -0.7790
13919TIP3    H263249   6.506   4.831  14.211  1.5617  1.7774  1.9044
13920TIP3   OH263250   6.354   4.508   4.376 -0.3176 -0.1834  0.2308
13920TIP3    H163251   6.369   4.600   4.353 -0.3092  0.2429  1.9272
13920TIP3    H263252   6.435   4.464   4.352 -0.6019  0.1027 -1.3221
13921TIP3   OH263253   3.673   5.537   3.317  0.2981  0.5496 -0.0302
13921TIP3    H163254   3.629   5.621   3.305 -1.6643 -0.7902 -2.7516
13921TIP3    H263255   3.604   5.478   3.346  1.3300 -0.4846  0.3515
13922TIP3   OH263256   1.307   4.861  13.862 -0.0273  0.0508 -0.3018
13922TIP3    H163257   1.344   4.838  13.947 -1.0872 -1.3364 -0.1942
13922TIP3    H263258   1.214   4.839  13.870 -0.1494 -0.0148 -1.7854
13923TIP3   OH263259   4.010   5.000   4.334  0.0629 -0.7055  0.9039
13923TIP3    H163260   3.991   4.979   4.426  2.1595 -2.7853  0.9123
13923TIP3    H263261   4.066   5.078   4.339 -1.2236  0.2252  1.2687
13924TIP3   OH263262   4.822   5.632  16.937 -0.1798 -0.2204  0.1871
13924TIP3    H163263   4.798   5.589  17.019 -2.0471  3.4575  1.6938
13924TIP3    H263264   4.780   5.580  16.869 -1.9448 -1.0995  1.8994
13925TIP3   OH263265   6.633   6.630   3.961 -0.1409 -0.2340 -0.0591
13925TIP3    H163266   6.550   6.583   3.973  0.1545 -1.2608 -1.8433
13925TIP3    H263267   6.689   6.597   4.031 -1.1305  0.2567  0.9919
13926TIP3   OH263268   3.191   2.500   2.097  0.2376 -0.6361 -0.6510
13926TIP3    H163269   3.143   2.489   2.179 -0.6077 -0.1392 -1.0720
13926TIP3    H263270   3.136   2.557   2.044  0.9385 -0.6736 -1.4390
13927TIP3   OH263271   5.787   1.003   5.358 -0.2653 -0.4851 -0.3984
13927TIP3    H163272   5.721   1.069   5.339  0.6263  0.7288  0.6608
13927TIP3    H263273   5.738   0.921   5.363 -1.8645  0.5430  1.4380
13928TIP3   OH263274   3.936   0.581  15.826  0.0724 -0.1391 -0.8374
13928TIP3    H163275   4.007   0.616  15.880  0.7842  0.0106 -1.8620
13928TIP3    H263276   3.873   0.653  15.820 -0.5012 -0.5048  0.6514
13929TIP3   OH263277   3.560   0.007  15.304 -0.1508  0.4134 -0.2403
13929TIP3    H163278   3.467  -0.010  15.285 -0.1595 -0.0334  0.1945
13929TIP3    H263279   3.577  -0.042  15.384  0.5284  0.2950 -0.4554
13930TIP3   OH263280   3.516   0.917   1.326  0.0442 -0.1367  0.4416
13930TIP3    H163281   3.509   1.008   1.356  0.5389  0.0348  0.0506
13930TIP3    H263282   3.535   0.924   1.233 -0.1624 -0.6485  0.3573
13931TIP3   OH263283   0.376   0.601   4.813  0.0360  0.7580 -0.5589
13931TIP3    H163284   0.410   0.690   4.828  1.0015  0.9611 -3.4707
13931TIP3    H263285   0.320   0.611   4.736  0.9960 -1.3220 -1.5600
13932TIP3   OH263286   3.875   4.825   4.522 -0.1130  0.4503  0.1467
13932TIP3    H163287   3.823   4.752   4.487 -1.1367  1.0950  0.2950
13932TIP3    H263288   3.943   4.783   4.574 -0.7376 -0.4057  0.2907
13933TIP3   OH263289   5.253   1.981  15.713 -0.3100 -0.9338  0.5393
13933TIP3    H163290   5.270   2.012  15.802  0.1808 -0.0604  0.1448
13933TIP3    H263291   5.163   2.010  15.695 -0.5261 -1.3869  0.8549
13934TIP3   OH263292   4.994   4.627  15.965 -0.0221  0.5976  0.0895
13934TIP3    H163293   5.026   4.539  15.983  0.0762  0.5597 -0.2733
13934TIP3    H263294   4.904   4.615  15.935 -0.5008  0.7282  1.4365
13935TIP3   OH263295   0.328   2.246   1.335  0.7484  0.2732  0.8551
13935TIP3    H163296   0.286   2.192   1.268  0.6566  0.7001  0.5651
13935TIP3    H263297   0.408   2.199   1.358  0.4807 -0.1748  0.8784
13936TIP3   OH263298   0.261   0.794   3.787  0.1078 -0.4505 -0.0050
13936TIP3    H163299   0.189   0.809   3.848  0.0991  0.7432 -0.3021
13936TIP3    H263300   0.328   0.857   3.813  0.1649 -0.0433 -1.1172
13937TIP3   OH263301   2.823   1.841  16.991 -0.3508  0.2592 -0.1095
13937TIP3    H163302   2.837   1.780  17.063 -0.0672 -0.6348 -0.9077
13937TIP3    H263303   2.910   1.858  16.955 -0.7150 -1.1153 -1.6909
13938TIP3   OH263304   2.490   0.261  15.172 -0.0055 -0.4986 -0.5495
13938TIP3    H163305   2.559   0.299  15.226  0.3725 -0.8228 -0.7962
13938TIP3    H263306   2.422   0.328  15.169  1.5984  1.1173 -2.8279
13939TIP3   OH263307   2.034   5.691   4.721 -0.4826 -0.2192 -0.4304
13939TIP3    H163308   2.093   5.637   4.773 -0.1135 -0.1161 -0.7371
13939TIP3    H263309   2.079   5.701   4.637 -0.6419  0.3874 -0.4461
13940TIP3   OH263310   6.413   4.911  13.596  0.5187 -0.3282  0.1578
13940TIP3    H163311   6.318   4.926  13.593  0.8085  1.5442 -0.0631
13940TIP3    H263312   6.443   4.928  13.507  1.1164 -0.5693  0.3124
13941TIP3   OH263313   0.129   2.968  11.428  0.5121 -0.0282 -0.0848
13941TIP3    H163314   0.095   3.024  11.497 -0.9598 -0.5352 -0.3837
13941TIP3    H263315   0.216   3.003  11.409 -0.1170  1.7264  0.2010
13942TIP3   OH263316   0.396   3.139   0.708  0.0950 -0.4718  0.4126
13942TIP3    H163317   0.410   3.049   0.738 -1.0864 -0.5186  0.8616
13942TIP3    H263318   0.480   3.182   0.721  0.1892 -1.0605  1.8028
13943TIP3   OH263319   6.271   4.321  17.069 -0.0880  0.1792  0.3762
13943TIP3    H163320   6.217   4.379  17.122 -0.0249 -0.1537  0.8098
13943TIP3    H263321   6.359   4.330  17.105  0.2432  1.0870 -0.6384
13944TIP3   OH263322   2.950   4.265  16.493  1.2095  0.1074 -0.2359
13944TIP3    H163323   3.023   4.230  16.442  0.5732  0.6680 -1.5387
13944TIP3    H263324   2.910   4.331  16.437 -0.3653 -0.2624  0.4141
13945TIP3   OH263325   4.938   4.931   1.923 -0.1239 -0.2330  0.0860
13945TIP3    H163326   4.852   4.892   1.906 -0.5496  0.7156  0.0392
13945TIP3    H263327   4.992   4.902   1.850 -1.2012  1.5218 -1.4680
13946TIP3   OH263328   2.026   0.159  12.450 -0.5518 -0.4989  0.0001
13946TIP3    H163329   2.096   0.157  12.515 -0.7712  0.1422  0.2560
13946TIP3    H263330   2.059   0.215  12.380 -0.8495 -0.1101  0.1685
13947TIP3   OH263331   2.773   0.051   4.630 -0.0780  0.6310 -0.2283
13947TIP3    H163332   2.868   0.043   4.624 -0.1183  0.7006 -1.0102
13947TIP3    H263333   2.758   0.094   4.715  0.5219 -0.3448  0.3763
13948TIP3   OH263334   0.831   3.716  14.474 -0.3015  0.3427 -0.2588
13948TIP3    H163335   0.865   3.742  14.388  0.5379  1.1649  0.3158
13948TIP3    H263336   0.866   3.629  14.489 -0.5972  0.1246 -0.8327
13949TIP3   OH263337   0.369   4.705  13.812  0.4328  0.7226  0.2568
13949TIP3    H163338   0.436   4.637  13.812 -0.9935 -0.7229  1.6873
13949TIP3    H263339   0.398   4.767  13.879  0.4927  0.2623  0.6592
13950TIP3   OH263340   6.439   5.851   6.588  0.0228  0.1584  0.1694
13950TIP3    H163341   6.351   5.837   6.624  0.0265  0.5667  0.3348
13950TIP3    H263342   6.446   5.787   6.518 -0.0399 -0.5672  0.8120
13951TIP3   OH263343   3.424   1.738  12.214 -1.0514 -0.7378 -0.0101
13951TIP3    H163344   3.348   1.680  12.208 -1.4203 -0.1993 -0.5876
13951TIP3    H263345   3.400   1.814  12.161  0.0416 -0.7396 -0.5110
13952TIP3   OH263346   0.553   0.713   4.498 -0.1858 -1.0894  0.0164
13952TIP3    H163347   0.612   0.714   4.422 -0.0602  0.8548  0.1235
13952TIP3    H263348   0.481   0.772   4.473 -0.2731 -0.6403  1.3113
13953TIP3   OH263349   4.969   2.687  16.021 -0.2014  0.8252  0.8059
13953TIP3    H163350   4.972   2.703  15.926 -0.9196 -1.1630  0.4066
13953TIP3    H263351   5.051   2.722  16.054 -0.0540  1.7835 -0.5225
13954TIP3   OH263352   5.212   4.113  16.341 -0.1572  0.2146 -0.4127
13954TIP3    H163353   5.258   4.174  16.284 -1.7509  1.5269 -0.3586
13954TIP3    H263354   5.258   4.118  16.425 -0.3536  1.4781 -0.3682
13955TIP3   OH263355   2.214   5.515   2.060  0.2877  0.1529  0.1492
13955TIP3    H163356   2.265   5.469   1.993  0.6280 -0.0284  0.5345
13955TIP3    H263357   2.124   5.514   2.026  0.1770 -1.3818  0.4748
13956TIP3   OH263358   3.767   0.644  16.399 -0.4915 -0.2890  0.4354
13956TIP3    H163359   3.724   0.724  16.427 -0.4348  0.8847 -2.5901
13956TIP3    H263360   3.709   0.608  16.331 -0.4534 -2.7702  1.6559
13957TIP3   OH263361   1.619   1.712  15.967 -0.5898  0.1643  0.5176
13957TIP3    H163362   1.687   1.771  15.936 -0.9078  0.2683  0.0111
13957TIP3    H263363   1.659   1.625  15.963  0.9749  0.6169  4.2810
13958TIP3   OH263364   3.457   5.727   2.263  0.2646  0.4838 -0.7829
13958TIP3    H163365   3.423   5.720   2.352  2.1750 -0.9491 -0.1115
13958TIP3    H263366   3.398   5.673   2.210 -0.3056  0.5332 -0.1975
13959TIP3   OH263367   2.822   1.878  12.757 -0.5889  0.1774  0.4065
13959TIP3    H163368   2.915   1.885  12.736 -0.9346 -0.9880 -1.6506
13959TIP3    H263369   2.811   1.790  12.791 -0.5302  1.1435  3.0149
13960TIP3   OH263370   2.519   0.370  12.683 -0.4475 -0.0764  0.1853
13960TIP3    H163371   2.594   0.320  12.715 -1.7127 -1.9190  0.3415
13960TIP3    H263372   2.529   0.456  12.724  0.6916 -0.8137  1.5099
13961TIP3   OH263373   1.879   4.355   0.429 -0.0564 -0.2724 -0.2401
13961TIP3    H163374   1.853   4.314   0.346  1.8655  0.3291 -1.1538
13961TIP3    H263375   1.925   4.435   0.403  1.8189 -0.8007  1.3662
13962TIP3   OH263376   4.786   0.260  12.135 -0.2941 -0.0298 -0.1964
13962TIP3    H163377   4.825   0.310  12.207  1.2137 -0.1201 -0.9335
13962TIP3    H263378   4.743   0.325  12.080  1.4406  0.4437 -1.0137
13963TIP3   OH263379   6.587   3.906   2.563  0.6442  0.2638 -0.0513
13963TIP3    H163380   6.516   3.910   2.499  1.6195  2.1102 -1.0644
13963TIP3    H263381   6.546   3.933   2.645 -0.1264  0.0097 -0.3481
13964TIP3   OH263382   2.755   4.422  15.065 -0.0259 -0.4250  0.2835
13964TIP3    H163383   2.845   4.440  15.037  0.4413 -1.6423  0.9503
13964TIP3    H263384   2.765   4.363  15.140 -1.3176  1.1651  1.7404
13965TIP3   OH263385   2.947   5.844   4.806  0.5136  0.0759  0.2335
13965TIP3    H163386   2.949   5.819   4.713  0.6626  2.1337 -0.3559
13965TIP3    H263387   3.019   5.906   4.815 -0.7790  1.4803  1.2250
13966TIP3   OH263388   5.371   5.044   4.131  0.1626 -0.7667 -0.5548
13966TIP3    H163389   5.453   5.049   4.082  0.0934  0.2292 -0.5833
13966TIP3    H263390   5.343   5.135   4.141 -0.6636 -1.0616 -0.0767
13967TIP3   OH263391   1.727   0.101  14.917  0.1976  0.5873  0.0675
13967TIP3    H163392   1.718   0.006  14.915  0.0550  0.6020  0.0407
13967TIP3    H263393   1.815   0.116  14.952  0.2166  0.4460  0.0787
13968TIP3   OH263394   0.774   2.107   6.654  0.3144  0.2252 -0.6431
13968TIP3    H163395   0.745   2.164   6.583  1.8910 -0.0868 -1.5500
13968TIP3    H263396   0.694   2.087   6.703 -0.7262  0.7634 -2.0987
13969TIP3   OH263397   5.810   2.039  11.932  0.4031 -0.5088  0.3663
13969TIP3    H163398   5.723   2.003  11.914 -0.6293  1.4435  1.3375
13969TIP3    H263399   5.834   2.004  12.018 -0.8380  1.5233  1.5595
13970TIP3   OH263400   5.966   2.439   0.450  0.2713  0.3897  0.3439
13970TIP3    H163401   5.879   2.464   0.480  0.5941  0.2446  1.4112
13970TIP3    H263402   6.007   2.398   0.526  2.2306  2.8190  0.6725
13971TIP3   OH263403   4.741   5.936   1.669 -0.2579  0.0437 -0.5679
13971TIP3    H163404   4.798   5.914   1.743  0.8464  0.8976 -1.1475
13971TIP3    H263405   4.685   6.006   1.701  0.0595  0.2515 -0.4743
13972TIP3   OH263406   5.410   1.835   0.963 -0.0578  0.4451 -0.3960
13972TIP3    H163407   5.490   1.802   0.922 -0.7800  0.5499 -1.9379
13972TIP3    H263408   5.402   1.786   1.044  2.0646  1.0906  0.2270
13973TIP3   OH263409   5.993   2.286   3.147  0.5036  0.3312 -0.5683
13973TIP3    H163410   5.916   2.326   3.187  0.2330  1.0218 -1.7559
13973TIP3    H263411   5.999   2.199   3.187  0.8564  1.3755  1.7510
13974TIP3   OH263412   6.165   1.482   4.550  0.1823  0.4883  0.3075
13974TIP3    H163413   6.082   1.435   4.539  0.2244  0.9582 -2.1542
13974TIP3    H263414   6.141   1.565   4.591 -0.4017  0.1075  0.7407
13975TIP3   OH263415   2.496   5.139   2.366  0.9506 -0.3069 -0.2077
13975TIP3    H163416   2.490   5.209   2.301  0.3727 -1.3882 -1.3389
13975TIP3    H263417   2.413   5.092   2.358  0.0117  0.7451  2.7207
13976TIP3   OH263418   0.094   3.710   5.583  0.9194  0.3009  0.3710
13976TIP3    H163419   0.096   3.665   5.499 -0.7686 -0.3799  0.6648
13976TIP3    H263420   0.103   3.803   5.562 -1.4050  0.3115 -0.7343
13977TIP3   OH263421   6.769   6.408  16.508  0.4573  0.0117  0.1638
13977TIP3    H163422   6.807   6.449  16.586  0.4242 -0.1443  0.2609
13977TIP3    H263423   6.751   6.318  16.535 -3.0623  0.9329  1.1861
13978TIP3   OH263424   3.200   0.095  13.457  0.4238 -0.5567 -0.0494
13978TIP3    H163425   3.257   0.047  13.517  0.6305  1.1742  1.1655
13978TIP3    H263426   3.122   0.041  13.450  1.1082 -1.6233  0.4101
13979TIP3   OH263427   6.567   6.049   3.919  0.1096  0.0142 -0.9030
13979TIP3    H163428   6.500   5.984   3.941 -0.3866  0.2467 -1.6773
13979TIP3    H263429   6.587   6.092   4.002  0.8889 -1.5392 -0.2779
13980TIP3   OH263430   5.964   5.289   5.220  0.2442  0.1370 -0.2206
13980TIP3    H163431   5.980   5.381   5.240 -1.5076  0.4047 -0.0432
13980TIP3    H263432   5.924   5.253   5.299  0.3919 -0.6569 -0.4957
13981TIP3   OH263433   5.500   1.203   0.473  0.7311  0.1253 -0.2469
13981TIP3    H163434   5.433   1.162   0.419 -0.4422 -3.2470  3.5489
13981TIP3    H263435   5.451   1.251   0.540  2.1524  1.3331 -0.0421
13982TIP3   OH263436   1.029   3.411   2.042 -0.4629  0.5659  0.2538
13982TIP3    H163437   1.006   3.319   2.056  3.0118 -0.2990  0.6728
13982TIP3    H263438   1.102   3.427   2.102  0.5338  2.9053 -1.5164
13983TIP3   OH263439   0.810   1.152   4.378  0.3141 -0.1495 -0.2237
13983TIP3    H163440   0.899   1.145   4.343  0.4117 -0.5248  0.0823
13983TIP3    H263441   0.773   1.229   4.336  1.2727  0.8292  0.7036
13984TIP3   OH263442   3.131   0.962   4.507 -0.1394  0.1835  0.4088
13984TIP3    H163443   3.089   0.953   4.593  0.0170 -1.5655  0.3238
13984TIP3    H263444   3.148   0.872   4.480  0.3253  0.7532 -1.2117
13985TIP3   OH263445   0.240   6.803   1.175 -0.1530 -0.1994 -0.0800
13985TIP3    H163446   0.223   6.709   1.180  1.4892 -0.4008  2.9041
13985TIP3    H263447   0.331   6.809   1.145 -1.2600  0.5518 -3.4303
13986TIP3   OH263448   2.465   2.090   4.487  0.2388 -0.0730 -0.2103
13986TIP3    H163449   2.535   2.030   4.512  1.7227  1.9866  0.6979
13986TIP3    H263450   2.510   2.166   4.450 -1.5649  0.7998 -0.6943
13987TIP3   OH263451   3.662   4.913  13.218 -0.8373 -0.5081 -0.2069
13987TIP3    H163452   3.742   4.863  13.202  0.0713  0.2152  1.8176
13987TIP3    H263453   3.608   4.854  13.270 -1.2468 -0.6652 -0.8084
13988TIP3   OH263454   1.014   2.629   1.746 -0.1618 -0.2190  0.3079
13988TIP3    H163455   1.066   2.620   1.666 -1.6046  1.3169 -0.8364
13988TIP3    H263456   1.075   2.664   1.811  0.5812  0.2183 -0.6111
13989TIP3   OH263457   0.993   3.382  16.126  0.1858  0.0408  0.5949
13989TIP3    H163458   0.918   3.336  16.088  0.6535  1.0268 -1.5954
13989TIP3    H263459   1.069   3.339  16.088  0.7272  0.1586  1.5159
13990TIP3   OH263460   4.600   6.437  12.815 -0.1450  0.0378 -0.4711
13990TIP3    H163461   4.584   6.491  12.891 -1.0787 -1.6266  0.5473
13990TIP3    H263462   4.559   6.484  12.742 -2.1311  0.0479  0.6279
13991TIP3   OH263463   4.871   3.708  13.120 -0.4898  1.2660 -0.2849
13991TIP3    H163464   4.802   3.689  13.184  0.3972  0.1287  0.3573
13991TIP3    H263465   4.938   3.642  13.137 -0.3042  0.8329 -2.4896
13992TIP3   OH263466   1.324   4.760   1.943 -0.1423 -0.4261 -0.4729
13992TIP3    H163467   1.255   4.745   2.007  0.3729 -1.3729 -0.1385
13992TIP3    H263468   1.309   4.850   1.912  1.3771  1.1611  3.1368
13993TIP3   OH263469   4.075   0.992  11.314  0.3805 -0.3940 -0.1030
13993TIP3    H163470   4.052   1.082  11.289  1.1296 -0.5574 -1.4217
13993TIP3    H263471   4.091   0.997  11.408  2.1319  1.2523 -0.4495
13994TIP3   OH263472   1.938   2.992  11.956  0.3494  0.8748  0.2919
13994TIP3    H163473   1.975   2.914  11.997  1.8201  1.3906 -0.0558
13994TIP3    H263474   1.847   2.994  11.986  0.7074 -0.1717  1.4560
13995TIP3   OH263475   5.689   3.679   5.508  0.3782  0.2769 -0.3540
13995TIP3    H163476   5.615   3.625   5.479  0.1840  0.9903 -1.2181
13995TIP3    H263477   5.703   3.653   5.599  1.3802 -2.4444 -1.2320
13996TIP3   OH263478   1.044   4.077   6.264 -0.6645  0.6264 -0.0462
13996TIP3    H163479   1.103   4.116   6.200 -2.0736  2.5936 -0.1931
13996TIP3    H263480   1.101   4.054   6.338  0.9523 -1.5863 -1.8836
13997TIP3   OH263481   5.948   5.067   3.791 -0.3825  0.3293 -0.0281
13997TIP3    H163482   6.020   5.115   3.749  0.5759 -1.3225 -0.3017
13997TIP3    H263483   5.900   5.028   3.718 -0.6102  0.0884  0.2530
13998TIP3   OH263484   2.274   5.346  11.763 -0.2792 -0.9310  0.0037
13998TIP3    H163485   2.207   5.408  11.734 -0.5190 -1.7063 -1.1453
13998TIP3    H263486   2.302   5.302  11.682 -0.6976 -2.9105  0.9114
13999TIP3   OH263487   5.106   3.558  11.787  0.0914  0.0044  0.4164
13999TIP3    H163488   5.148   3.620  11.727 -2.2209 -0.4231 -1.7367
13999TIP3    H263489   5.151   3.475  11.772  0.8486  0.3531  0.7405
14000TIP3   OH263490   6.222   3.896  14.543  0.3170 -0.3903  0.2748
14000TIP3    H163491   6.301   3.862  14.585  1.7816  1.5602 -0.8203
14000TIP3    H263492   6.215   3.986  14.574 -2.1666 -0.9021  1.2803
14001TIP3   OH263493   2.801   2.591   2.435 -0.2592 -0.0467  0.2193
14001TIP3    H163494   2.859   2.546   2.496  0.5780 -0.2793 -0.7280
14001TIP3    H263495   2.793   2.532   2.361 -1.0644  0.3406 -0.0104
14002TIP3   OH263496   3.359   5.554   1.134  0.0941 -0.0591 -0.0480
14002TIP3    H163497   3.385   5.489   1.069 -1.8462 -0.7794 -0.1290
14002TIP3    H263498   3.264   5.544   1.142 -0.3019  2.9295 -0.2618
14003TIP3   OH263499   3.243   2.129   4.432  0.1526 -0.3284  0.1081
14003TIP3    H163500   3.298   2.183   4.376 -2.2025  0.7788 -1.2009
14003TIP3    H263501   3.268   2.152   4.522  1.6370  0.3069 -0.4734
14004TIP3   OH263502   4.146   3.144   0.649 -0.6105  0.0588  0.2581
14004TIP3    H163503   4.147   3.238   0.670  2.8317  0.0509  0.3994
14004TIP3    H263504   4.111   3.140   0.560  0.3543  1.6134 -0.2242
14005TIP3   OH263505   4.536   1.446  13.303  0.2989 -0.1693  0.1556
14005TIP3    H163506   4.446   1.415  13.298 -0.0158  0.5533  1.1529
14005TIP3    H263507   4.578   1.388  13.366  0.6171 -0.6870 -0.5229
14006TIP3   OH263508   3.289   2.303   1.256  0.2160  0.1422 -0.2930
14006TIP3    H163509   3.297   2.398   1.271 -1.1807  0.2616 -0.2145
14006TIP3    H263510   3.198   2.283   1.279  0.7872 -1.4161  0.6692
14007TIP3   OH263511   6.302   4.468   0.468 -0.1884 -0.1137  0.8514
14007TIP3    H163512   6.371   4.402   0.478 -0.5216 -0.2852  2.0571
14007TIP3    H263513   6.232   4.423   0.422  0.5161  0.0702 -0.4142
14008TIP3   OH263514   2.387   4.697  12.081 -0.4330 -0.1704 -0.0378
14008TIP3    H163515   2.437   4.695  11.999 -0.1967 -0.2173  0.1091
14008TIP3    H263516   2.303   4.655  12.059 -0.6321  0.4246 -0.4285
14009TIP3   OH263517   3.571   5.059   0.901  0.4296  0.0220 -0.3388
14009TIP3    H163518   3.646   5.080   0.844 -0.5908  1.0834 -1.3059
14009TIP3    H263519   3.609   5.057   0.989  1.3293  2.2040 -0.6147
14010TIP3   OH263520   1.641   0.869   5.198 -0.4699  0.1835 -0.0291
14010TIP3    H163521   1.616   0.784   5.162  1.8146 -0.5452  0.0180
14010TIP3    H263522   1.573   0.889   5.262 -1.0496 -1.5944 -0.0601
14011TIP3   OH263523   2.421   0.173   0.482  0.0304  0.3571  0.4479
14011TIP3    H163524   2.457   0.168   0.394  1.0953 -0.7149  0.9189
14011TIP3    H263525   2.327   0.162   0.470  0.0482  1.3088 -0.6377
14012TIP3   OH263526   6.730   5.869  13.000  0.3047  0.5150 -0.5342
14012TIP3    H163527   6.810   5.913  12.972  0.4830  0.2933 -0.3771
14012TIP3    H263528   6.669   5.882  12.927  0.2246  1.3676 -0.3142
14013TIP3   OH263529   4.097   5.853   0.780 -0.4562  0.0833 -0.1157
14013TIP3    H163530   4.173   5.865   0.836 -1.3583 -0.4030  1.2463
14013TIP3    H263531   4.119   5.777   0.725  0.1003  0.0432  0.1685
14014TIP3   OH263532   2.543   3.319   3.321  0.7730  0.0627 -0.3041
14014TIP3    H163533   2.630   3.355   3.334  1.4517 -2.3193  2.0975
14014TIP3    H263534   2.487   3.367   3.382  0.6669  0.5641 -0.7886
14015TIP3   OH263535   5.720   6.628  16.579 -0.1350 -0.0442  0.2944
14015TIP3    H163536   5.632   6.601  16.553 -1.1188  1.8140  1.5595
14015TIP3    H263537   5.758   6.666  16.500 -0.1920 -1.5128 -0.4506
14016TIP3   OH263538   0.609   5.120   2.434 -0.0361  0.1770 -0.2195
14016TIP3    H163539   0.657   5.135   2.353  1.4587 -1.9508  0.2261
14016TIP3    H263540   0.647   5.183   2.496  0.8338 -0.1503 -0.4078
14017TIP3   OH263541   1.267   6.271   3.559 -0.3649 -0.5607 -0.0719
14017TIP3    H163542   1.245   6.240   3.647 -0.1593 -0.9853 -0.1692
14017TIP3    H263543   1.345   6.325   3.571  0.0059 -1.0927 -0.0731
14018TIP3   OH263544   6.488   0.619   5.828  0.0341 -0.2775  0.0421
14018TIP3    H163545   6.488   0.693   5.889 -0.1888  1.5325 -2.0819
14018TIP3    H263546   6.577   0.617   5.794  0.1958 -1.3776  0.5146
14019TIP3   OH263547   5.676   4.253  14.499  0.2538 -0.0771  0.1484
14019TIP3    H163548   5.766   4.284  14.511 -0.2577  1.9380 -1.1378
14019TIP3    H263549   5.675   4.219  14.410 -0.5527  0.9012 -0.2130
14020TIP3   OH263550   3.368   5.012  11.680  0.1428 -0.1172 -0.2511
14020TIP3    H163551   3.406   4.925  11.691 -1.2159 -0.6216  0.5674
14020TIP3    H263552   3.439   5.065  11.645  0.7039 -1.7943 -1.7055
14021TIP3   OH263553   5.430   3.907   5.459 -0.5975 -0.2719  0.8881
14021TIP3    H163554   5.474   3.969   5.401 -1.1000  0.0894  0.8936
14021TIP3    H263555   5.431   3.824   5.411  1.8794 -0.7716  1.7226
14022TIP3   OH263556   4.989   3.379  11.005  0.4302  0.7066 -0.1913
14022TIP3    H163557   5.016   3.430  11.081  2.6798 -3.1757  1.7454
14022TIP3    H263558   5.063   3.383  10.945  1.6188 -2.1086  1.0033
14023TIP3   OH263559   6.213   3.567   5.199 -0.4503  0.3495  0.6531
14023TIP3    H163560   6.145   3.632   5.212 -0.9262 -0.0386  0.1225
14023TIP3    H263561   6.235   3.538   5.288  0.1257  1.5809  0.9249
14024TIP3   OH263562   3.055   2.634  12.237 -0.0551  0.0159 -0.0248
14024TIP3    H163563   2.963   2.646  12.261  0.1580  0.8393  0.4174
14024TIP3    H263564   3.070   2.540  12.247 -1.0046 -0.2136 -0.6901
14025TIP3   OH263565   0.616   2.346  16.285 -0.8062 -0.0979  0.3891
14025TIP3    H163566   0.681   2.360  16.216  0.1012 -1.8786  0.8653
14025TIP3    H263567   0.667   2.323  16.363 -1.8923  0.6579  1.3304
14026TIP3   OH263568   1.498   2.374   5.582 -0.0078  0.2320 -0.2146
14026TIP3    H163569   1.586   2.359   5.618  0.3245 -1.5428 -1.6651
14026TIP3    H263570   1.453   2.425   5.649  1.4717 -0.6135  1.4717
14027TIP3   OH263571   3.446   4.416  14.184 -0.4385 -0.6994  0.2033
14027TIP3    H163572   3.508   4.370  14.127  1.1871  0.6862  0.8165
14027TIP3    H263573   3.380   4.450  14.124  0.7277 -0.0854 -0.7663
14028TIP3   OH263574   6.243   6.370  12.647  0.0384  0.5489  0.0091
14028TIP3    H163575   6.160   6.385  12.693 -0.0509 -0.4637  0.1767
14028TIP3    H263576   6.230   6.288  12.600  1.4722 -0.4223  1.2680
14029TIP3   OH263577   4.847   6.350  15.312  0.1579  0.1698 -0.2954
14029TIP3    H163578   4.788   6.426  15.311 -0.9576 -0.6873 -0.9882
14029TIP3    H263579   4.847   6.319  15.222 -1.3536 -2.1283  0.4543
14030TIP3   OH263580   6.447   1.242  13.013  0.5657 -0.1926 -0.6112
14030TIP3    H163581   6.420   1.160  13.053  1.3965 -0.3525 -0.3510
14030TIP3    H263582   6.368   1.296  13.010  0.0441 -0.9675 -0.6950
14031TIP3   OH263583   1.907   0.600  16.827  0.0554  0.2424  0.1700
14031TIP3    H163584   1.917   0.648  16.745 -1.1488 -0.1015 -0.1884
14031TIP3    H263585   1.947   0.657  16.893  1.4733  0.2991 -0.7207
14032TIP3   OH263586   5.186   5.549  13.166  0.1341  0.4969  0.0908
14032TIP3    H163587   5.276   5.580  13.168 -0.2737  1.6148  1.5035
14032TIP3    H263588   5.185   5.475  13.226  0.0873  0.5308  0.1312
14033TIP3   OH263589   0.027   6.529  14.106  0.7481  0.2453  0.3535
14033TIP3    H163590   0.016   6.606  14.049 -0.0721  2.1204  2.9477
14033TIP3    H263591  -0.001   6.559  14.193  1.2369 -2.7593  1.6195
14034TIP3   OH263592   6.550   0.677  13.158  0.1980  0.2096  0.9598
14034TIP3    H163593   6.466   0.646  13.193  0.5739 -0.6764  1.0764
14034TIP3    H263594   6.581   0.605  13.103  0.7607  0.6422  0.7068
14035TIP3   OH263595   1.305   4.650   0.823 -0.3946 -0.3025  0.4324
14035TIP3    H163596   1.376   4.634   0.884 -0.6761  0.0954  0.8630
14035TIP3    H263597   1.348   4.668   0.740 -0.0276 -1.7019  0.3036
14036TIP3   OH263598   1.599   3.753   2.976  0.0753 -0.1724  0.2976
14036TIP3    H163599   1.597   3.666   3.015  0.8483 -1.0501 -1.5660
14036TIP3    H263600   1.663   3.802   3.028  0.2954 -0.9864  0.7856
14037TIP3   OH263601   4.566   1.830  12.416  0.0688 -0.2782  0.1358
14037TIP3    H163602   4.498   1.822  12.482  1.0568 -0.6907  1.1110
14037TIP3    H263603   4.648   1.813  12.463  0.7809 -0.5643 -1.1838
14038TIP3   OH263604   0.848   3.283   4.235 -0.8555  0.3048  0.3666
14038TIP3    H163605   0.844   3.303   4.328  1.1265  3.2186 -0.1054
14038TIP3    H263606   0.817   3.363   4.191  0.8539 -0.0001 -1.4898
14039TIP3   OH263607   6.233   2.614  15.597 -0.1778 -0.0806 -0.6007
14039TIP3    H163608   6.282   2.536  15.569 -1.3879 -0.2175 -2.4559
14039TIP3    H263609   6.257   2.626  15.689  0.3643 -2.3927 -0.4064
14040TIP3   OH263610   4.776   6.728  16.092  0.5805 -0.6526 -0.7754
14040TIP3    H163611   4.764   6.633  16.099  0.6200 -0.5716  0.4615
14040TIP3    H263612   4.714   6.765  16.154  0.3463  0.1516 -1.4822
14041TIP3   OH263613   1.046   5.446   1.130  0.2790  0.0816 -0.3560
14041TIP3    H163614   0.975   5.509   1.126  0.8606  0.7713 -0.0262
14041TIP3    H263615   1.080   5.442   1.040 -0.4928 -0.6213 -0.6168
14042TIP3   OH263616   1.031   3.315   5.913 -0.0160  0.1651  0.3551
14042TIP3    H163617   1.037   3.328   6.008 -2.1218 -1.3813  0.7535
14042TIP3    H263618   0.996   3.398   5.880 -1.3016 -0.0044  1.2308
14043TIP3   OH263619   4.532   3.373   2.042 -0.5606 -0.4711 -0.0461
14043TIP3    H163620   4.617   3.335   2.023 -0.6296 -0.3734 -0.5574
14043TIP3    H263621   4.470   3.302   2.026 -0.7409  0.0231 -1.5938
14044TIP3   OH263622   2.210   0.582  11.510  0.7010  0.0737  0.5376
14044TIP3    H163623   2.185   0.492  11.529  0.5639 -0.1323 -0.6134
14044TIP3    H263624   2.260   0.577  11.429  1.5489  0.9165  0.9975
14045TIP3   OH263625   2.328   5.300  16.292  0.1936 -0.1182 -0.3758
14045TIP3    H163626   2.262   5.247  16.336  0.9827 -2.1815 -1.5860
14045TIP3    H263627   2.286   5.327  16.210  0.2125  0.0765 -0.3207
14046TIP3   OH263628   4.244   5.101  15.168  0.8708  0.3425  0.2690
14046TIP3    H163629   4.273   5.012  15.185  0.3806 -0.0477 -0.9042
14046TIP3    H263630   4.162   5.110  15.216  1.0294  0.2303  0.5584
14047TIP3   OH263631   3.289   0.406  13.882  0.2366 -0.2881 -0.1194
14047TIP3    H163632   3.324   0.473  13.823 -0.9791  0.0225 -0.4935
14047TIP3    H263633   3.235   0.454  13.945 -1.0742 -0.9597 -0.7122
14048TIP3   OH263634   6.743   3.381  13.374 -0.0415 -0.1093 -0.6551
14048TIP3    H163635   6.818   3.357  13.320  0.9246  0.6556  0.3241
14048TIP3    H263636   6.772   3.369  13.464 -0.7063  1.2516 -0.2311
14049TIP3   OH263637   1.481   4.035   1.350 -0.2421 -0.3927 -0.3164
14049TIP3    H163638   1.518   4.052   1.437  0.8228  0.2642 -0.8904
14049TIP3    H263639   1.396   4.077   1.351 -0.3428 -0.6081  0.5020
14050TIP3   OH263640   1.871   3.576  15.426  0.0017  0.5042  0.3077
14050TIP3    H163641   1.826   3.626  15.357 -2.0528 -0.4200  0.9199
14050TIP3    H263642   1.863   3.631  15.504 -0.8219 -0.0278  0.6075
14051TIP3   OH263643   0.206   6.350   4.375  0.8873  0.0057  0.1429
14051TIP3    H163644   0.274   6.371   4.439  0.6526  1.0253  0.0797
14051TIP3    H263645   0.126   6.388   4.413  0.8524  1.1226 -1.0049
14052TIP3   OH263646   1.531   4.091  15.524  0.3514 -0.6164  0.1832
14052TIP3    H163647   1.559   4.068  15.436  0.9473 -3.4447  1.0603
14052TIP3    H263648   1.601   4.145  15.559  0.7088 -0.5561 -0.6222
14053TIP3   OH263649   4.454   5.677   3.562 -0.0588  0.0362 -0.1761
14053TIP3    H163650   4.459   5.700   3.469 -0.8593 -0.4743 -0.3482
14053TIP3    H263651   4.369   5.709   3.591 -0.5469 -1.3596 -0.0531
14054TIP3   OH263652   3.936   4.291  13.988  0.1439 -0.3351  0.1942
14054TIP3    H163653   3.854   4.281  13.940  0.1430  0.6644 -0.0125
14054TIP3    H263654   3.985   4.211  13.967 -0.3310 -0.4413 -0.5525
14055TIP3   OH263655   4.157   3.595   5.151 -0.0008  0.4712  0.0356
14055TIP3    H163656   4.225   3.645   5.196 -0.9850  1.6956  0.1921
14055TIP3    H263657   4.202   3.557   5.075  1.0472  0.5586  0.5999
14056TIP3   OH263658   5.204   5.917   4.991  0.0504 -0.0885  0.2817
14056TIP3    H163659   5.128   5.888   4.941 -0.3732  1.4681  0.0081
14056TIP3    H263660   5.182   6.005   5.021  2.1033  0.7697 -0.6099
14057TIP3   OH263661   6.029   2.597  10.856  0.5194  0.4045  0.5606
14057TIP3    H163662   5.985   2.681  10.842 -0.3508 -0.0985  0.2518
14057TIP3    H263663   5.968   2.532  10.822  0.6528 -0.4455  1.9047
14058TIP3   OH263664   4.913   2.396   4.570 -0.0915 -0.3119  0.6097
14058TIP3    H163665   4.939   2.307   4.595 -1.2933 -1.1095 -0.8795
14058TIP3    H263666   4.821   2.402   4.598  0.4079  0.9738  2.0045
14059TIP3   OH263667   0.787   6.779  16.125 -0.1809 -0.0705 -0.4438
14059TIP3    H163668   0.844   6.719  16.077 -0.7700  0.5004 -1.8996
14059TIP3    H263669   0.701   6.737  16.122 -0.5527  0.7477 -1.2970
14060TIP3   OH263670   4.180   1.249   4.884 -0.4427 -0.4607  0.3413
14060TIP3    H163671   4.177   1.220   4.793 -0.1864  1.4313 -0.2947
14060TIP3    H263672   4.094   1.288   4.899  0.4023  1.5898  0.0671
14061TIP3   OH263673   4.477   2.029  14.236  0.5583 -0.3786  0.1054
14061TIP3    H163674   4.522   2.026  14.151  1.1836  1.2625  0.3748
14061TIP3    H263675   4.544   2.056  14.298 -0.3223  0.1203  0.8488
14062TIP3   OH263676   3.737   2.577   2.698  0.2259  0.0503  0.3126
14062TIP3    H163677   3.729   2.657   2.749 -0.3562  2.0338 -2.7638
14062TIP3    H263678   3.832   2.561   2.691  0.3406  0.5329  0.8227
14063TIP3   OH263679   4.914   3.565  13.828 -0.1328  0.2307 -0.2757
14063TIP3    H163680   4.948   3.481  13.799 -1.0107 -0.7262  1.4325
14063TIP3    H263681   4.990   3.610  13.865 -0.3581 -1.2701  2.0961
14064TIP3   OH263682   4.925   0.924   4.128  0.3601  0.0983 -0.6320
14064TIP3    H163683   4.957   0.884   4.047  2.2083  2.2550 -1.0164
14064TIP3    H263684   5.003   0.937   4.181 -0.7203 -0.4327  1.1246
14065TIP3   OH263685   6.073   3.168   5.078 -0.2079 -0.1976 -0.0614
14065TIP3    H163686   6.127   3.093   5.103  0.5807  0.5266  0.4546
14065TIP3    H263687   5.987   3.149   5.116 -0.0901 -0.9774 -0.1834
14066TIP3   OH263688   2.411   1.799   1.134 -0.6537 -0.0013 -0.2789
14066TIP3    H163689   2.487   1.782   1.078 -0.1618  0.6095  0.1997
14066TIP3    H263690   2.435   1.763   1.219 -0.9151  0.1769 -0.1307
14067TIP3   OH263691   4.147   1.435  11.625  0.5593 -0.0726  0.2013
14067TIP3    H163692   4.146   1.510  11.565  1.1382 -0.8754 -0.8373
14067TIP3    H263693   4.225   1.385  11.599 -0.6454 -1.8273 -0.1116
14068TIP3   OH263694   5.329   1.966  13.749  0.2467  0.2572 -0.3034
14068TIP3    H163695   5.235   1.951  13.758  0.3214  0.2351  0.4757
14068TIP3    H263696   5.349   2.035  13.812  0.9827 -0.6860  0.5326
14069TIP3   OH263697   2.124   3.252  14.063 -0.0631  0.3885 -0.3926
14069TIP3    H163698   2.136   3.341  14.028 -0.0398  1.8174  3.0373
14069TIP3    H263699   2.031   3.247  14.083 -0.1730 -0.5901 -1.1503
14070TIP3   OH263700   1.549   1.882  11.759 -0.2656 -0.2519 -0.3529
14070TIP3    H163701   1.614   1.916  11.698  0.1305  0.0273  0.2111
14070TIP3    H263702   1.600   1.829  11.821 -0.8567 -1.7168 -1.1146
14071TIP3   OH263703   3.205   5.055   5.741  0.4488  0.5220  0.0564
14071TIP3    H163704   3.111   5.061   5.720 -0.0390  0.5415  2.1627
14071TIP3    H263705   3.247   5.046   5.656 -1.6318 -1.7180 -0.7918
14072TIP3   OH263706   5.194   0.595   1.039  0.3245 -0.3265  0.2551
14072TIP3    H163707   5.268   0.594   1.100  1.2639 -1.8639 -0.8689
14072TIP3    H263708   5.199   0.511   0.994 -1.7003 -0.1464 -0.3405
14073TIP3   OH263709   5.156   4.272   3.611  0.1621 -0.0770  0.1865
14073TIP3    H163710   5.133   4.193   3.660 -0.1741 -0.5159 -0.6716
14073TIP3    H263711   5.076   4.294   3.562  0.3816  0.5632  0.1099
14074TIP3   OH263712   6.805   2.526   4.016  0.1054  0.4252  0.4844
14074TIP3    H163713   6.735   2.472   4.052 -2.0851  0.3054 -3.6741
14074TIP3    H263714   6.886   2.482   4.044 -1.5824 -3.5961 -0.5981
14075TIP3   OH263715   1.340   0.167   4.688 -0.5428 -0.3763  0.2199
14075TIP3    H163716   1.259   0.213   4.710 -0.5478 -1.0617  1.6973
14075TIP3    H263717   1.322   0.076   4.712  0.0292 -0.8504 -1.1610
14076TIP3   OH263718   3.198   1.003  12.225  0.1636 -0.3092  0.4775
14076TIP3    H163719   3.274   0.947  12.212  0.8155  0.9781 -1.5165
14076TIP3    H263720   3.229   1.071  12.286  1.6888  2.0519 -2.7575
14077TIP3   OH263721   5.313   5.701   0.296  0.0057  0.1354 -0.1099
14077TIP3    H163722   5.227   5.734   0.269 -0.7143 -1.2671  0.4034
14077TIP3    H263723   5.315   5.713   0.391  0.1437 -0.3143 -0.0505
14078TIP3   OH263724   5.367   1.724   3.545  0.0795 -0.3022  0.3709
14078TIP3    H163725   5.450   1.712   3.592 -0.2087 -0.8301  0.7466
14078TIP3    H263726   5.358   1.645   3.492 -0.8322 -0.8594  1.3289
14079TIP3   OH263727   2.684   3.629   1.634 -0.0475  0.0551 -0.3522
14079TIP3    H163728   2.659   3.537   1.638 -1.4825  0.5050  2.1833
14079TIP3    H263729   2.602   3.676   1.619  0.4293  1.0184 -0.0569
14080TIP3   OH263730   6.361   4.113   3.816  0.1589  0.0787  0.2279
14080TIP3    H163731   6.345   4.204   3.792  0.7693  0.8239  2.4838
14080TIP3    H263732   6.340   4.110   3.910  1.2746 -1.8249  0.4325
14081TIP3   OH263733   1.693   4.312   5.398  0.9258 -0.5875 -0.3875
14081TIP3    H163734   1.636   4.235   5.404  1.2114 -0.5845  2.8431
14081TIP3    H263735   1.756   4.301   5.468  1.3000  2.3603 -0.2092
14082TIP3   OH263736   5.664   5.387  11.763  0.6213  0.2730 -0.6919
14082TIP3    H163737   5.704   5.407  11.678 -0.9945  0.9521 -1.3238
14082TIP3    H263738   5.594   5.325  11.741  0.0236  0.6676  0.1125
14083TIP3   OH263739   1.837   5.670  16.177  0.0209  0.6133  0.0312
14083TIP3    H163740   1.838   5.651  16.083  0.5110  2.6531 -0.4082
14083TIP3    H263741   1.925   5.647  16.207 -0.2010 -0.2356  0.0362
14084TIP3   OH263742   5.694   1.225   4.285 -0.1008  0.2737  0.0439
14084TIP3    H163743   5.745   1.278   4.224  0.0170 -0.6666 -0.6909
14084TIP3    H263744   5.633   1.286   4.326  1.3405  1.3237  0.6186
14085TIP3   OH263745   4.653   6.552   4.954  0.2437  0.5959  0.5174
14085TIP3    H163746   4.595   6.525   5.025  0.5996 -1.0936  0.1987
14085TIP3    H263747   4.595   6.578   4.883 -0.1608 -1.8166 -0.0727
14086TIP3   OH263748   0.850   2.128   4.639 -0.2208 -0.1868  0.9428
14086TIP3    H163749   0.763   2.089   4.634  0.1011 -0.8346  0.3466
14086TIP3    H263750   0.854   2.188   4.564 -0.7643  1.1121  1.9300
14087TIP3   OH263751   3.671   4.325  11.810 -0.1027 -0.6158  0.1640
14087TIP3    H163752   3.588   4.358  11.844 -1.0197 -2.3225 -0.3930
14087TIP3    H263753   3.679   4.365  11.724  0.9580  1.6362  1.2597
14088TIP3   OH263754   3.482   3.872  11.836 -0.1607 -0.1792  0.3949
14088TIP3    H163755   3.554   3.880  11.773  0.1696  0.4205  0.8484
14088TIP3    H263756   3.501   3.938  11.903 -1.9164  0.9723 -0.2343
14089TIP3   OH263757   0.998   4.679  17.120  0.2493  0.1183 -1.1083
14089TIP3    H163758   0.920   4.623  17.122  1.4316 -1.6591 -3.0458
14089TIP3    H263759   1.051   4.648  17.193  0.3503 -0.4933 -1.4354
14090TIP3   OH263760   0.598   4.944  15.459 -0.5115  0.1325 -0.2951
14090TIP3    H163761   0.636   4.941  15.372 -1.3628  1.2134 -0.7185
14090TIP3    H263762   0.508   4.913  15.447 -0.5454  0.0179  0.2366
14091TIP3   OH263763   0.363   0.800   5.373 -0.0408 -0.2930 -0.0915
14091TIP3    H163764   0.412   0.760   5.445  1.1580  0.4517 -0.4796
14091TIP3    H263765   0.427   0.856   5.328 -1.0919  0.2246 -0.9768
14092TIP3   OH263766   3.149   2.302   5.632 -0.5928 -0.5141 -0.0623
14092TIP3    H163767   3.068   2.335   5.670  0.1117  2.1250 -0.7890
14092TIP3    H263768   3.135   2.207   5.623 -3.2017 -0.2206  0.6935
14093TIP3   OH263769   6.739   5.689  13.438 -0.1158 -0.1337 -0.0719
14093TIP3    H163770   6.685   5.707  13.361 -2.0109  0.9558  1.4750
14093TIP3    H263771   6.678   5.694  13.512  1.8661 -0.1419  1.6034
14094TIP3   OH263772   1.167   6.432   3.364  0.2346  0.2147  0.2708
14094TIP3    H163773   1.206   6.371   3.426 -1.5517 -0.1171  1.1096
14094TIP3    H263774   1.128   6.376   3.297  2.4413  0.5836 -1.3433
14095TIP3   OH263775   3.309   0.488   0.361 -0.2325  0.3938  0.0170
14095TIP3    H163776   3.392   0.447   0.337 -0.8140 -0.2058 -1.0214
14095TIP3    H263777   3.331   0.547   0.433  0.7958 -0.9698  0.8226
14096TIP3   OH263778   2.035   2.314   0.674  0.7474  0.2889 -0.1217
14096TIP3    H163779   2.023   2.408   0.690  0.9571  0.2328  0.3547
14096TIP3    H263780   2.121   2.294   0.710  0.7368 -0.0733 -0.2960
14097TIP3   OH263781   6.222   2.432  12.449  0.4570 -0.4858  0.0430
14097TIP3    H163782   6.223   2.427  12.353  0.4688  0.5780 -0.0264
14097TIP3    H263783   6.281   2.362  12.477 -0.1895 -1.3406 -0.6907
14098TIP3   OH263784   1.871   5.572  16.534 -0.1605 -0.2000  0.0359
14098TIP3    H163785   1.817   5.543  16.608 -0.5056  1.5346  0.4922
14098TIP3    H263786   1.808   5.591  16.465  0.2544 -3.2605 -1.2685
14099TIP3   OH263787   3.746   2.109   4.964  0.5719 -0.5265  0.1754
14099TIP3    H163788   3.793   2.036   5.003 -2.0603 -1.3319  1.9955
14099TIP3    H263789   3.685   2.138   5.032  1.0289  2.9162 -0.7514
14100TIP3   OH263790   3.048   5.716  15.965 -0.0169 -0.0991  0.0237
14100TIP3    H163791   2.996   5.636  15.968 -0.7585  0.4301  3.7126
14100TIP3    H263792   2.986   5.786  15.983  1.6221  0.6834  2.9639
14101TIP3   OH263793   5.526   0.967  16.121  0.4966  0.7907 -0.1188
14101TIP3    H163794   5.485   0.984  16.206  0.1306 -1.3626  0.1886
14101TIP3    H263795   5.617   0.993  16.132  0.1928  1.5500  0.5986
14102TIP3   OH263796   5.801   1.199  10.971 -0.4050  0.1558 -0.2640
14102TIP3    H163797   5.869   1.132  10.965 -0.0812  0.6393 -2.4008
14102TIP3    H263798   5.847   1.281  10.953 -1.3614  0.5844 -0.7858
14103TIP3   OH263799   1.305   3.108  11.959 -0.1949  0.0416  0.7140
14103TIP3    H163800   1.366   3.047  11.918  0.1461  0.8907 -0.0337
14103TIP3    H263801   1.357   3.186  11.977 -0.3188 -0.3248  2.8081
14104TIP3   OH263802   3.249   1.595   4.721  0.1364  0.2333 -0.3661
14104TIP3    H163803   3.255   1.688   4.744 -0.9234  0.2359 -0.0507
14104TIP3    H263804   3.174   1.590   4.662 -1.1922 -0.7331  1.3630
14105TIP3   OH263805   3.014   0.423   0.819  0.2588 -0.2172 -0.4586
14105TIP3    H163806   2.990   0.341   0.863  1.7469 -0.3451  0.1522
14105TIP3    H263807   2.939   0.480   0.832 -0.5651 -1.3103 -0.4096
14106TIP3   OH263808   1.675   6.769   1.623  0.3072 -0.1959 -0.2279
14106TIP3    H163809   1.594   6.761   1.572  0.4986  1.4902 -0.8302
14106TIP3    H263810   1.657   6.839   1.686  1.7014  1.0577 -1.1904
14107TIP3   OH263811   5.292   4.300  11.856  0.4474 -0.1139 -0.0114
14107TIP3    H163812   5.225   4.236  11.879 -1.7961  1.3565 -2.1917
14107TIP3    H263813   5.292   4.361  11.930 -0.7917 -0.0142 -0.0736
14108TIP3   OH263814   3.232   0.169  12.499 -0.8244 -0.4835  0.2527
14108TIP3    H163815   3.257   0.197  12.587  1.0034 -0.7473 -0.1589
14108TIP3    H263816   3.283   0.224  12.440 -0.8261 -1.3893 -0.6195
14109TIP3   OH263817   0.901   3.167  14.940  0.6881  0.6342  0.2618
14109TIP3    H163818   0.883   3.125  15.024  0.1942 -0.0392 -0.1724
14109TIP3    H263819   0.837   3.128  14.880  0.6137  1.5807 -0.2813
14110TIP3   OH263820   6.408   4.926   1.324 -0.5097 -0.6865  0.4635
14110TIP3    H163821   6.448   4.923   1.411  0.5442 -0.3520  0.0006
14110TIP3    H263822   6.411   5.019   1.300 -0.8185 -0.7775  0.0826
14111TIP3   OH263823   5.901   4.240   4.218  0.0313 -0.1213 -0.2119
14111TIP3    H163824   5.981   4.264   4.172  0.8056 -0.2407  1.0546
14111TIP3    H263825   5.895   4.303   4.291 -0.6954 -0.4990  0.0629
14112TIP3   OH263826   0.169   0.640  10.680  0.0477 -0.7478  0.2658
14112TIP3    H163827   0.084   0.655  10.723 -0.5900  1.6713 -1.7489
14112TIP3    H263828   0.228   0.702  10.722  0.1019 -0.3840 -0.3378
14113TIP3   OH263829   1.160   0.618   0.525  0.1616 -0.6676  0.1917
14113TIP3    H163830   1.175   0.649   0.615 -1.7838  1.8390 -0.2626
14113TIP3    H263831   1.212   0.677   0.471 -1.4322  0.1186 -0.5236
14114TIP3   OH263832   6.239   1.220  15.921  0.5254  0.2632  1.0812
14114TIP3    H163833   6.159   1.272  15.917  0.4180 -0.0122 -0.9105
14114TIP3    H263834   6.209   1.133  15.946  0.4936  0.7362  2.6991
14115TIP3   OH263835   3.710   4.560   1.940 -0.3951 -1.1241 -0.2497
14115TIP3    H163836   3.785   4.609   1.973  0.1272 -1.7596 -0.4717
14115TIP3    H263837   3.702   4.486   2.000  1.0840 -2.7580 -1.9949
14116TIP3   OH263838   1.144   3.528  16.317 -0.6628 -0.2394  0.1472
14116TIP3    H163839   1.126   3.523  16.411 -1.6415  0.0378 -0.0281
14116TIP3    H263840   1.083   3.467  16.277 -0.9633  0.4249 -0.4083
14117TIP3   OH263841   2.362   5.247   6.108  0.1767 -0.1627  0.1705
14117TIP3    H163842   2.347   5.281   6.020  1.6111  2.6123  0.9236
14117TIP3    H263843   2.456   5.226   6.109  0.6463  1.8722  1.6533
14118TIP3   OH263844   4.951   0.714  12.769 -0.3363  0.2058 -0.6411
14118TIP3    H163845   4.954   0.671  12.683 -3.2611  0.2257 -0.7795
14118TIP3    H263846   4.940   0.807  12.749 -0.0585  0.3284 -0.2364
14119TIP3   OH263847   0.451   1.875   5.828  0.4343 -0.3431 -0.2970
14119TIP3    H163848   0.382   1.816   5.858 -0.8038  0.8420 -0.7560
14119TIP3    H263849   0.468   1.849   5.738 -1.0181  0.7862 -0.9265
14120TIP3   OH263850   2.995   4.853  13.614  0.2187 -0.4024  0.3537
14120TIP3    H163851   2.970   4.819  13.700 -1.3484  1.8960  0.8428
14120TIP3    H263852   2.913   4.868  13.568  1.0306 -1.3191 -1.4835
14121TIP3   OH263853   3.550   1.430  15.605 -0.2634  0.1619  0.0039
14121TIP3    H163854   3.540   1.475  15.689  0.0654 -0.7573  0.5403
14121TIP3    H263855   3.614   1.482  15.557 -0.0605  0.3945  0.5249
14122TIP3   OH263856   0.363   1.490   4.270 -0.1404 -0.3101  0.8270
14122TIP3    H163857   0.321   1.539   4.341 -1.0352  0.7610 -0.4126
14122TIP3    H263858   0.394   1.558   4.210  1.5200 -1.1706  0.6781
14123TIP3   OH263859   2.794   3.386  15.602  0.0076 -1.3043 -0.2099
14123TIP3    H163860   2.796   3.475  15.567 -0.4037 -0.0070  2.8712
14123TIP3    H263861   2.885   3.367  15.626 -0.2684 -0.7643  1.3180
14124TIP3   OH263862   1.525   4.942   5.970  0.0981  0.2529  0.1349
14124TIP3    H163863   1.481   4.920   5.888  0.3612 -1.7581  0.5269
14124TIP3    H263864   1.460   4.925   6.038  1.3147 -2.3365  0.6836
14125TIP3   OH263865   1.268   5.985  16.236 -0.3356 -0.4565 -0.1179
14125TIP3    H163866   1.276   5.890  16.243  1.5544 -0.3652 -0.6401
14125TIP3    H263867   1.354   6.018  16.263 -0.8838  1.0849 -0.2155
14126TIP3   OH263868   1.537   5.068  16.329 -0.0278  0.0711 -0.0432
14126TIP3    H163869   1.589   5.093  16.253  2.4818  1.9297  2.1735
14126TIP3    H263870   1.601   5.030  16.390 -1.8472 -0.6930  1.4466
14127TIP3   OH263871   5.467   4.111   0.497 -0.3154  0.4517  0.0634
14127TIP3    H163872   5.410   4.076   0.566  0.0765 -0.4909 -0.0820
14127TIP3    H263873   5.548   4.132   0.542 -0.3437  0.6195  0.0376
14128TIP3   OH263874   4.854   1.142   2.912  0.2847 -0.1066 -0.2429
14128TIP3    H163875   4.896   1.207   2.856  1.8114 -1.0802 -0.2555
14128TIP3    H263876   4.874   1.058   2.870 -2.8833 -0.5351 -1.0331
14129TIP3   OH263877   5.292   0.717   1.917  0.0245  0.9956 -0.1411
14129TIP3    H163878   5.334   0.796   1.883  1.1658  0.1314 -0.7805
14129TIP3    H263879   5.346   0.645   1.885  1.2380  0.1365  3.6553
14130TIP3   OH263880   4.429   5.396  14.684 -0.6705  0.0487  0.2728
14130TIP3    H163881   4.503   5.385  14.624 -2.1036  0.0837 -1.5362
14130TIP3    H263882   4.458   5.355  14.765  0.8486 -1.1243 -0.8232
14131TIP3   OH263883   2.000   3.015  15.533  0.1168 -0.2354  0.3258
14131TIP3    H163884   2.075   2.970  15.494  0.7176  1.4475 -0.4793
14131TIP3    H263885   1.978   2.962  15.609  0.9280 -1.8021 -0.4991
14132TIP3   OH263886   6.594   2.045   3.281  0.4448  0.5265 -0.7310
14132TIP3    H163887   6.655   2.008   3.344 -0.6832  0.5529  0.3936
14132TIP3    H263888   6.575   2.132   3.314 -1.2994 -0.0029 -0.2793
14133TIP3   OH263889   2.130   1.949   6.142  0.7348 -0.0884  0.3034
14133TIP3    H163890   2.180   1.905   6.211  1.1301 -0.0174  0.0667
14133TIP3    H263891   2.088   1.877   6.094  1.0075 -0.1848  0.2039
14134TIP3   OH263892   6.534   3.558   5.207 -0.0161  0.6454  0.2645
14134TIP3    H163893   6.589   3.489   5.245  0.5528  0.6524 -0.5580
14134TIP3    H263894   6.461   3.510   5.167  0.4444  0.5163 -0.4161
14135TIP3   OH263895   4.221   0.620   4.672 -0.1895 -0.2359 -0.3429
14135TIP3    H163896   4.126   0.629   4.672 -0.1595  0.2531 -1.6392
14135TIP3    H263897   4.254   0.707   4.695 -0.0573 -0.5303  0.5991
14136TIP3   OH263898   6.025   2.653  12.353  0.0547  0.3326  0.5884
14136TIP3    H163899   6.094   2.702  12.310 -0.3477 -1.0761 -1.7463
14136TIP3    H263900   5.946   2.704  12.338 -0.6304 -1.6367 -3.1435
14137TIP3   OH263901   3.913   6.307   4.398  0.2129  0.0620 -0.6806
14137TIP3    H163902   3.869   6.386   4.428 -0.7208 -0.6531 -0.1438
14137TIP3    H263903   4.006   6.323   4.416 -0.1523  0.3132  1.0896
14138TIP3   OH263904   6.285   0.089   4.649  0.4000 -0.3371 -0.3167
14138TIP3    H163905   6.349   0.127   4.708 -1.0226  1.3125  0.1972
14138TIP3    H263906   6.245   0.165   4.605 -1.6369 -1.2899 -0.1532
14139TIP3   OH263907   1.967   4.462   5.276  0.5179 -0.4653  0.9676
14139TIP3    H163908   1.955   4.387   5.334  1.0443 -0.0119  1.6676
14139TIP3    H263909   1.969   4.538   5.334  0.5303  0.0426  0.3129
14140TIP3   OH263910   2.723   4.375   2.608  0.3573  0.2040 -0.5573
14140TIP3    H163911   2.725   4.279   2.600 -0.0436  0.1873 -0.4824
14140TIP3    H263912   2.801   4.405   2.562  0.7956 -0.1957 -0.0805
14141TIP3   OH263913   0.351   5.655  11.652 -0.3734  0.6236 -0.6293
14141TIP3    H163914   0.312   5.729  11.699 -2.3971 -0.5375 -0.4320
14141TIP3    H263915   0.295   5.581  11.674  3.0678 -1.5625  1.2239
14142TIP3   OH263916   3.470   6.052  12.262  0.2307 -0.2558  0.0201
14142TIP3    H163917   3.536   6.054  12.193  0.9551  2.1375  0.7372
14142TIP3    H263918   3.518   6.025  12.340 -0.4294 -2.1993 -0.2238
14143TIP3   OH263919   0.498   6.294   3.793 -0.0337  0.1394  0.2977
14143TIP3    H163920   0.454   6.379   3.784  0.3529  0.1138 -2.1860
14143TIP3    H263921   0.455   6.253   3.868 -3.6023  0.5247 -1.4411
14144TIP3   OH263922   1.201   6.373   1.160  0.2826 -0.4397  0.5359
14144TIP3    H163923   1.267   6.307   1.180 -0.3228 -0.7928  1.4290
14144TIP3    H263924   1.198   6.376   1.065  1.0137 -0.9944  0.4862
14145TIP3   OH263925   3.856   4.696  15.371  0.4015 -0.8641 -0.2094
14145TIP3    H163926   3.836   4.680  15.279  0.3673 -2.0904  0.0116
14145TIP3    H263927   3.804   4.773  15.394  0.5965 -0.4056 -1.2788
14146TIP3   OH263928   6.595   2.670   1.395 -0.3403 -1.1773  0.0143
14146TIP3    H163929   6.690   2.686   1.392 -0.3749 -1.1630 -1.3814
14146TIP3    H263930   6.587   2.585   1.438  0.2199 -0.5467  1.4001
14147TIP3   OH263931   2.371   5.816  11.250  0.1696  0.1368 -0.4641
14147TIP3    H163932   2.319   5.806  11.170 -0.4412 -0.5700  0.0148
14147TIP3    H263933   2.455   5.774  11.229 -0.9700 -2.5435  0.1927
14148TIP3   OH263934   5.688   2.274  15.642 -0.1849  0.2306 -0.1529
14148TIP3    H163935   5.715   2.360  15.612 -0.0696 -0.3998 -1.9102
14148TIP3    H263936   5.678   2.222  15.562 -0.1724 -1.4092  0.8727
14149TIP3   OH263937   4.654   2.004   2.082  0.3278  0.3441  0.2326
14149TIP3    H163938   4.738   1.960   2.071 -0.1882 -0.2955 -1.4616
14149TIP3    H263939   4.675   2.097   2.083  1.1737  0.1526  1.1692
14150TIP3   OH263940   4.820   1.059   5.636 -0.1540  0.1369  0.2487
14150TIP3    H163941   4.826   0.991   5.570 -2.0607  0.8894 -0.7497
14150TIP3    H263942   4.859   1.136   5.594 -0.1671  0.2653  0.4723
14151TIP3   OH263943   0.847   2.123   0.803 -0.9674 -0.2410  0.5532
14151TIP3    H163944   0.840   2.106   0.710 -1.6254 -0.1042  0.5721
14151TIP3    H263945   0.862   2.037   0.843  2.4458  0.0433  0.0650
14152TIP3   OH263946   3.486   0.138   3.802  0.0928  0.0727  0.2857
14152TIP3    H163947   3.432   0.065   3.832  0.3267 -0.7024 -1.1624
14152TIP3    H263948   3.424   0.210   3.789 -0.2414 -0.0873  0.9675
14153TIP3   OH263949   4.635   0.572   3.625 -0.4807 -0.1414 -0.4023
14153TIP3    H163950   4.668   0.574   3.536 -0.2246 -1.6331 -0.3512
14153TIP3    H263951   4.600   0.483   3.636  0.7918 -0.4398  1.4369
14154TIP3   OH263952   4.945   2.153  12.895 -0.2389 -0.0746 -0.2401
14154TIP3    H163953   4.977   2.151  12.804  2.6658  0.2246  0.7134
14154TIP3    H263954   4.916   2.063  12.911  0.1060 -0.3646 -1.1651
14155TIP3   OH263955   6.361   4.585  13.479  0.2620 -0.3647 -0.7984
14155TIP3    H163956   6.388   4.617  13.393  1.7630  0.5476 -0.0066
14155TIP3    H263957   6.265   4.578  13.473  0.2270  0.9423 -2.1109
14156TIP3   OH263958   3.631   5.656  16.432  0.4269 -0.2986 -0.7098
14156TIP3    H163959   3.564   5.723  16.420  0.1846 -0.5054 -0.5093
14156TIP3    H263960   3.709   5.693  16.391  0.1341 -0.1493 -1.1345
14157TIP3   OH263961   0.534   0.942  17.217  0.2199 -0.6134  0.1522
14157TIP3    H163962   0.463   0.881  17.238 -1.7190  1.4932 -0.0353
14157TIP3    H263963   0.603   0.922  17.279 -2.0229 -0.2459  2.8463
14158TIP3   OH263964   2.445   1.344  11.803 -0.4723 -0.0716 -0.4890
14158TIP3    H163965   2.440   1.331  11.898  0.3493 -0.4085 -0.4964
14158TIP3    H263966   2.363   1.307  11.770 -1.0881  0.6911  0.1613
14159TIP3   OH263967   3.981   5.464   1.168 -0.5898 -0.5190  0.4182
14159TIP3    H163968   3.928   5.509   1.103 -0.1197  0.8060  0.9341
14159TIP3    H263969   3.989   5.527   1.240 -0.5913 -1.7294  1.4877
14160TIP3   OH263970   6.700   2.665   0.861  0.0154  0.0438 -0.4913
14160TIP3    H163971   6.729   2.728   0.795  1.0744  2.1259  1.8848
14160TIP3    H263972   6.630   2.710   0.908 -0.4523 -1.2661  0.0856
14161TIP3   OH263973   1.814   1.411  12.854 -0.1791 -0.2514 -0.4455
14161TIP3    H163974   1.806   1.315  12.850 -1.1291 -0.3194  2.1876
14161TIP3    H263975   1.724   1.443  12.859  0.1690  0.7404 -0.3953
14162TIP3   OH263976   6.531   6.075   5.759 -0.3982  0.0009 -0.0248
14162TIP3    H163977   6.504   5.991   5.722  0.4332 -0.5920  0.6891
14162TIP3    H263978   6.627   6.073   5.755 -0.4030  1.7046 -1.7365
14163TIP3   OH263979   4.699   3.676  13.722 -0.1812  0.2152 -0.2684
14163TIP3    H163980   4.691   3.609  13.654  0.6702  0.6101 -0.7765
14163TIP3    H263981   4.761   3.639  13.785 -2.4662 -0.9744  1.3319
14164TIP3   OH263982   0.678   4.316  13.324 -0.0427 -0.0863  0.3253
14164TIP3    H163983   0.614   4.325  13.253  0.5482  2.0354  0.0095
14164TIP3    H263984   0.686   4.405  13.360  0.9696 -0.7926  1.9033
14165TIP3   OH263985   4.530   1.221  12.856  0.0852 -0.2689  0.2091
14165TIP3    H163986   4.546   1.174  12.774 -1.0746  0.1720 -0.2849
14165TIP3    H263987   4.615   1.221  12.901  0.2414 -2.3690 -0.0167
14166TIP3   OH263988   0.732   1.548   2.488  0.2801 -0.1437  0.0579
14166TIP3    H163989   0.759   1.630   2.446  1.5418  0.1560  1.4194
14166TIP3    H263990   0.699   1.574   2.574 -0.2225 -0.9704  0.1237
14167TIP3   OH263991   1.349   1.497  12.172  0.3612 -0.3849 -0.0372
14167TIP3    H163992   1.299   1.416  12.157 -3.5761  1.9069  0.2147
14167TIP3    H263993   1.373   1.494  12.264 -1.1087 -0.5460  0.3431
14168TIP3   OH263994   2.927   0.389   5.544  0.1270 -0.2375  0.3246
14168TIP3    H163995   2.925   0.414   5.452 -0.1089 -0.9273  0.1385
14168TIP3    H263996   2.929   0.293   5.543  1.5110 -0.2196  1.0221
14169TIP3   OH263997   3.350   4.766  11.960  0.1307  0.8171 -0.4067
14169TIP3    H163998   3.410   4.735  12.027 -0.9262 -0.3207  0.0389
14169TIP3    H263999   3.403   4.771  11.880  0.8052 -0.1884 -0.0276
14170TIP3   OH264000   3.967   6.445  16.542 -0.1669 -0.3494 -0.1819
14170TIP3    H164001   4.003   6.480  16.623 -0.0612 -0.1715 -0.3062
14170TIP3    H264002   3.950   6.522  16.488  1.4395 -0.5769 -1.0319
14171TIP3   OH264003   4.398   5.931  12.049 -0.8649 -0.2229 -0.6389
14171TIP3    H164004   4.399   5.846  12.006 -0.4755  0.5254 -2.1628
14171TIP3    H264005   4.408   5.994  11.977  1.2038  1.0099  0.6676
14172TIP3   OH264006   4.363   1.100  13.109 -0.1995  0.3910 -0.6198
14172TIP3    H164007   4.289   1.054  13.068 -0.8245 -1.0527  2.0177
14172TIP3    H264008   4.426   1.111  13.038 -2.2291  0.1043 -2.5187
14173TIP3   OH264009   3.553   1.217   3.847 -0.2233 -0.0422 -0.1605
14173TIP3    H164010   3.548   1.130   3.887 -0.8685 -0.3018 -0.8100
14173TIP3    H264011   3.645   1.225   3.821 -0.0413 -0.3106  0.3844
14174TIP3   OH264012   5.120   5.212  11.161  0.0830 -0.1850  0.6234
14174TIP3    H164013   5.168   5.133  11.138 -0.2473  0.5045 -2.6398
14174TIP3    H264014   5.028   5.188  11.156 -0.0039 -0.0866  1.5676
14175TIP3   OH264015   2.248   2.995   3.440  0.1930 -0.5421  0.0766
14175TIP3    H164016   2.186   2.924   3.421 -0.0082 -0.1772 -0.6149
14175TIP3    H264017   2.215   3.035   3.520  0.5073 -1.4653  0.6741
14176TIP3   OH264018   2.816   3.296   4.294 -0.0072 -0.1970 -0.0087
14176TIP3    H164019   2.734   3.262   4.259  0.1528 -1.3088  0.6553
14176TIP3    H264020   2.821   3.386   4.262 -0.6027 -0.6986 -1.5396
14177TIP3   OH264021   2.668   0.467  14.916 -0.1401  0.1745 -0.0497
14177TIP3    H164022   2.665   0.488  14.823 -0.2630 -0.0876 -0.1065
14177TIP3    H264023   2.582   0.494  14.950  0.0829  0.7147  0.0867
14178TIP3   OH264024   0.363   4.800  11.595  0.0795 -0.2493 -0.3096
14178TIP3    H164025   0.329   4.797  11.684  0.8832 -1.4113 -0.0392
14178TIP3    H264026   0.366   4.894  11.574 -0.9865 -0.0155  0.5366
14179TIP3   OH264027   5.254   5.986  14.192  0.1828 -0.2287 -0.1447
14179TIP3    H164028   5.323   5.961  14.254  0.9517 -2.0054 -1.6837
14179TIP3    H264029   5.280   6.073  14.161  1.1472 -0.4267  0.1067
14180TIP3   OH264030   6.444   3.208   5.419  0.1124 -0.1828  0.2108
14180TIP3    H164031   6.500   3.278   5.451  1.5619 -0.9930 -0.5319
14180TIP3    H264032   6.357   3.230   5.453  0.6134  1.7635  0.3027
14181TIP3   OH264033   6.233   2.105  11.397 -0.6226  0.0981 -0.2514
14181TIP3    H164034   6.194   2.188  11.425 -0.4970  0.8019 -2.0778
14181TIP3    H264035   6.160   2.043  11.396 -0.8221  0.3127  0.5874
14182TIP3   OH264036   1.092   3.325   6.196 -0.4659 -0.4037  0.1577
14182TIP3    H164037   1.034   3.320   6.273  1.2189 -0.6821  1.4363
14182TIP3    H264038   1.122   3.416   6.194 -0.2614 -0.4737  0.0275
14183TIP3   OH264039   3.534   6.279  14.111 -0.6553  0.2890  0.0181
14183TIP3    H164040   3.622   6.246  14.090 -1.3304  0.1643 -2.7834
14183TIP3    H264041   3.550   6.359  14.160  1.0089 -0.4554  0.7504
14184TIP3   OH264042   4.641   6.482  13.689 -0.1208 -0.0744  0.2194
14184TIP3    H164043   4.592   6.494  13.608 -0.3978 -0.3782  0.3411
14184TIP3    H264044   4.642   6.387  13.702 -0.6895  0.0153  0.9481
14185TIP3   OH264045   2.423   3.426   3.866 -0.0496  0.0673  0.4024
14185TIP3    H164046   2.509   3.411   3.828  0.3698  0.0084  1.3546
14185TIP3    H264047   2.361   3.390   3.803  0.8060 -3.5799  1.5682
14186TIP3   OH264048   1.963   2.359   0.405  0.0843 -0.0131 -0.1290
14186TIP3    H164049   2.009   2.423   0.350  0.7794 -0.8126 -0.5036
14186TIP3    H264050   2.013   2.358   0.486  0.3587 -0.4250 -0.3017
14187TIP3   OH264051   5.201   5.372  12.194  0.6687  0.2063  0.2245
14187TIP3    H164052   5.134   5.337  12.136  1.2139 -0.4562 -0.0139
14187TIP3    H264053   5.197   5.466  12.181 -0.8315  0.2477  0.8877
14188TIP3   OH264054   0.404   0.178  10.587 -0.1143 -0.1294 -0.2536
14188TIP3    H164055   0.346   0.231  10.532  0.2353 -0.5632 -1.0490
14188TIP3    H264056   0.352   0.101  10.610  0.1768 -0.5774 -1.0680
14189TIP3   OH264057   3.389   4.106  17.151  0.4029  0.6083 -0.0690
14189TIP3    H164058   3.320   4.172  17.154  0.7656  1.0152 -0.5412
14189TIP3    H264059   3.427   4.107  17.239  1.0905  1.7742 -0.3617
14190TIP3   OH264060   6.546   5.347  12.409 -0.1263 -0.2269 -0.3281
14190TIP3    H164061   6.501   5.419  12.365  0.5369  0.9297  0.8767
14190TIP3    H264062   6.490   5.327  12.485  0.5518  0.1304  0.2659
14191TIP3   OH264063   2.670   4.116   3.629 -0.1784  0.1518  0.7567
14191TIP3    H164064   2.641   4.143   3.542  0.2591 -0.4015  0.4411
14191TIP3    H264065   2.748   4.064   3.614  0.3999  0.7769  1.5395
14192TIP3   OH264066   3.138   4.803   3.339  0.3899 -0.2789 -0.0767
14192TIP3    H164067   3.058   4.842   3.305  0.0579 -0.1543  0.8583
14192TIP3    H264068   3.130   4.710   3.319 -0.4643 -0.4297  0.9698
14193TIP3   OH264069   0.261   0.346   1.474 -0.2733  0.0185 -0.1356
14193TIP3    H164070   0.287   0.349   1.566 -1.0742  0.3713  0.0840
14193TIP3    H264071   0.172   0.309   1.476  0.8664 -2.9135 -0.9987
14194TIP3   OH264072   4.765   2.331  13.017  0.3745 -0.2607 -0.0897
14194TIP3    H164073   4.836   2.290  12.969 -0.1091 -1.5326  0.2350
14194TIP3    H264074   4.758   2.279  13.098  1.2760  1.9108  1.4394
14195TIP3   OH264075   2.175   2.954   1.015 -0.1783 -0.0822  0.4280
14195TIP3    H164076   2.123   2.924   0.941  1.4513 -0.1312 -0.7073
14195TIP3    H264077   2.130   3.032   1.047 -0.7494  0.0664 -0.7459
14196TIP3   OH264078   1.355   2.125  14.554 -0.1021  0.4665  0.8436
14196TIP3    H164079   1.339   2.207  14.602 -1.9825 -0.4095  1.7749
14196TIP3    H264080   1.450   2.120  14.545  0.1087  2.0910  1.9493
14197TIP3   OH264081   6.819   1.932   1.064 -0.1599  0.8947  0.0686
14197TIP3    H164082   6.824   1.837   1.072  1.5283  1.0155  0.5830
14197TIP3    H264083   6.753   1.958   1.129 -2.0493 -0.0755 -1.4215
14198TIP3   OH264084   5.461   5.879   1.827  0.2207 -0.0114 -0.1308
14198TIP3    H164085   5.495   5.928   1.901 -0.1763  1.3353 -0.8221
14198TIP3    H264086   5.439   5.946   1.762  0.7184 -1.1696 -1.5240
14199TIP3   OH264087   2.049   2.406   4.278  0.0064 -0.1013  0.0058
14199TIP3    H164088   2.144   2.418   4.270 -0.1437  0.2565 -1.3690
14199TIP3    H264089   2.032   2.321   4.238 -0.5222  0.8467 -1.8532
14200TIP3   OH264090   3.892   0.369  11.873  0.2977  0.4847 -0.0279
14200TIP3    H164091   3.840   0.323  11.806  0.0300  2.5427 -1.2741
14200TIP3    H264092   3.827   0.405  11.933  0.4862 -0.3911  0.7036
14201TIP3   OH264093   2.151   1.849  13.943 -0.2191 -0.5304 -0.1684
14201TIP3    H164094   2.075   1.796  13.968 -0.6577 -0.0497 -0.4728
14201TIP3    H264095   2.226   1.791  13.955 -0.8546 -1.8284 -2.2055
14202TIP3   OH264096   0.741   1.979   0.059  0.2805 -0.7301 -0.0605
14202TIP3    H164097   0.715   1.957   0.149 -0.1551 -0.8052 -0.2035
14202TIP3    H264098   0.812   2.042   0.070  1.4681 -2.0989  0.3617
14203TIP3   OH264099   2.114   0.217  16.130  0.2026  0.5440  0.3972
14203TIP3    H164100   2.029   0.195  16.168  0.2517 -0.1567  0.1220
14203TIP3    H264101   2.156   0.132  16.116 -0.2953  0.6897 -2.3557
14204TIP3   OH264102   1.151   0.807   2.608 -0.1137 -0.4479 -0.0609
14204TIP3    H164103   1.216   0.875   2.623  1.5467 -1.9271 -0.4555
14204TIP3    H264104   1.177   0.766   2.525 -1.5086 -1.0855 -0.2072
14205TIP3   OH264105   5.469   3.579  11.892 -0.1730 -0.3817  0.5406
14205TIP3    H164106   5.475   3.521  11.816 -1.0144  0.4550 -0.1846
14205TIP3    H264107   5.417   3.653  11.861  1.1793  0.9352  1.3444
14206TIP3   OH264108   5.453   5.504   4.920  0.3929  0.0296  0.1105
14206TIP3    H164109   5.366   5.529   4.953  0.1751 -2.9330  1.9639
14206TIP3    H264110   5.460   5.549   4.835 -3.4276 -0.5613 -0.6244
14207TIP3   OH264111   6.125   1.781  14.839 -0.0043  0.3132  0.0787
14207TIP3    H164112   6.070   1.703  14.836  0.5838 -0.1074 -0.0733
14207TIP3    H264113   6.125   1.815  14.749  1.2450 -0.5983 -0.2884
14208TIP3   OH264114   0.340   6.317   6.283 -0.2506 -0.5301  0.2932
14208TIP3    H164115   0.432   6.309   6.257 -0.2372 -0.9152  0.4593
14208TIP3    H264116   0.305   6.386   6.227  0.6407  0.9998  1.5604
14209TIP3   OH264117   3.630   1.219   2.568 -0.1047  0.3921 -0.3149
14209TIP3    H164118   3.541   1.231   2.533  0.0289  0.0934 -0.7650
14209TIP3    H264119   3.621   1.232   2.662 -0.5909  0.5685 -0.3844
14210TIP3   OH264120   5.492   5.707   1.239  0.1014 -0.2657 -0.5617
14210TIP3    H164121   5.549   5.708   1.316 -0.0289 -0.1593 -0.4660
14210TIP3    H264122   5.496   5.795   1.204  0.0790 -0.2865 -0.6164
14211TIP3   OH264123   5.496   1.395  12.868 -0.4209  0.1300  0.0585
14211TIP3    H164124   5.440   1.318  12.859 -2.1957  1.1553  1.9597
14211TIP3    H264125   5.446   1.466  12.827 -0.1378  0.8795  0.9916
14212TIP3   OH264126   2.766   2.727  11.098  0.1015  0.2603  0.1877
14212TIP3    H164127   2.685   2.777  11.103  0.8518  1.4906  0.3000
14212TIP3    H264128   2.791   2.731  11.006 -1.2356 -2.1988 -0.3078
14213TIP3   OH264129   5.242   5.904   1.199 -0.2832 -0.3243 -0.0234
14213TIP3    H164130   5.229   5.856   1.280 -0.0590  0.4379  0.4671
14213TIP3    H264131   5.331   5.940   1.206 -1.5481  2.7731  0.9985
14214TIP3   OH264132   4.099   5.120  14.219 -0.1509 -0.5024 -0.3193
14214TIP3    H164133   4.023   5.062  14.210 -0.4522 -0.6213  2.3517
14214TIP3    H264134   4.061   5.208  14.218 -0.0753 -0.4772 -1.0904
14215TIP3   OH264135   2.933   2.587   0.138  0.1652  0.0424 -0.1066
14215TIP3    H164136   2.892   2.657   0.188  1.8119  1.3451 -0.5308
14215TIP3    H264137   2.878   2.578   0.060  0.6904  1.8903 -0.7462
14216TIP3   OH264138   0.230   5.187   1.123  0.4435  0.1838  0.2210
14216TIP3    H164139   0.189   5.135   1.192 -0.2209  2.5393  1.6520
14216TIP3    H264140   0.314   5.214   1.160  0.5929  0.4799 -0.3323
14217TIP3   OH264141   0.900   6.126   4.591  0.4782 -0.4927  0.5057
14217TIP3    H164142   0.806   6.125   4.577  0.5891  0.9071 -0.3607
14217TIP3    H264143   0.913   6.071   4.669 -0.8845 -2.0094 -0.3138
14218TIP3   OH264144   2.972   5.636   3.316 -0.0325  0.3173  0.4602
14218TIP3    H164145   3.026   5.685   3.255  0.3364 -0.5384  0.1037
14218TIP3    H264146   2.897   5.607   3.264  0.5120 -0.8090  0.2889
14219TIP3   OH264147   1.210   5.045   5.263  0.3767 -0.0319  0.2033
14219TIP3    H164148   1.204   5.015   5.172  0.5446 -1.2220  0.5789
14219TIP3    H264149   1.169   4.976   5.314 -0.6863  1.1372  0.9456
14220TIP3   OH264150   1.764   4.440   4.935 -0.2630 -0.3668  0.5869
14220TIP3    H164151   1.695   4.427   5.000 -0.0685 -1.4998  0.5754
14220TIP3    H264152   1.800   4.526   4.955 -1.1854 -0.0831  1.0581
14221TIP3   OH264153   3.581   3.945   1.178 -0.6355  0.0773  0.5480
14221TIP3    H164154   3.501   3.970   1.131  0.5254 -1.7339 -2.6021
14221TIP3    H264155   3.556   3.866   1.226 -0.5337 -1.1230 -1.2957
14222TIP3   OH264156   4.412   2.045  11.523  0.0537 -0.3676 -0.2440
14222TIP3    H164157   4.381   1.998  11.444 -0.2544  0.7673 -0.8077
14222TIP3    H264158   4.470   1.983  11.566 -2.0387 -2.1217  0.1851
14223TIP3   OH264159   2.077   6.747   4.037 -0.0371 -0.3389  0.4738
14223TIP3    H164160   1.993   6.738   3.991 -0.5812  1.1231  1.1558
14223TIP3    H264161   2.069   6.687   4.112 -0.3748 -0.3794  0.4067
14224TIP3   OH264162   1.507   2.426  12.578  0.0381 -0.0383 -0.4399
14224TIP3    H164163   1.498   2.516  12.547 -1.6528  0.1107  0.3841
14224TIP3    H264164   1.567   2.385  12.517  0.2063  1.4418 -1.2940
14225TIP3   OH264165   5.522   0.045   1.359  0.2277 -0.1587  0.0299
14225TIP3    H164166   5.591  -0.002   1.406  1.6385  0.2470 -1.6368
14225TIP3    H264167   5.534   0.136   1.383  1.7584  0.2245 -2.0853
14226TIP3   OH264168   6.001   0.275   3.134  0.4482  0.3584  0.1868
14226TIP3    H164169   6.077   0.228   3.169 -0.3833 -1.6034 -0.5861
14226TIP3    H264170   5.944   0.287   3.210  0.4887 -0.2611  0.3201
14227TIP3   OH264171   3.599   4.450   3.308  0.1663 -0.3300  0.1861
14227TIP3    H164172   3.526   4.409   3.261  0.4389 -0.3863 -0.1893
14227TIP3    H264173   3.616   4.392   3.382 -1.0303  0.3698  1.0202
14228TIP3   OH264174   3.876   3.394   5.732  0.2936  0.0614  0.4115
14228TIP3    H164175   3.842   3.339   5.803  0.1892  1.3675  1.3910
14228TIP3    H264176   3.967   3.409   5.755  0.8663 -1.3068 -0.8805
14229TIP3   OH264177   6.617   1.323  13.890 -0.0566  0.4274 -0.5593
14229TIP3    H164178   6.660   1.249  13.933 -0.4943  0.0326 -0.7894
14229TIP3    H264179   6.615   1.299  13.797 -0.8111  0.4155 -0.5425
14230TIP3   OH264180   3.225   2.537   2.899 -0.0739  0.4558  0.5282
14230TIP3    H164181   3.283   2.605   2.935  0.7952 -0.3427  0.6580
14230TIP3    H264182   3.285   2.471   2.865 -0.9255 -1.0974  2.0056
14231TIP3   OH264183   5.958   5.131  12.202 -0.4891  0.7258 -0.1457
14231TIP3    H164184   5.953   5.222  12.231 -3.0489  1.3579 -2.3331
14231TIP3    H264185   5.975   5.137  12.108 -1.5535 -1.0225 -0.4701
14232TIP3   OH264186   4.699   1.385   1.625 -0.2202  0.1755  0.0171
14232TIP3    H164187   4.676   1.408   1.535  1.2751  1.1468 -0.1467
14232TIP3    H264188   4.633   1.431   1.678 -1.6722 -1.1556 -0.5929
14233TIP3   OH264189   5.735   3.357  15.572 -0.3981 -0.1825 -0.0482
14233TIP3    H164190   5.714   3.331  15.662 -0.0670 -0.5467 -0.0804
14233TIP3    H264191   5.657   3.405  15.543 -0.1954  0.6408  0.7118
14234TIP3   OH264192   3.991   0.823  12.399 -0.6874 -0.8209  0.8942
14234TIP3    H164193   4.064   0.885  12.398  0.0475 -1.6811  0.5757
14234TIP3    H264194   3.913   0.878  12.399 -0.0501  0.1720  3.3903
14235TIP3   OH264195   3.297   6.483  14.373 -0.3658 -0.5142 -0.4516
14235TIP3    H164196   3.305   6.449  14.283 -0.6155 -2.1224  0.1151
14235TIP3    H264197   3.202   6.483  14.389 -0.3073 -0.4308 -0.1191
14236TIP3   OH264198   5.911   4.561  12.230  0.0053 -0.8092 -0.5155
14236TIP3    H164199   5.855   4.636  12.247  0.3115 -0.6783 -0.0724
14236TIP3    H264200   5.860   4.505  12.171 -0.2231 -0.2567 -0.8451
14237TIP3   OH264201   5.207   2.504   1.185  0.2272 -0.6243  0.0289
14237TIP3    H164202   5.283   2.549   1.223  1.2511 -1.3010 -1.2007
14237TIP3    H264203   5.202   2.535   1.095 -0.5889 -1.0704 -0.0900
14238TIP3   OH264204   1.016   1.530   1.337  0.4023 -0.1674 -0.1655
14238TIP3    H164205   0.956   1.502   1.406  3.0257 -1.1411  1.8348
14238TIP3    H264206   0.961   1.578   1.276 -2.6027 -2.0264  0.9396
14239TIP3   OH264207   5.388   4.581  16.312  0.2026  0.2595 -0.0106
14239TIP3    H164208   5.435   4.610  16.390  1.1053  1.8732 -1.1254
14239TIP3    H264209   5.371   4.661  16.263  0.4654 -0.8291 -1.9342
14240TIP3   OH264210   3.531   1.798  12.452 -0.3434 -0.0489  0.0706
14240TIP3    H164211   3.495   1.759  12.372  0.0320  3.4304 -1.8933
14240TIP3    H264212   3.624   1.811  12.434  0.3606 -1.7606  2.1787
14241TIP3   OH264213   6.758   6.600   6.567  0.0288 -0.2666  0.1199
14241TIP3    H164214   6.717   6.521   6.531  0.3956 -0.1442 -0.5653
14241TIP3    H264215   6.846   6.602   6.529 -0.3660  1.0801 -0.7583
14242TIP3   OH264216   6.246   2.000  16.297 -0.3587 -0.5940 -0.2553
14242TIP3    H164217   6.224   2.081  16.344 -1.6314 -0.3791 -1.1835
14242TIP3    H264218   6.224   2.019  16.206 -0.5231 -1.9361 -0.5059
14243TIP3   OH264219   5.914   3.656   4.014  0.0004 -0.1610  0.4415
14243TIP3    H164220   5.978   3.598   4.055  0.0524 -0.1832  0.3286
14243TIP3    H264221   5.842   3.661   4.078 -0.7975 -1.7477 -0.2888
14244TIP3   OH264222   1.534   5.725  12.648  0.2816  0.2160  0.2501
14244TIP3    H164223   1.625   5.753  12.631  0.2480 -0.6382 -1.4747
14244TIP3    H264224   1.533   5.701  12.740  2.2939 -1.4712 -0.1211
14245TIP3   OH264225   2.785   4.815  15.634  0.8047 -0.6497 -0.0546
14245TIP3    H164226   2.756   4.792  15.546  1.8369  1.5706 -1.0096
14245TIP3    H264227   2.710   4.860  15.673  0.0704 -2.3162  0.5178
14246TIP3   OH264228   2.324   1.954   1.915 -0.5403  0.5679 -0.0636
14246TIP3    H164229   2.337   2.049   1.923 -0.8148  0.6841 -0.8912
14246TIP3    H264230   2.354   1.919   1.999 -1.4646  1.4812  0.6620
14247TIP3   OH264231   4.938   3.044  13.317  0.9941 -0.3362 -0.3302
14247TIP3    H164232   4.973   3.012  13.234  1.1585 -0.0294 -0.3772
14247TIP3    H264233   4.897   2.967  13.357 -2.4419  0.2728 -2.4302
14248TIP3   OH264234   4.754   2.766   1.652  0.2833 -0.2342 -0.8031
14248TIP3    H164235   4.763   2.834   1.718  2.5712 -1.4905  0.2483
14248TIP3    H264236   4.681   2.713   1.681 -0.3674  0.7249 -0.6732
14249TIP3   OH264237   0.308   2.010   2.222  0.2969 -0.3052  0.2774
14249TIP3    H164238   0.334   2.100   2.201  0.4948 -0.7203 -1.3097
14249TIP3    H264239   0.223   2.019   2.265 -0.1138  0.6020 -0.6862
14250TIP3   OH264240   2.882   2.894  16.626  0.1745 -0.6143  0.0538
14250TIP3    H164241   2.825   2.918  16.700 -1.3333 -1.7733 -0.7220
14250TIP3    H264242   2.824   2.852  16.563  1.2836  1.0786 -2.1781
14251TIP3   OH264243   1.488   3.291   3.588  0.0817  0.0294  0.1636
14251TIP3    H164244   1.444   3.226   3.644 -0.9551  0.8193  0.2721
14251TIP3    H264245   1.452   3.375   3.615  1.8751  0.7356  0.4510
14252TIP3   OH264246   6.125   5.242   0.833  0.2043  0.6791 -0.2350
14252TIP3    H164247   6.146   5.149   0.827  0.5044  0.6180  1.5811
14252TIP3    H264248   6.204   5.286   0.803  1.0494  0.3656  1.4670
14253TIP3   OH264249   1.864   5.704  15.881 -0.2769 -0.3361 -0.0708
14253TIP3    H164250   1.869   5.628  15.824  1.2158 -0.7569  0.6056
14253TIP3    H264251   1.948   5.748  15.871 -1.5727  1.9617 -1.4266
14254TIP3   OH264252   4.760   5.726   4.048  0.3043 -0.2311 -0.6591
14254TIP3    H164253   4.812   5.703   4.125  0.3185  1.1595 -0.2387
14254TIP3    H264254   4.674   5.749   4.083  0.9674  2.6330 -0.7948
14255TIP3   OH264255   6.738   2.051  11.568 -0.2302 -0.2824 -0.3418
14255TIP3    H164256   6.758   2.133  11.522 -2.7933 -0.7658 -2.4051
14255TIP3    H264257   6.670   2.010  11.515  0.4949 -3.4176  1.0635
14256TIP3   OH264258   4.728   5.666   5.180  0.1498  0.7692 -0.1340
14256TIP3    H164259   4.822   5.650   5.182  0.0781 -0.3589 -3.3297
14256TIP3    H264260   4.688   5.580   5.189 -0.5604  1.0353 -0.7033
14257TIP3   OH264261   1.916   1.555   4.463  0.9513  0.0100  0.7454
14257TIP3    H164262   1.889   1.469   4.493  3.4818  0.0599  3.4202
14257TIP3    H264263   1.859   1.616   4.509 -1.4165 -0.1710 -1.7934
14258TIP3   OH264264   1.451   5.503   5.213 -0.7588  0.0214 -0.1164
14258TIP3    H164265   1.420   5.522   5.124  0.9304 -0.3868 -0.7998
14258TIP3    H264266   1.449   5.588   5.258  0.5249  0.6482 -1.2155
14259TIP3   OH264267   5.144   5.733   3.746  0.5915  0.1282  0.0811
14259TIP3    H164268   5.095   5.787   3.684  1.2949  0.0026 -0.5952
14259TIP3    H264269   5.081   5.711   3.814 -0.0521  0.7072 -0.3210
14260TIP3   OH264270   6.165   2.228   1.591 -0.5826 -0.1573  0.1403
14260TIP3    H164271   6.160   2.140   1.555  2.1879  0.1943 -1.2691
14260TIP3    H264272   6.080   2.267   1.572 -1.3203 -2.0420 -0.4928
14261TIP3   OH264273   5.049   1.087  13.688  0.0432 -0.3248 -0.4117
14261TIP3    H164274   5.010   1.145  13.753 -0.7547 -1.7711  0.4142
14261TIP3    H264275   5.141   1.081  13.713  0.4342  1.6253 -1.2806
14262TIP3   OH264276   2.233   2.521   4.827  0.1434 -0.0241 -0.2009
14262TIP3    H164277   2.274   2.479   4.751  0.3011  0.8555 -0.6045
14262TIP3    H264278   2.141   2.497   4.820  0.3481 -0.8546 -0.0629
14263TIP3   OH264279   6.394   1.938  13.436 -0.2422 -0.1087  0.2153
14263TIP3    H164280   6.390   1.945  13.341 -0.2239 -2.3341  0.0227
14263TIP3    H264281   6.433   1.852  13.452 -1.1607 -0.1796  2.2296
14264TIP3   OH264282   4.772   6.697   2.441  0.1079  0.3024 -0.2500
14264TIP3    H164283   4.740   6.785   2.418 -2.1039 -0.0761  1.1559
14264TIP3    H264284   4.774   6.650   2.358 -0.6297  1.0940 -0.7346
14265TIP3   OH264285   1.260   1.050  12.036  0.0524 -0.3207  0.1276
14265TIP3    H164286   1.275   1.127  12.091 -0.4656  0.4323 -0.7641
14265TIP3    H264287   1.165   1.040  12.035  0.1507 -1.4475  0.8601
14266TIP3   OH264288   4.368   6.044  15.422 -0.1974 -0.0355  0.1130
14266TIP3    H164289   4.342   6.017  15.510 -0.1506 -0.9882 -0.1574
14266TIP3    H264290   4.457   6.078  15.432 -0.6120  0.9207  0.6207
14267TIP3   OH264291   2.673   4.891  12.698  0.6031 -0.2787  0.2729
14267TIP3    H164292   2.610   4.826  12.728 -0.4201  0.5947  0.0834
14267TIP3    H264293   2.733   4.843  12.641  0.9693 -1.4118  1.6075
14268TIP3   OH264294   1.301   4.801   5.774  0.2075 -0.4575  0.1939
14268TIP3    H164295   1.271   4.731   5.831  0.9581 -0.6874  0.3008
14268TIP3    H264296   1.332   4.757   5.695  0.1055 -0.2029  0.0094
14269TIP3   OH264297   6.782   0.295  12.299  0.6887 -0.1950  0.0037
14269TIP3    H164298   6.860   0.240  12.301  1.4954  0.9360 -0.5519
14269TIP3    H264299   6.811   0.380  12.330 -0.9072 -0.4651  2.3792
14270TIP3   OH264300   5.545   5.394   3.997 -0.4293 -0.5113  0.1150
14270TIP3    H164301   5.529   5.346   4.078  1.0775 -0.0298  0.7193
14270TIP3    H264302   5.532   5.330   3.927 -1.1561 -1.0799  0.7765
14271TIP3   OH264303   4.564   0.830   5.035  0.3049  0.2709  0.2250
14271TIP3    H164304   4.610   0.762   5.084  0.7983  0.9029  0.6466
14271TIP3    H264305   4.471   0.808   5.046  0.4178  0.2761  1.2530
14272TIP3   OH264306   5.738   5.306  14.391  0.0313  0.1849  0.3973
14272TIP3    H164307   5.718   5.398  14.371  2.0896  0.5523 -0.1001
14272TIP3    H264308   5.652   5.264  14.398 -0.9250  1.4810 -2.5042
14273TIP3   OH264309   3.279   2.917   1.050 -0.4969  0.1672  0.3700
14273TIP3    H164310   3.353   2.977   1.061  0.6442 -1.0916 -0.2580
14273TIP3    H264311   3.300   2.868   0.971 -1.5619 -0.8642  0.7138
14274TIP3   OH264312   6.421   3.629  13.125 -0.5581 -1.2576  0.4379
14274TIP3    H164313   6.451   3.547  13.084  2.1279 -0.3880  0.5894
14274TIP3    H264314   6.460   3.698  13.071  2.8168 -0.0814  4.1495
14275TIP3   OH264315   5.726   0.666   3.323  0.5398 -0.2221  0.8601
14275TIP3    H164316   5.726   0.588   3.266  1.5968 -0.7086  1.5153
14275TIP3    H264317   5.763   0.635   3.405  0.4497  0.8590  1.3080
14276TIP3   OH264318   2.293   5.044   0.123  0.3461  0.1153 -0.0641
14276TIP3    H164319   2.238   5.024   0.048  0.7140  0.6217 -0.4745
14276TIP3    H264320   2.352   4.969   0.131  0.0680 -0.1049 -0.0487
14277TIP3   OH264321   4.599   4.116  10.972 -0.2498 -0.6032  0.4422
14277TIP3    H164322   4.645   4.200  10.979 -1.5324  0.0071  1.7501
14277TIP3    H264323   4.596   4.099  10.878 -1.0464  1.4242  0.0646
14278TIP3   OH264324   2.685   6.138   6.208  0.2501 -0.2947 -0.2365
14278TIP3    H164325   2.595   6.107   6.208 -0.1949  0.9416 -0.3435
14278TIP3    H264326   2.709   6.142   6.115  0.5951 -1.1284 -0.1822
14279TIP3   OH264327   3.202   3.108  12.696  0.5652  0.2122 -0.3005
14279TIP3    H164328   3.163   3.076  12.615  1.7906  1.1206 -1.2601
14279TIP3    H264329   3.291   3.071  12.696 -0.5261 -2.6574  2.3350
14280TIP3   OH264330   3.383   0.467  11.397 -0.0083 -0.1640  0.0154
14280TIP3    H164331   3.358   0.472  11.304  0.7469  1.1573 -0.1313
14280TIP3    H264332   3.465   0.418  11.396  0.2344  0.2395 -0.0690
14281TIP3   OH264333   5.823   0.951   4.448 -0.2140  0.0479 -0.4326
14281TIP3    H164334   5.744   0.908   4.415 -0.7879 -0.3882  1.4641
14281TIP3    H264335   5.791   1.020   4.505  0.7684  0.7235 -0.6934
14282TIP3   OH264336   6.113   1.316   5.376 -0.7793 -0.5838  0.3661
14282TIP3    H164337   6.062   1.363   5.441  0.5351  0.8578  0.3871
14282TIP3    H264338   6.051   1.255   5.336 -2.3794  0.7640  0.7454
14283TIP3   OH264339   1.482   6.239   2.544  0.1160  0.3183  0.1603
14283TIP3    H164340   1.503   6.246   2.451  0.9524  2.4274  0.4893
14283TIP3    H264341   1.494   6.328   2.579 -1.3512 -0.1836  2.0409
14284TIP3   OH264342   0.626   4.820   4.360  0.6204 -0.4386  0.2606
14284TIP3    H164343   0.635   4.861   4.446 -0.1093  2.0278 -0.7954
14284TIP3    H264344   0.537   4.783   4.361  0.0796  0.8135  0.0941
14285TIP3   OH264345   0.680   3.253  12.178  0.0500  0.1581 -0.0898
14285TIP3    H164346   0.696   3.272  12.085 -0.5290  0.4341 -0.1376
14285TIP3    H264347   0.623   3.324  12.207  0.5952  0.3166  0.5953
14286TIP3   OH264348   1.906   4.773  12.571 -0.0919 -0.4023 -0.1166
14286TIP3    H164349   1.815   4.783  12.543  0.3697  0.5071 -1.3375
14286TIP3    H264350   1.916   4.680  12.592 -1.4853 -0.3754  0.6968
14287TIP3   OH264351   3.678   4.264  14.175 -0.2780  0.0375  0.4770
14287TIP3    H164352   3.715   4.326  14.239 -1.4513 -1.4549  2.6561
14287TIP3    H264353   3.753   4.214  14.144  0.1051 -0.1935  1.7639
14288TIP3   OH264354   2.003   5.397   0.941  0.0037  0.2382  0.0614
14288TIP3    H164355   1.976   5.319   0.893  0.6209 -0.0544  0.1850
14288TIP3    H264356   2.007   5.466   0.875 -2.5865  0.6727  0.2993
14289TIP3   OH264357   3.344   1.614   1.490 -0.1587 -0.4113 -0.1539
14289TIP3    H164358   3.331   1.642   1.580 -0.7262 -1.4099  0.0878
14289TIP3    H264359   3.422   1.661   1.461 -0.9283  1.1661  0.3080
14290TIP3   OH264360   0.632   4.537  11.920 -0.3717  0.2518  0.2671
14290TIP3    H164361   0.607   4.459  11.970  0.3475 -1.3329 -1.7484
14290TIP3    H264362   0.576   4.534  11.842 -0.0975  1.5783  0.0080
14291TIP3   OH264363   2.503   1.365   1.457 -0.2915  0.0777 -0.1967
14291TIP3    H164364   2.428   1.424   1.456 -0.0488  0.4129  0.8288
14291TIP3    H264365   2.504   1.326   1.369 -2.3758 -0.8509  0.1728
14292TIP3   OH264366   1.611   0.507  13.252  0.0909  0.3812  0.3280
14292TIP3    H164367   1.546   0.571  13.282  0.3518 -0.0535  1.8444
14292TIP3    H264368   1.566   0.423  13.258 -0.9063  0.5764 -3.5150
14293TIP3   OH264369   6.167   0.804   5.514 -0.7784 -0.0102  0.0760
14293TIP3    H164370   6.194   0.722   5.474 -0.6322 -0.3068  0.7799
14293TIP3    H264371   6.196   0.797   5.605  0.2857  1.3038 -0.1443
14294TIP3   OH264372   1.560   5.455  16.178 -0.1155  0.4775 -0.1905
14294TIP3    H164373   1.608   5.504  16.245  0.1618  0.7144 -0.5595
14294TIP3    H264374   1.476   5.435  16.219  0.6767 -0.8250  0.8401
14295TIP3   OH264375   2.668   4.740  14.504  0.4824 -0.1813  0.0672
14295TIP3    H164376   2.653   4.693  14.586 -0.0051 -2.9809 -1.5818
14295TIP3    H264377   2.762   4.756  14.502  0.2704  1.4204  1.9528
14296TIP3   OH264378   2.264   4.234   3.535 -0.1472 -0.4132 -0.5898
14296TIP3    H164379   2.216   4.225   3.617 -1.3015  0.6492 -1.1334
14296TIP3    H264380   2.242   4.156   3.485 -0.4938 -0.4246 -0.4163
14297TIP3   OH264381   1.699   4.552   3.250  0.2949  0.0763 -0.0410
14297TIP3    H164382   1.701   4.472   3.302 -0.2143  0.0325 -0.0917
14297TIP3    H264383   1.754   4.532   3.174 -0.3142 -0.4337 -0.3546
14298TIP3   OH264384   3.364   0.304   5.576 -0.0433  0.8785  0.1504
14298TIP3    H164385   3.454   0.286   5.549 -0.6167 -1.7112 -0.1385
14298TIP3    H264386   3.372   0.333   5.667  0.8981 -1.4901  0.8464
14299TIP3   OH264387   3.463   4.931   4.405 -0.1037 -0.2937 -0.2282
14299TIP3    H164388   3.474   4.922   4.500  0.6122  0.5779 -0.2174
14299TIP3    H264389   3.545   4.969   4.375 -0.5226 -0.0761 -1.1229
14300TIP3   OH264390   3.738   3.299  12.889 -0.3365 -0.4160 -0.4549
14300TIP3    H164391   3.695   3.384  12.894  0.9890  0.1614  3.0159
14300TIP3    H264392   3.763   3.289  12.797 -1.1137  2.6399 -1.0329
14301TIP3   OH264393   0.572   6.444  14.921 -0.3555  0.2020 -0.1613
14301TIP3    H164394   0.511   6.511  14.951 -1.5342 -0.1274 -1.7740
14301TIP3    H264395   0.656   6.490  14.911  0.3511  0.1618  4.3831
14302TIP3   OH264396   3.684   0.137   6.453  0.1072 -0.4120 -0.0415
14302TIP3    H164397   3.739   0.066   6.418  1.2136  0.0196  0.8103
14302TIP3    H264398   3.697   0.209   6.391 -0.1996 -0.5960 -0.3255
14303TIP3   OH264399   0.393   3.193   6.690 -0.3946 -0.1863 -0.3663
14303TIP3    H164400   0.340   3.126   6.734 -0.4303  0.0041 -0.1169
14303TIP3    H264401   0.341   3.218   6.613  0.3303 -1.5649 -1.3308
14304TIP3   OH264402   5.449   5.829  12.655 -0.0675  0.4264 -0.6362
14304TIP3    H164403   5.417   5.809  12.567 -1.3669 -0.0424 -0.0745
14304TIP3    H264404   5.374   5.813  12.712  1.2404 -0.9720  0.7702
14305TIP3   OH264405   5.919   2.653   5.705  0.1696  0.0675 -0.7681
14305TIP3    H164406   5.844   2.684   5.655 -1.0501 -3.0525 -0.9749
14305TIP3    H264407   5.974   2.609   5.640  0.2875 -0.9774  0.0201
14306TIP3   OH264408   5.773   6.524   4.397 -0.0601 -0.4709  0.1788
14306TIP3    H164409   5.867   6.506   4.398 -0.4899 -2.8956  0.0116
14306TIP3    H264410   5.734   6.450   4.442 -1.8875  0.6725  0.5263
14307TIP3   OH264411   0.227   3.520  15.600 -0.2361 -0.0189 -0.2856
14307TIP3    H164412   0.151   3.572  15.625  0.6236 -0.0169  2.4455
14307TIP3    H264413   0.301   3.565  15.638  0.7231 -2.2363  0.5833
14308TIP3   OH264414   4.757   0.816  16.764 -0.6856 -0.4345 -0.2326
14308TIP3    H164415   4.690   0.750  16.746 -2.9315  1.8116 -0.3564
14308TIP3    H264416   4.773   0.858  16.680  0.8856 -0.9329 -0.1982
14309TIP3   OH264417   5.357   2.623  14.483  0.8938  0.3227  0.5269
14309TIP3    H164418   5.390   2.538  14.512  0.6951 -0.1854 -0.7249
14309TIP3    H264419   5.360   2.677  14.562  1.4112 -0.7189  1.2418
14310TIP3   OH264420   3.029   6.091  13.106 -0.2842  0.3603  0.0786
14310TIP3    H164421   3.015   6.020  13.043 -0.5401  0.2053  0.3096
14310TIP3    H264422   3.081   6.155  13.058  0.3148 -0.1726  0.0068
14311TIP3   OH264423   3.659   2.251  12.022  0.2308  0.4599 -0.7202
14311TIP3    H164424   3.738   2.284  11.977  1.1258  0.1705  0.6163
14311TIP3    H264425   3.653   2.160  11.995  0.6951  0.3212 -0.3739
14312TIP3   OH264426   5.726   6.665  13.032 -0.5052 -0.0648 -0.8234
14312TIP3    H164427   5.669   6.741  13.037 -2.0119 -1.2510  1.0411
14312TIP3    H264428   5.802   6.688  13.085 -0.6989  0.3547 -0.7303
14313TIP3   OH264429   4.343   6.362   0.946 -0.4449  0.1636 -0.0639
14313TIP3    H164430   4.294   6.326   1.020 -0.5777 -0.1242 -0.2879
14313TIP3    H264431   4.336   6.294   0.878 -0.5003  0.5152 -0.4087
14314TIP3   OH264432   1.664   4.306  14.032  0.1463 -0.0584  0.1064
14314TIP3    H164433   1.754   4.276  14.016 -0.1095 -0.5164 -0.5004
14314TIP3    H264434   1.669   4.352  14.116  1.1423  0.7393 -0.3660
14315TIP3   OH264435   6.770   1.409   2.385 -0.4074 -0.4404 -0.0629
14315TIP3    H164436   6.790   1.500   2.366  0.2706  0.0185  2.6600
14315TIP3    H264437   6.742   1.409   2.477 -1.0077 -2.8785 -0.2000
14316TIP3   OH264438   4.836   0.440  12.337  0.0553 -0.2259 -1.1248
14316TIP3    H164439   4.898   0.508  12.311 -0.7228  1.0787  0.3122
14316TIP3    H264440   4.880   0.392  12.407 -0.1693  0.1006 -0.7543
14317TIP3   OH264441   5.473   1.890   4.471 -0.2260 -0.8958 -0.2588
14317TIP3    H164442   5.546   1.864   4.527 -0.4684 -2.7203 -0.7610
14317TIP3    H264443   5.502   1.971   4.430  0.7826 -0.6411  0.9432
14318TIP3   OH264444   1.689   4.185   4.038  0.1972 -0.1005 -0.1010
14318TIP3    H164445   1.706   4.115   4.102 -1.6338  0.4234  1.0038
14318TIP3    H264446   1.646   4.140   3.965 -0.9905 -0.1497  0.6125
14319TIP3   OH264447   4.754   2.856   3.877  0.2204  0.5219  0.1906
14319TIP3    H164448   4.742   2.942   3.918  1.3476 -0.7970  3.4705
14319TIP3    H264449   4.820   2.812   3.932 -1.8874 -3.2373 -0.0976
14320TIP3   OH264450   4.813   3.421   0.156 -0.1770 -0.4598 -0.7141
14320TIP3    H164451   4.744   3.459   0.210 -0.3760 -1.2569 -0.4071
14320TIP3    H264452   4.791   3.447   0.067  0.3536  1.1758 -0.3829
14321TIP3   OH264453   5.828   6.452  10.948  0.0570 -0.5196 -0.2576
14321TIP3    H164454   5.884   6.495  10.884  1.9962  0.0762  1.7633
14321TIP3    H264455   5.783   6.383  10.899 -0.2766  1.3926 -2.7324
14322TIP3   OH264456   0.164   3.687   5.850 -0.3319 -0.5933 -0.3795
14322TIP3    H164457   0.158   3.684   5.754 -0.5362  0.8408 -0.4243
14322TIP3    H264458   0.074   3.704   5.878 -0.0940  0.0678 -0.0017
14323TIP3   OH264459   5.911   5.944  10.913 -0.2086  0.2447  0.0332
14323TIP3    H164460   5.836   5.979  10.962  0.0676 -3.0125  2.9446
14323TIP3    H264461   5.873   5.907  10.834 -1.2886  1.1785  0.0964
14324TIP3   OH264462   3.187   4.558  16.500  0.2736  0.4032 -0.0350
14324TIP3    H164463   3.128   4.571  16.426  0.1590 -0.1504 -0.0415
14324TIP3    H264464   3.272   4.589  16.468  0.4611 -0.8494 -0.7670
14325TIP3   OH264465   6.329   2.943  14.452  0.9687 -0.1881  1.0514
14325TIP3    H164466   6.407   2.980  14.412  0.9550 -1.0133  0.2612
14325TIP3    H264467   6.263   2.943  14.383  0.8653 -1.3580  1.1344
14326TIP3   OH264468   4.471   0.669   5.840  0.2345 -0.0940  0.1681
14326TIP3    H164469   4.544   0.629   5.887  0.6651  0.6617  0.1462
14326TIP3    H264470   4.452   0.607   5.769  2.2280  0.6952 -1.1111
14327TIP3   OH264471   4.574   2.869   3.651  0.4146 -0.2993 -0.2805
14327TIP3    H164472   4.601   2.941   3.594  0.7794 -0.1375  0.1036
14327TIP3    H264473   4.482   2.853   3.626  0.0997  0.7934  0.1631
14328TIP3   OH264474   0.181   3.417   0.372 -0.0165  0.2857  0.7529
14328TIP3    H164475   0.266   3.374   0.372 -0.0936  0.1399  1.2602
14328TIP3    H264476   0.196   3.499   0.323 -0.0551 -0.6514 -0.8667
14329TIP3   OH264477   0.996   0.417  14.565  0.2090  0.6726 -0.6097
14329TIP3    H164478   0.928   0.382  14.508  0.3331 -0.8817  0.1709
14329TIP3    H264479   0.977   0.511  14.569 -0.9791  0.4922 -1.6106
14330TIP3   OH264480   4.767   3.866   5.390 -0.8091  0.3550 -0.2408
14330TIP3    H164481   4.711   3.918   5.448 -1.1532 -1.0260  0.6880
14330TIP3    H264482   4.839   3.838   5.445 -0.2143  0.4821 -0.9440
14331TIP3   OH264483   5.666   4.388  17.088  0.0055 -0.6886 -0.0938
14331TIP3    H164484   5.626   4.370  17.003 -0.5518 -1.4119  0.3231
14331TIP3    H264485   5.759   4.402  17.068  0.4631 -3.8801 -0.4673
14332TIP3   OH264486   0.031   1.117   6.171 -0.5719  0.0475  0.2064
14332TIP3    H164487   0.125   1.129   6.179 -0.5974 -0.4557  1.2279
14332TIP3    H264488   0.008   1.165   6.091  0.5881 -0.0883 -0.2138
14333TIP3   OH264489   5.345   5.031   1.687  0.0447 -0.0636 -0.2430
14333TIP3    H164490   5.300   4.989   1.760 -0.3532  0.4677 -0.1710
14333TIP3    H264491   5.367   4.960   1.628 -0.0783 -0.4390  0.1604
14334TIP3   OH264492   2.427   4.136  16.974 -0.0599 -0.2942 -0.3484
14334TIP3    H164493   2.429   4.189  16.894  1.7021  0.3073  0.0663
14334TIP3    H264494   2.396   4.051  16.945 -1.0564  0.3933 -1.3757
14335TIP3   OH264495   0.782   1.212   0.732  0.7574  0.1396 -0.2805
14335TIP3    H164496   0.729   1.134   0.711  1.2747  0.1621 -1.7648
14335TIP3    H264497   0.820   1.193   0.818 -1.9893  0.3195  1.0186
14336TIP3   OH264498   3.987   2.274   5.563  0.5349  0.3489 -0.2645
14336TIP3    H164499   4.062   2.214   5.565 -1.3218 -2.0421  0.9187
14336TIP3    H264500   3.938   2.248   5.484  0.2881  1.0262 -0.3340
14337TIP3   OH264501   5.924   6.418  13.859 -0.3353  0.2444 -0.2035
14337TIP3    H164502   5.997   6.418  13.797 -1.8869 -1.1862 -2.1135
14337TIP3    H264503   5.933   6.336  13.908 -0.5686  0.1296 -0.3488
14338TIP3   OH264504   4.658   2.427  14.435  0.4062 -0.1717 -0.2113
14338TIP3    H164505   4.682   2.492  14.502  0.2060  0.1561 -0.4561
14338TIP3    H264506   4.586   2.378  14.474  0.4819 -0.1717 -0.0708
14339TIP3   OH264507   0.295   5.478  12.122 -0.5575  0.1795 -0.4462
14339TIP3    H164508   0.365   5.508  12.064 -0.1459 -0.3085 -0.1973
14339TIP3    H264509   0.215   5.493  12.072 -0.1795 -0.5967 -1.2993
14340TIP3   OH264510   4.101   5.778  11.502 -0.2777 -0.1811  0.3053
14340TIP3    H164511   4.134   5.864  11.526  0.5141 -0.7356  1.2125
14340TIP3    H264512   4.178   5.731  11.470 -0.5428 -0.8541  0.6530
14341TIP3   OH264513   0.231   2.289  16.606 -0.3973 -0.8855  0.1922
14341TIP3    H164514   0.147   2.293  16.560  0.4562 -0.9276 -1.4159
14341TIP3    H264515   0.274   2.372  16.584  0.4904 -1.3924 -0.0033
14342TIP3   OH264516   2.784   1.701   3.372 -0.1299 -0.3079 -0.0985
14342TIP3    H164517   2.822   1.754   3.442 -0.6008 -3.1169  2.3691
14342TIP3    H264518   2.832   1.726   3.293  2.7754  0.4131  1.8568
14343TIP3   OH264519   5.810   5.011   1.602  0.2298 -0.1117  0.5268
14343TIP3    H164520   5.847   5.099   1.611 -0.7261  0.2568  0.9516
14343TIP3    H264521   5.782   5.007   1.510  0.1786  0.0692  0.5326
14344TIP3   OH264522   1.740   6.307  13.574 -0.4519  0.0886  0.6014
14344TIP3    H164523   1.663   6.305  13.517  0.1230 -0.6867 -0.1530
14344TIP3    H264524   1.707   6.277  13.659 -1.5061  2.0866  0.9366
14345TIP3   OH264525   1.756   2.796   6.190  0.1646 -0.0075 -0.2322
14345TIP3    H164526   1.825   2.862   6.183 -0.7278  1.0237  0.5365
14345TIP3    H264527   1.774   2.750   6.271  0.4191 -0.2840 -0.4461
14346TIP3   OH264528   3.060   5.266   1.900 -0.1836 -0.5622  0.7580
14346TIP3    H164529   3.034   5.255   1.809  0.6372 -0.5376  0.5142
14346TIP3    H264530   3.041   5.182   1.941 -1.0583 -0.3972  0.6932
14347TIP3   OH264531   6.451   4.039   2.127 -0.3423  0.2555 -0.4854
14347TIP3    H164532   6.396   4.087   2.065 -3.1174  0.2542  1.8296
14347TIP3    H264533   6.417   3.949   2.125 -1.8849  0.6788  2.3886
14348TIP3   OH264534   0.040   3.199   1.129 -0.1436  0.6886 -0.1758
14348TIP3    H164535   0.124   3.160   1.153  0.5300  2.6683  0.7509
14348TIP3    H264536  -0.002   3.132   1.076  1.5319 -0.7910  0.2907
14349TIP3   OH264537   1.701   3.359   2.025 -0.1220  0.6518 -0.1948
14349TIP3    H164538   1.752   3.439   2.034 -0.1765  0.6421  0.1965
14349TIP3    H264539   1.611   3.390   2.014 -0.1105  0.6512 -0.2925
14350TIP3   OH264540   3.454   4.889  13.828  0.0205  0.1372 -0.2410
14350TIP3    H164541   3.372   4.848  13.856  0.3560 -0.1124  0.3944
14350TIP3    H264542   3.432   4.934  13.747 -0.9208  0.7130  0.3316
14351TIP3   OH264543   6.559   0.370  12.430 -0.5127  0.2246 -0.1134
14351TIP3    H164544   6.624   0.346  12.364 -0.2467 -0.7699  0.4893
14351TIP3    H264545   6.594   0.450  12.470  0.4892 -0.4336  0.3678
14352TIP3   OH264546   2.093   5.894  15.919  0.5935  0.0033  0.3872
14352TIP3    H164547   2.088   5.875  16.012 -1.4964  0.0658  0.3121
14352TIP3    H264548   2.085   5.989  15.913  2.3702  0.1543  0.2318
14353TIP3   OH264549   2.166   1.813  14.389  0.2278 -0.1917 -0.2737
14353TIP3    H164550   2.081   1.805  14.346 -0.7301  2.3379  1.0453
14353TIP3    H264551   2.170   1.737  14.447 -1.3390 -0.1472 -0.0628
14354TIP3   OH264552   4.055   6.285  15.177  0.1297 -0.3461 -0.5429
14354TIP3    H164553   4.134   6.324  15.215 -1.5820 -0.1924  3.1160
14354TIP3    H264554   3.991   6.357  15.175 -0.6946 -1.0794 -0.9662
14355TIP3   OH264555   5.179   2.664  11.008  0.0814  0.4206  0.1254
14355TIP3    H164556   5.146   2.588  11.057  0.0003 -1.0379 -2.0990
14355TIP3    H264557   5.169   2.738  11.068 -1.1239 -1.1054  1.8545
14356TIP3   OH264558   5.892   0.651   5.600  0.0962 -0.2964 -0.1010
14356TIP3    H164559   5.896   0.747   5.603 -1.1279 -0.2600  0.5942
14356TIP3    H264560   5.957   0.622   5.664 -0.3272  0.0829  0.4998
14357TIP3   OH264561   2.139   0.328   0.423 -0.3013  0.0116  0.3425
14357TIP3    H164562   2.065   0.287   0.378  0.8387  0.0244 -1.6151
14357TIP3    H264563   2.184   0.379   0.355  1.7495 -0.3394  1.3769
14358TIP3   OH264564   3.586   1.075   6.026 -0.7906 -0.0191  0.2313
14358TIP3    H164565   3.640   1.045   5.953 -0.7651 -0.3109  0.3709
14358TIP3    H264566   3.556   1.162   5.999 -1.6786 -0.5725 -0.6115
14359TIP3   OH264567   1.963   6.172  12.522  0.2134 -0.1708 -0.1419
14359TIP3    H164568   1.989   6.110  12.454 -0.4200 -1.0327  0.3828
14359TIP3    H264569   1.931   6.248  12.475  1.3384 -0.0868 -0.7957
14360TIP3   OH264570   2.638   2.075   2.796  0.3579 -0.1732  0.2230
14360TIP3    H164571   2.679   2.113   2.718  1.7622  0.2290  1.1457
14360TIP3    H264572   2.629   1.982   2.776 -1.2599  0.2627 -1.2563
14361TIP3   OH264573   3.518   6.422  12.692  0.2150 -0.3099  0.1468
14361TIP3    H164574   3.423   6.415  12.683 -0.1708  1.3324  2.5932
14361TIP3    H264575   3.542   6.358  12.758  0.4325  1.1067  1.4750
14362TIP3   OH264576   0.630   0.011  11.549 -0.7742  0.3310 -0.3013
14362TIP3    H164577   0.616   0.103  11.524 -1.5661  0.2929 -0.0087
14362TIP3    H264578   0.628  -0.037  11.466 -3.5098  0.1867 -0.1986
14363TIP3   OH264579   6.036   3.583   0.366  0.3710 -0.3614 -0.3143
14363TIP3    H164580   5.947   3.612   0.386  0.6724  0.0229  0.4814
14363TIP3    H264581   6.024   3.505   0.312 -0.4471  0.0320 -0.7182
14364TIP3   OH264582   6.682   3.328  17.103 -0.1386  0.3872 -0.2614
14364TIP3    H164583   6.618   3.342  17.173  1.4854  1.2748  1.0880
14364TIP3    H264584   6.693   3.414  17.063  0.1388  0.2145 -0.5633
14365TIP3   OH264585   3.414   1.534  17.053  0.6721 -0.3032 -0.5025
14365TIP3    H164586   3.395   1.607  17.112 -0.9971  0.9313 -2.5102
14365TIP3    H264587   3.503   1.551  17.022 -0.4462  2.0896 -2.5767
14366TIP3   OH264588   2.851   4.657   3.269 -0.1566 -0.2891 -0.4682
14366TIP3    H164589   2.814   4.619   3.189 -0.6367 -0.0519 -0.3587
14366TIP3    H264590   2.830   4.751   3.263 -1.8532 -0.5756  0.8502
14367TIP3   OH264591   0.813   4.627   6.054 -0.1510 -0.0544  0.3204
14367TIP3    H164592   0.896   4.675   6.055 -0.8263  1.1310 -0.6263
14367TIP3    H264593   0.836   4.542   6.016  0.5714  0.3623 -0.1832
14368TIP3   OH264594   0.418   5.560  16.994  0.5239  0.0221 -0.0382
14368TIP3    H164595   0.343   5.512  16.959  1.1303 -0.6062 -0.4870
14368TIP3    H264596   0.400   5.651  16.975 -0.8033  0.0138  1.1074
14369TIP3   OH264597   3.347   2.778   0.375  0.8203  0.3646  0.3930
14369TIP3    H164598   3.255   2.767   0.399  1.3614  0.5259  2.6515
14369TIP3    H264599   3.366   2.870   0.392  2.0579 -0.2369  2.4059
14370TIP3   OH264600   0.026   6.526  14.813 -0.3571  0.0617  0.3141
14370TIP3    H164601   0.064   6.506  14.898  1.5841 -1.1910 -0.8137
14370TIP3    H264602   0.035   6.621  14.804  0.5952  0.0385  0.9590
14371TIP3   OH264603   5.560   6.772  10.730  0.3587 -0.3202 -0.3365
14371TIP3    H164604   5.516   6.823  10.661 -0.2685 -0.4447 -0.0313
14371TIP3    H264605   5.517   6.800  10.811  2.1672  1.0148  0.2095
14372TIP3   OH264606   0.883   0.400   0.746 -0.2933 -0.1796  0.1785
14372TIP3    H164607   0.852   0.471   0.690 -1.0907 -1.7352 -1.3906
14372TIP3    H264608   0.865   0.320   0.696 -0.1313 -1.5406  2.2472
14373TIP3   OH264609   5.749   1.067  16.486 -0.1607 -0.1697 -0.3111
14373TIP3    H164610   5.749   1.162  16.489  0.2718 -0.1054 -2.2524
14373TIP3    H264611   5.838   1.042  16.512 -0.6987 -0.1318  1.7107
14374TIP3   OH264612   3.141   0.193  15.732 -0.2448  0.5153  0.1818
14374TIP3    H164613   3.075   0.249  15.774 -0.6971  0.6356 -0.6748
14374TIP3    H264614   3.188   0.252  15.673 -0.8179 -0.0146 -0.8368
14375TIP3   OH264615   3.898   1.342  11.738  0.2103  0.0067  0.7064
14375TIP3    H164616   3.830   1.392  11.692  0.4074 -1.5565 -1.3653
14375TIP3    H264617   3.980   1.386  11.715  0.1962 -0.0921  0.4552
14376TIP3   OH264618   6.053   1.076   6.364  0.0052  0.0020  0.3815
14376TIP3    H164619   5.958   1.076   6.373 -0.0727 -1.0482 -0.3570
14376TIP3    H264620   6.070   1.134   6.289 -0.0367  0.2373  0.5507
14377TIP3   OH264621   2.524   3.808  14.919  0.6405  0.5491 -0.7181
14377TIP3    H164622   2.468   3.820  14.842  1.0663  0.7854 -0.9945
14377TIP3    H264623   2.517   3.891  14.966  1.9147  1.1370 -1.5262
14378TIP3   OH264624   2.145   4.908  11.445  0.0158  0.8275 -0.4283
14378TIP3    H164625   2.113   4.844  11.382 -1.0843  1.5526 -0.6270
14378TIP3    H264626   2.157   4.988  11.393 -0.1379  1.2053  0.1134
14379TIP3   OH264627   6.311   1.815  14.213 -0.0224 -0.4533  0.5698
14379TIP3    H164628   6.342   1.767  14.136 -0.6039 -0.4598  0.3317
14379TIP3    H264629   6.337   1.761  14.287 -0.1156 -0.8239  0.3359
14380TIP3   OH264630   5.041   5.454   2.674  0.0066  0.1726 -0.3359
14380TIP3    H164631   5.059   5.495   2.589 -3.9200 -1.6533 -2.1648
14380TIP3    H264632   4.965   5.502   2.708  1.4581  0.7985  2.1400
14381TIP3   OH264633   5.449   5.192  14.155 -1.0688 -0.0789  0.5351
14381TIP3    H164634   5.454   5.183  14.250 -0.7144  0.1130  0.5343
14381TIP3    H264635   5.515   5.257  14.134  0.8454 -2.1682 -0.1379
14382TIP3   OH264636   1.713   6.756   1.301 -0.2043  0.0370 -0.4027
14382TIP3    H164637   1.798   6.752   1.259  0.2254  0.8854  0.3610
14382TIP3    H264638   1.652   6.774   1.230  0.1209 -1.4630 -1.0918
14383TIP3   OH264639   2.804   0.374   1.942 -0.6176 -0.2104  0.0052
14383TIP3    H164640   2.850   0.327   1.873 -1.5667 -0.1619 -0.6795
14383TIP3    H264641   2.730   0.317   1.965 -1.7504  0.8962 -0.7937
14384TIP3   OH264642   1.494   4.064   5.744 -0.5457 -0.5745  0.5784
14384TIP3    H164643   1.559   4.052   5.813 -0.9642  1.5976  1.3575
14384TIP3    H264644   1.546   4.079   5.665 -0.1017 -0.0628  0.9670
14385TIP3   OH264645   2.993   1.492   0.397  0.0087  0.5820  0.0423
14385TIP3    H164646   2.948   1.423   0.349 -0.3324  1.1389 -0.4480
14385TIP3    H264647   2.929   1.563   0.402  0.0501  0.5448  1.2925
14386TIP3   OH264648   6.470   6.376   0.771 -0.0746  0.1032  0.1232
14386TIP3    H164649   6.522   6.456   0.760 -1.2132  0.7535 -0.5718
14386TIP3    H264650   6.484   6.327   0.690 -0.9069  0.4937 -0.2592
14387TIP3   OH264651   2.426   4.553   2.056  0.1184 -0.2655 -0.3417
14387TIP3    H164652   2.491   4.557   1.986 -1.8225 -1.3014 -2.2408
14387TIP3    H264653   2.360   4.492   2.025 -2.1966  1.3577  1.2003
14388TIP3   OH264654   0.558   6.475  13.013  0.7763  0.1705  0.3978
14388TIP3    H164655   0.470   6.466  12.975  1.0804  2.0979 -0.8116
14388TIP3    H264656   0.589   6.385  13.023 -0.2560 -0.4486 -1.7556
14389TIP3   OH264657   0.369   6.801   5.082  0.0927 -0.0743  0.3645
14389TIP3    H164658   0.433   6.745   5.125  0.2895  0.5401  0.8961
14389TIP3    H264659   0.419   6.848   5.015 -0.1017 -0.6386 -0.1766
14390TIP3   OH264660   5.477   6.581  16.403 -0.3383  0.3757  0.3709
14390TIP3    H164661   5.388   6.611  16.386  0.1455  1.7765  0.2489
14390TIP3    H264662   5.533   6.651  16.370  0.8952 -1.5449 -1.8247
14391TIP3   OH264663   2.391   0.611   2.131 -0.1925 -0.3827 -0.1272
14391TIP3    H164664   2.321   0.645   2.075  0.2434  3.2222  1.3227
14391TIP3    H264665   2.457   0.579   2.071 -0.7981  1.1259 -1.6307
14392TIP3   OH264666   4.292   5.147  14.436 -0.1451  0.4209 -0.3926
14392TIP3    H164667   4.380   5.167  14.404 -0.3685  0.0233 -1.2696
14392TIP3    H264668   4.236   5.153  14.359 -0.7842 -0.0224  0.0294
14393TIP3   OH264669   0.540   0.323  15.708  0.0502 -0.4379  0.7450
14393TIP3    H164670   0.603   0.364  15.768 -0.8846  1.7391  0.3070
14393TIP3    H264671   0.476   0.392  15.691 -1.1605 -1.8819 -0.6647
14394TIP3   OH264672   5.827   0.147   5.530  0.0781  0.2323  0.7048
14394TIP3    H164673   5.769   0.177   5.600 -1.8671  0.6071 -1.0473
14394TIP3    H264674   5.770   0.099   5.470  1.8920 -0.8681 -0.1769
14395TIP3   OH264675   0.516   4.205  14.157 -0.2625 -0.0868  0.0610
14395TIP3    H164676   0.422   4.192  14.145 -0.5422 -1.3192  3.1467
14395TIP3    H264677   0.524   4.278  14.218  0.7118 -1.1182  1.2040
14396TIP3   OH264678   6.212   3.241   2.977 -0.2909 -0.2581  0.1623
14396TIP3    H164679   6.297   3.277   2.950 -0.0624 -1.6785 -1.1263
14396TIP3    H264680   6.233   3.151   3.004 -1.1842 -0.1657  1.1849
14397TIP3   OH264681   2.384   0.386  11.756 -0.1432  0.7580 -0.4040
14397TIP3    H164682   2.337   0.332  11.692  0.7145  0.7420 -1.0449
14397TIP3    H264683   2.415   0.461  11.705 -0.0259  1.0835  0.1469
14398TIP3   OH264684   6.158   1.289   4.120 -0.0857  0.1189 -0.5967
14398TIP3    H164685   6.064   1.303   4.133  0.0295  0.9165 -0.5722
14398TIP3    H264686   6.181   1.220   4.182 -0.6216  0.0672 -0.4568
14399TIP3   OH264687   2.253   3.216   4.805 -0.0302 -0.3080  0.0920
14399TIP3    H164688   2.316   3.282   4.834  1.9059 -1.8544 -0.4567
14399TIP3    H264689   2.191   3.207   4.877  0.4941  1.0953  0.7256
14400TIP3   OH264690   2.296   1.593   4.830  1.2546  0.3266 -0.3142
14400TIP3    H164691   2.247   1.602   4.748  0.2703  0.5365  0.2793
14400TIP3    H264692   2.346   1.512   4.820  2.7006  1.3874 -1.9088
14401TIP3   OH264693   0.269   3.363   3.883 -0.2115  0.1432 -0.6202
14401TIP3    H164694   0.354   3.380   3.845 -0.4016  0.1423 -1.0437
14401TIP3    H264695   0.246   3.275   3.854  0.3284 -0.4699  0.7610
14402TIP3   OH264696   1.390   5.767  15.068  0.0029 -0.2492 -0.0029
14402TIP3    H164697   1.362   5.676  15.079 -2.4850  0.3759 -0.8562
14402TIP3    H264698   1.417   5.773  14.977  2.5713 -0.7160  0.6833
14403TIP3   OH264699   3.296   5.472  11.876  0.4971  0.3813 -0.4120
14403TIP3    H164700   3.275   5.380  11.887 -0.0978  0.4495 -0.9858
14403TIP3    H264701   3.349   5.494  11.953  0.5919 -0.4189 -0.2484
14404TIP3   OH264702   3.673   2.832   5.495  0.1940  0.7940 -0.2862
14404TIP3    H164703   3.587   2.861   5.524  1.0214  1.2911  1.8028
14404TIP3    H264704   3.686   2.748   5.539  0.8903  0.8745 -0.3282
14405TIP3   OH264705   0.147   4.936  16.853  0.3652 -0.1083 -0.0463
14405TIP3    H164706   0.125   4.843  16.859  0.5653 -0.2139 -0.8586
14405TIP3    H264707   0.078   4.974  16.798  1.0971 -0.0649 -0.9501
14406TIP3   OH264708   6.257   0.329  15.179  0.0007 -0.1580 -0.2066
14406TIP3    H164709   6.313   0.280  15.120 -1.4398 -1.1703 -0.7523
14406TIP3    H264710   6.186   0.269  15.201 -0.8877  1.1021  0.4502
14407TIP3   OH264711   0.985   4.799   5.723 -0.2429 -0.2636  0.1316
14407TIP3    H164712   0.940   4.722   5.688 -2.4042  0.5356  1.0421
14407TIP3    H264713   1.054   4.764   5.778 -0.6981 -1.5604 -0.1049
14408TIP3   OH264714   3.329   5.577  15.893 -0.0157 -0.6134  0.2296
14408TIP3    H164715   3.285   5.501  15.930 -0.1021 -1.0619 -0.7753
14408TIP3    H264716   3.370   5.620  15.968 -2.8220  0.2609  1.3359
14409TIP3   OH264717   3.895   1.019   6.836 -0.4087 -0.1798  0.5883
14409TIP3    H164718   3.836   0.944   6.837 -0.8016  0.1126 -0.3622
14409TIP3    H264719   3.840   1.094   6.861 -0.2649 -0.0270  0.4505
14410TIP3   OH264720   2.259   2.712  15.971 -0.1178 -0.1861  0.0149
14410TIP3    H164721   2.258   2.798  15.930  2.2098 -0.5208 -0.7993
14410TIP3    H264722   2.328   2.717  16.038 -2.4681 -0.2876  2.5292
14411TIP3   OH264723   6.724   4.261  12.198 -0.1538 -0.6633 -0.1991
14411TIP3    H164724   6.775   4.205  12.257 -0.9140 -0.6354  0.5005
14411TIP3    H264725   6.782   4.279  12.125  0.1339 -2.2868 -0.3869
14412TIP3   OH264726   1.957   4.750  13.802 -0.4075 -0.3868  0.3218
14412TIP3    H164727   1.889   4.769  13.737  0.8050 -0.2743 -0.9318
14412TIP3    H264728   2.039   4.750  13.752  0.3322 -2.3816  1.4675
14413TIP3   OH264729   2.255   2.631  13.465 -0.6233 -0.2576 -0.5059
14413TIP3    H164730   2.175   2.683  13.455 -0.0629  0.8891  0.7677
14413TIP3    H264731   2.324   2.686  13.428 -0.1853 -0.5701 -0.1613
14414TIP3   OH264732   1.525   1.941   2.074  0.0107  0.0361  0.1152
14414TIP3    H164733   1.589   1.972   2.138 -0.0667  0.8189 -0.1862
14414TIP3    H264734   1.562   1.966   1.989  0.6154 -1.9189 -0.2132
14415TIP3   OH264735   3.347   5.877  15.099 -0.8613  0.6951 -0.1947
14415TIP3    H164736   3.307   5.797  15.133  0.2013  0.1682 -0.1870
14415TIP3    H264737   3.330   5.943  15.166 -2.9548  0.8276 -0.8200
14416TIP3   OH264738   6.746   3.579   4.242  0.3454 -0.5898  0.4148
14416TIP3    H164739   6.823   3.550   4.291 -0.5434  0.4690  2.5349
14416TIP3    H264740   6.672   3.540   4.288 -0.5152  0.3023 -0.1723
14417TIP3   OH264741   3.803   0.940  10.970  0.7175 -0.1027 -0.0198
14417TIP3    H164742   3.732   0.892  11.014 -1.4396  1.3134 -1.9023
14417TIP3    H264743   3.833   0.880  10.901  0.0663  0.0573 -0.4422
14418TIP3   OH264744   3.930   0.568  14.896  0.3251  0.0232 -0.4245
14418TIP3    H164745   3.873   0.550  14.821  0.0435  0.4561 -0.3179
14418TIP3    H264746   4.004   0.509  14.884  1.3709  1.6326 -2.2614
14419TIP3   OH264747   0.962   3.360   6.440  0.1083  0.0448 -0.0843
14419TIP3    H164748   0.940   3.284   6.494 -0.5758 -0.1428 -0.6232
14419TIP3    H264749   1.022   3.411   6.494 -1.4807  0.4591  1.3402
14420TIP3   OH264750   5.305   3.861  11.980 -0.2193  0.0864  0.2970
14420TIP3    H164751   5.280   3.846  11.888  1.3228 -0.7581 -0.0011
14420TIP3    H264752   5.232   3.911  12.016 -1.0257  0.1147 -1.2953
14421TIP3   OH264753   4.658   3.335  13.069  0.6575  0.0472 -0.6615
14421TIP3    H164754   4.660   3.259  13.127 -0.8397 -0.3048 -1.0553
14421TIP3    H264755   4.744   3.336  13.028  0.7684 -1.2999 -0.4890
14422TIP3   OH264756   3.489   5.778   6.140  0.1430  0.8501  0.0244
14422TIP3    H164757   3.418   5.738   6.191  0.9303 -0.2312  0.3055
14422TIP3    H264758   3.567   5.762   6.193  0.8806  0.2521 -1.2258
14423TIP3   OH264759   4.468   3.899  13.432  0.0739 -0.4785 -0.3901
14423TIP3    H164760   4.452   3.948  13.352  1.1422 -0.9807 -0.9173
14423TIP3    H264761   4.388   3.849  13.446 -0.6208  0.6120 -0.4199
14424TIP3   OH264762   2.180   6.174  14.822  0.2543 -0.3693  0.4314
14424TIP3    H164763   2.182   6.111  14.894  0.3645  0.1053  0.8485
14424TIP3    H264764   2.126   6.246  14.855 -0.0313 -0.3274 -0.1112
14425TIP3   OH264765   0.621   5.405   3.703 -0.3381  0.5004 -0.2251
14425TIP3    H164766   0.592   5.358   3.625  2.0169  1.1996 -1.5582
14425TIP3    H264767   0.570   5.486   3.703 -0.3813  0.4789 -0.9953
14426TIP3   OH264768   0.360   3.596   0.142 -0.1659  0.7830 -0.6474
14426TIP3    H164769   0.406   3.605   0.058  1.3731  2.0004  0.2877
14426TIP3    H264770   0.406   3.525   0.187 -0.8487  0.2746 -0.7511
14427TIP3   OH264771   6.707   1.550   4.750  0.2274 -0.2070  0.0436
14427TIP3    H164772   6.773   1.551   4.819  0.7531 -0.2568 -0.4474
14427TIP3    H264773   6.678   1.459   4.745 -0.9408  0.0935  1.2501
14428TIP3   OH264774   5.327   6.580   1.082 -0.0785 -0.1520 -0.1842
14428TIP3    H164775   5.354   6.507   1.026  1.2865  1.9026 -2.3236
14428TIP3    H264776   5.376   6.655   1.048 -2.3280  2.0114  1.1582
14429TIP3   OH264777   6.716   5.981   6.630  0.0561 -0.0163 -0.8531
14429TIP3    H164778   6.621   5.970   6.628  0.2436 -1.6644 -1.3625
14429TIP3    H264779   6.748   5.925   6.560  1.4454  0.0931 -0.3124
14430TIP3   OH264780   4.726   6.340  16.386  0.5479  0.2176 -0.2984
14430TIP3    H164781   4.632   6.350  16.402  0.8707  0.6025  1.4864
14430TIP3    H264782   4.735   6.348  16.291 -1.1689  0.6343 -0.4494
14431TIP3   OH264783   3.999   4.544   0.782  0.1792 -0.2051 -0.0835
14431TIP3    H164784   3.939   4.617   0.763 -1.3636 -1.1758  0.9183
14431TIP3    H264785   4.028   4.514   0.696 -0.5101  0.5008 -0.5725
14432TIP3   OH264786   5.783   0.464  15.621 -0.5559  0.3428 -0.3524
14432TIP3    H164787   5.711   0.408  15.651  2.2487 -3.0997  0.1438
14432TIP3    H264788   5.812   0.510  15.700  0.8051 -1.7767  0.3998
14433TIP3   OH264789   1.303   4.295   4.457 -0.0892  0.5158 -0.0748
14433TIP3    H164790   1.352   4.371   4.488  2.0482 -0.8374 -0.0558
14433TIP3    H264791   1.348   4.268   4.377 -1.2541 -0.3470 -0.4603
14434TIP3   OH264792   0.567   2.187  10.544 -0.3069  0.0268  0.1257
14434TIP3    H164793   0.660   2.181  10.567  0.4938  2.2266 -2.2144
14434TIP3    H264794   0.551   2.109  10.490  1.0424  1.1736 -2.0201
14435TIP3   OH264795   1.149   6.107   2.757 -0.5032  0.1860 -0.6444
14435TIP3    H164796   1.066   6.150   2.776 -0.3442  0.3316 -0.2702
14435TIP3    H264797   1.202   6.120   2.836 -0.5811 -1.0161 -0.3770
14436TIP3   OH264798   3.932   2.364   4.503  0.0881 -0.3586  0.1635
14436TIP3    H164799   4.021   2.337   4.521 -0.1925 -0.9497  0.6950
14436TIP3    H264800   3.932   2.392   4.412  0.7700 -0.5429  0.1107
14437TIP3   OH264801   6.763   3.559  15.232  0.0871  0.2217  0.3943
14437TIP3    H164802   6.691   3.535  15.173  0.6817 -1.6609  0.4065
14437TIP3    H264803   6.842   3.544  15.181  0.4842  4.4342 -0.4052
14438TIP3   OH264804   4.431   5.954  14.599 -0.6881  0.1749 -0.2336
14438TIP3    H164805   4.411   5.861  14.595 -0.0174 -0.0381  1.0426
14438TIP3    H264806   4.489   5.970  14.525 -1.9510 -0.1199 -1.3027
14439TIP3   OH264807   3.563   6.512  13.406 -0.1737  0.5843  0.4046
14439TIP3    H164808   3.526   6.557  13.329  1.0165 -0.1757 -0.6266
14439TIP3    H264809   3.512   6.431  13.413 -0.7748  0.9994  0.8659
14440TIP3   OH264810   0.963   5.527   0.021  0.1721 -0.4698  0.7887
14440TIP3    H164811   1.025   5.590   0.057 -1.2224  0.5395  1.4627
14440TIP3    H264812   0.923   5.486   0.098  0.0309 -1.1617  0.3534
14441TIP3   OH264813   0.798   6.634  12.359  0.1509 -0.4493  0.7795
14441TIP3    H164814   0.792   6.582  12.278 -1.1815  0.0184  0.5499
14441TIP3    H264815   0.707   6.646  12.385  0.4964  1.0532  1.2951
14442TIP3   OH264816   5.369   2.546  11.960 -0.1900  0.1813  0.4527
14442TIP3    H164817   5.396   2.629  11.920  0.3695  0.5570  1.6032
14442TIP3    H264818   5.275   2.555  11.974 -0.0787  0.7310  0.8434
14443TIP3   OH264819   3.146   1.358   1.609 -0.2048  0.5401 -0.0343
14443TIP3    H164820   3.112   1.447   1.615 -0.2794  0.6445 -1.6717
14443TIP3    H264821   3.224   1.358   1.663 -0.5525  1.4330  0.4798
14444TIP3   OH264822   6.502   0.154   1.113 -0.3628  0.0554  0.5827
14444TIP3    H164823   6.568   0.085   1.108  0.0831  0.5047  0.1944
14444TIP3    H264824   6.549   0.234   1.089 -1.2540  0.2406 -0.6004
14445TIP3   OH264825   6.768   3.739  12.767 -0.3290 -0.0144  0.4008
14445TIP3    H164826   6.702   3.733  12.836  0.9754  0.8104  1.7770
14445TIP3    H264827   6.818   3.658  12.775 -1.1729 -0.6427 -0.6449
14446TIP3   OH264828   6.607   0.042   4.332 -0.3724 -0.0272  0.1654
14446TIP3    H164829   6.587   0.027   4.239 -1.4449 -1.8689  0.6924
14446TIP3    H264830   6.617   0.137   4.338 -0.9249  0.1800 -1.7045
14447TIP3   OH264831   6.541   0.381  16.666  0.2870  0.1022  0.3827
14447TIP3    H164832   6.546   0.288  16.687  0.5700  0.0516  0.0932
14447TIP3    H264833   6.451   0.394  16.636  0.4338 -0.2088 -0.1969
14448TIP3   OH264834   4.931   3.074   5.718  0.2357  0.0659  0.1677
14448TIP3    H164835   4.897   3.007   5.659  0.6286 -0.1530  0.1843
14448TIP3    H264836   4.931   3.033   5.804  0.4208  0.1040  0.1871
14449TIP3   OH264837   4.528   0.882  13.858 -0.1556  0.0653 -0.0035
14449TIP3    H164838   4.589   0.895  13.785 -0.9940 -1.5919 -1.0415
14449TIP3    H264839   4.514   0.970  13.894  0.6801  0.8348 -1.5153
14450TIP3   OH264840   5.384   6.704   5.059 -0.4385  0.4145  0.2739
14450TIP3    H164841   5.319   6.753   5.007 -0.0725  1.5363  0.8641
14450TIP3    H264842   5.414   6.767   5.124 -1.7343 -1.3108  2.6061
14451TIP3   OH264843   4.966   0.609   4.121 -0.2074 -0.4059 -0.5961
14451TIP3    H164844   4.958   0.535   4.181  1.0831 -0.4819 -0.5065
14451TIP3    H264845   4.955   0.571   4.034 -0.5682 -0.5394 -0.4916
14452TIP3   OH264846   5.670   4.716  13.322  0.1316  0.2569  0.0534
14452TIP3    H164847   5.688   4.798  13.368 -1.4771 -0.3945  1.9051
14452TIP3    H264848   5.739   4.710  13.256  0.8426  2.6101  0.5308
14453TIP3   OH264849   6.345   3.419  14.215 -0.0724 -0.6314  0.2008
14453TIP3    H164850   6.322   3.434  14.307  1.9112  0.6067  0.5186
14453TIP3    H264851   6.326   3.327  14.200 -0.8805 -0.7242  1.7064
14454TIP3   OH264852   3.342   0.848  17.072 -0.3365  0.4643 -0.3080
14454TIP3    H164853   3.261   0.797  17.078  0.0986 -0.5006 -2.1367
14454TIP3    H264854   3.384   0.836  17.157 -1.0592 -0.8345 -0.1152
14455TIP3   OH264855   3.139   6.782   4.954  0.1880  0.0844 -0.4964
14455TIP3    H164856   3.100   6.806   5.038 -1.4114  0.4666 -1.3329
14455TIP3    H264857   3.175   6.864   4.920 -2.7937  0.8309 -2.0489
14456TIP3   OH264858   0.808   2.116   3.271 -0.4711 -0.9787 -0.1211
14456TIP3    H164859   0.738   2.181   3.276  0.1943 -0.1906 -0.9079
14456TIP3    H264860   0.814   2.081   3.360 -0.7437  0.1356  0.3495
14457TIP3   OH264861   4.488   1.113  12.594 -0.9569  0.4402 -0.3962
14457TIP3    H164862   4.485   1.165  12.514 -3.1827 -0.0967 -0.7136
14457TIP3    H264863   4.396   1.097  12.615 -0.3913 -4.4722 -1.0315
14458TIP3   OH264864   2.103   5.358   2.730  0.1997  0.1858 -0.3297
14458TIP3    H164865   2.149   5.404   2.799 -2.4578  2.1802  0.2014
14458TIP3    H264866   2.142   5.389   2.649  1.8290 -0.4828  0.1885
14459TIP3   OH264867   1.359   4.653   3.589 -0.0027 -0.1112 -0.2695
14459TIP3    H164868   1.291   4.690   3.645 -0.3906 -1.5415  0.2212
14459TIP3    H264869   1.379   4.568   3.628 -0.4314 -1.2383 -2.4120
14460TIP3   OH264870   6.282   6.187  14.381 -1.0185 -0.5763  0.6795
14460TIP3    H164871   6.189   6.165  14.381 -0.6540 -2.1535 -1.0544
14460TIP3    H264872   6.304   6.203  14.289  1.0258 -2.8775  0.7262
14461TIP3   OH264873   5.834   1.063   6.037  0.0289  0.7187  0.0989
14461TIP3    H164874   5.888   0.988   6.062 -1.0455 -0.5494 -1.2814
14461TIP3    H264875   5.826   1.114   6.117  0.3363 -0.9276  1.2088
14462TIP3   OH264876   6.039   3.082   0.900 -0.0128  0.5833 -0.2486
14462TIP3    H164877   5.975   3.153   0.894 -0.6697  0.0680  0.6477
14462TIP3    H264878   5.999   3.018   0.959  0.5263 -0.5958 -1.1410
14463TIP3   OH264879   6.388   2.611   4.723  0.3059 -0.2450 -0.0450
14463TIP3    H164880   6.396   2.693   4.772 -0.8612  0.1486 -0.5210
14463TIP3    H264881   6.422   2.631   4.636 -1.9575  0.3307 -0.8250
14464TIP3   OH264882   3.912   2.591   3.384  0.1494  0.5039 -0.3938
14464TIP3    H164883   3.895   2.636   3.302  0.8593  1.4496 -0.0405
14464TIP3    H264884   3.883   2.501   3.370 -1.2357  1.0581 -1.1321
14465TIP3   OH264885   1.204   4.532   5.851 -0.1064  0.1931 -0.1151
14465TIP3    H164886   1.270   4.464   5.864 -1.6764 -1.8262 -2.1968
14465TIP3    H264887   1.127   4.499   5.898 -1.6504 -0.7414 -3.1923
14466TIP3   OH264888   2.601   3.972   1.361 -0.3573  0.3117  0.2454
14466TIP3    H164889   2.595   3.901   1.298  0.8239 -0.5388  1.0512
14466TIP3    H264890   2.570   3.934   1.443  2.5192 -0.0509  1.2386
14467TIP3   OH264891   1.318   2.098  11.152  0.0472  0.2921 -0.0003
14467TIP3    H164892   1.413   2.108  11.158  0.1051  0.3760 -0.9546
14467TIP3    H264893   1.286   2.186  11.131 -0.1741  0.1355 -0.3305
14468TIP3   OH264894   3.399   3.950  13.682 -0.1496 -0.4960  0.1704
14468TIP3    H164895   3.331   4.015  13.700 -1.8445 -1.9096 -0.9593
14468TIP3    H264896   3.386   3.927  13.590  1.9760 -0.6770 -0.1081
14469TIP3   OH264897   0.454   5.730   0.252  0.4639 -0.2185  0.3330
14469TIP3    H164898   0.421   5.814   0.286  1.6494  0.3066  0.2033
14469TIP3    H264899   0.386   5.701   0.191 -0.3482  0.2343  1.0011
14470TIP3   OH264900   1.616   2.327   1.358  0.7538 -0.5114 -0.1116
14470TIP3    H164901   1.691   2.269   1.345 -0.5424 -1.9239 -1.4081
14470TIP3    H264902   1.549   2.293   1.300 -0.5088  1.4672  0.1433
14471TIP3   OH264903   0.704   4.695  12.949  0.5175 -0.2200 -0.4033
14471TIP3    H164904   0.662   4.618  12.910 -1.4391  0.3164  0.5724
14471TIP3    H264905   0.645   4.767  12.928  0.6646  0.4737  1.4954
14472TIP3   OH264906   2.879   1.784   6.013 -0.6355  0.1859  0.3548
14472TIP3    H164907   2.972   1.792   5.992 -0.3717 -2.0769  0.4797
14472TIP3    H264908   2.834   1.790   5.929 -0.0807 -2.1670 -0.1522
14473TIP3   OH264909   5.287   1.541  15.651  0.2215 -0.4129 -0.4778
14473TIP3    H164910   5.228   1.563  15.579  1.3485  0.2445 -1.2292
14473TIP3    H264911   5.296   1.446  15.646 -0.4675 -0.4759 -0.5907
14474TIP3   OH264912   0.809   1.392  10.417 -0.4142  0.6404 -0.2330
14474TIP3    H164913   0.751   1.336  10.468  0.0356 -1.2969 -1.7930
14474TIP3    H264914   0.760   1.474  10.407 -2.1943 -0.3881 -0.1597
14475TIP3   OH264915   1.850   5.428  12.136  0.0093 -0.2085 -0.0249
14475TIP3    H164916   1.906   5.358  12.170  2.0759 -0.0386 -2.8090
14475TIP3    H264917   1.910   5.501  12.120 -1.5630  1.0795 -0.1725
14476TIP3   OH264918   3.606   6.519   2.923 -0.1856 -0.1921 -0.6756
14476TIP3    H164919   3.577   6.494   3.010 -1.1469  0.5224 -0.7900
14476TIP3    H264920   3.640   6.608   2.933  0.6672 -0.4887 -0.8318
14477TIP3   OH264921   5.694   3.510   3.145 -0.2819 -0.3095 -0.1703
14477TIP3    H164922   5.697   3.569   3.220 -0.4470 -2.2658  1.4306
14477TIP3    H264923   5.785   3.502   3.116  0.0311 -0.9735  0.9869
14478TIP3   OH264924   4.811   6.505   3.672 -0.1037 -0.0701  0.3251
14478TIP3    H164925   4.885   6.455   3.706  0.3893  0.8819  0.6857
14478TIP3    H264926   4.807   6.482   3.579  1.0354  0.3269  0.1635
14479TIP3   OH264927   0.866   6.779  11.683 -0.1350 -0.4664  0.0265
14479TIP3    H164928   0.774   6.792  11.658 -0.1341 -2.0725 -0.8707
14479TIP3    H264929   0.897   6.866  11.708 -1.6778  0.2244 -0.4179
14480TIP3   OH264930   4.340   3.238   6.123 -0.3469  0.5058  0.0494
14480TIP3    H164931   4.382   3.265   6.041  2.1299 -2.3036  0.2928
14480TIP3    H264932   4.247   3.253   6.109  0.2934  2.6500 -2.2424
14481TIP3   OH264933   5.521   3.763   4.862  0.0644  0.2064 -0.7527
14481TIP3    H164934   5.512   3.747   4.768  1.4673 -1.6875 -0.6121
14481TIP3    H264935   5.608   3.800   4.872 -0.0545  0.3369 -0.1841
14482TIP3   OH264936   4.384   5.789   3.308  0.2686  0.1545  0.5157
14482TIP3    H164937   4.431   5.807   3.227  1.2639 -0.8076  0.8616
14482TIP3    H264938   4.367   5.875   3.347 -2.6967  0.8069 -2.0758
14483TIP3   OH264939   5.175   2.311  14.252 -0.5099  0.2580  0.2773
14483TIP3    H164940   5.270   2.321  14.255 -0.2305 -2.2893  0.5737
14483TIP3    H264941   5.148   2.302  14.344 -0.9105 -0.2181  0.1145
14484TIP3   OH264942   0.063   2.496  11.457 -0.2280  0.1905 -0.3449
14484TIP3    H164943   0.144   2.456  11.426 -0.0855  0.2990 -0.1055
14484TIP3    H264944  -0.003   2.427  11.447 -0.3810  0.5368 -1.8408
14485TIP3   OH264945   5.449   5.533  15.582 -0.5267 -0.1490  0.0394
14485TIP3    H164946   5.447   5.518  15.488 -0.4876 -1.4007  0.2224
14485TIP3    H264947   5.456   5.445  15.620  1.7165  0.4558  1.1288
14486TIP3   OH264948   4.148   4.421  11.102  0.2728 -0.0746 -0.1922
14486TIP3    H164949   4.233   4.380  11.085 -0.2625 -1.1605 -0.3057
14486TIP3    H264950   4.127   4.467  11.020  0.9580  0.5987 -0.0027
14487TIP3   OH264951   5.040   6.540   4.260  0.3285 -0.2756 -0.8051
14487TIP3    H164952   4.997   6.563   4.342  2.6307 -0.2120  0.4473
14487TIP3    H264953   4.973   6.496   4.208 -1.3482  0.3026  0.8367
14488TIP3   OH264954   3.917   4.125   4.154 -0.1759  0.4970  0.1148
14488TIP3    H164955   3.831   4.155   4.186 -0.3145  0.4074 -0.1658
14488TIP3    H264956   3.914   4.143   4.060 -0.5014 -0.9744 -0.1685
14489TIP3   OH264957   0.219   0.841  13.719 -0.8189  0.6528  0.3998
14489TIP3    H164958   0.157   0.768  13.721 -0.5819  0.2148 -3.6450
14489TIP3    H264959   0.297   0.808  13.763 -1.1550 -1.0909 -0.2706
14490TIP3   OH264960   2.000   4.520   4.031 -0.1728  0.6013 -1.1589
14490TIP3    H164961   2.057   4.589   4.067 -0.2225  0.3681 -0.6289
14490TIP3    H264962   1.964   4.559   3.951  0.1431  1.0302 -1.0983
14491TIP3   OH264963   0.304   5.826  14.182  0.6953  0.1760  0.4219
14491TIP3    H164964   0.244   5.881  14.133 -0.0545 -2.3890 -1.6630
14491TIP3    H264965   0.249   5.782  14.247  1.3518  2.1141  2.3228
14492TIP3   OH264966   3.859   1.481   3.321 -0.2866  0.1558 -0.0734
14492TIP3    H164967   3.821   1.407   3.274 -0.9157 -0.4481  1.3560
14492TIP3    H264968   3.786   1.543   3.331 -0.1351  0.3178  0.0257
14493TIP3   OH264969   4.183   3.762  14.812 -0.3724  0.0255  0.4275
14493TIP3    H164970   4.152   3.764  14.902 -0.0462 -0.4505  0.5517
14493TIP3    H264971   4.103   3.768  14.759 -0.6607 -0.8973  0.7439
14494TIP3   OH264972   1.419   1.765   0.733  1.1084  0.2107 -0.0798
14494TIP3    H164973   1.419   1.801   0.822  4.1079  1.8428 -0.6913
14494TIP3    H264974   1.357   1.819   0.685 -1.7463 -1.6687  1.3307
14495TIP3   OH264975   5.328   3.383   0.238  0.0833 -0.3501 -0.4107
14495TIP3    H164976   5.327   3.471   0.273  3.8618 -0.9827  1.4948
14495TIP3    H264977   5.247   3.343   0.271  0.0053  1.3264  1.5040
14496TIP3   OH264978   3.150   5.779   3.491 -0.6286 -0.0020  0.3633
14496TIP3    H164979   3.089   5.842   3.452 -1.5287 -1.2390 -0.2614
14496TIP3    H264980   3.115   5.693   3.466  0.8943 -0.7413  0.7231
14497TIP3   OH264981   4.421   4.139  13.797  0.1123  0.1113  0.0815
14497TIP3    H164982   4.484   4.087  13.749 -0.9590 -2.0782  0.9915
14497TIP3    H264983   4.370   4.184  13.729  2.0448  1.2140 -0.6658
14498TIP3   OH264984   6.154   1.603  16.474 -0.5490 -0.1769 -0.1149
14498TIP3    H164985   6.109   1.546  16.536 -1.7963 -0.7313 -1.4888
14498TIP3    H264986   6.246   1.600  16.501 -0.6559 -2.5051  0.1150
14499TIP3   OH264987   4.633   1.776   0.958  0.8063  0.1895  0.1777
14499TIP3    H164988   4.687   1.720   1.014  2.8663  1.6914 -0.2284
14499TIP3    H264989   4.666   1.762   0.870  0.2855  0.8380 -0.1284
14500TIP3   OH264990   1.395   5.063  17.022 -0.1302  0.0108 -0.5254
14500TIP3    H164991   1.388   5.097  16.933 -0.3093  0.7971 -0.2107
14500TIP3    H264992   1.465   5.114  17.063  0.6747 -1.0576 -0.5351
14501TIP3   OH264993   5.179   0.926   2.185  0.0377  0.0171 -0.1996
14501TIP3    H164994   5.218   0.902   2.101 -0.6278 -1.7701 -0.0124
14501TIP3    H264995   5.194   1.021   2.191  0.3079  0.1452 -2.2149
14502TIP3   OH264996   0.736   5.323  15.711 -0.4553  0.1436 -0.2759
14502TIP3    H164997   0.669   5.321  15.779  0.6922  1.0133  0.9228
14502TIP3    H264998   0.688   5.322  15.628 -1.8980  0.1078  0.5578
14503TIP3   OH264999   4.404   2.307  15.226 -0.5894  0.0040  0.2021
14503TIP3    H165000   4.391   2.230  15.171  2.0098  0.0519 -0.5224
14503TIP3    H265001   4.385   2.276  15.315  0.5238 -1.5169 -0.0654
14504TIP3   OH265002   1.098   6.786   5.522 -0.5044  0.2310  0.4959
14504TIP3    H165003   1.071   6.832   5.442 -0.4366  0.4208  0.5842
14504TIP3    H265004   1.190   6.807   5.532 -0.3930 -0.1738  0.3657
14505TIP3   OH265005   6.458   1.796   3.826  0.0700  0.3391  0.1545
14505TIP3    H165006   6.464   1.700   3.833  0.6949  0.3016 -0.7452
14505TIP3    H265007   6.528   1.819   3.765 -0.9779  1.2316 -0.7284
14506TIP3   OH265008   1.267   0.121  16.145  0.3783  0.3937  0.6564
14506TIP3    H165009   1.335   0.096  16.207  0.9782 -0.7834 -0.4566
14506TIP3    H265010   1.315   0.150  16.067 -0.3855 -0.8812 -0.3079
14507TIP3   OH265011   6.260   4.630   5.128  0.3849 -0.3102  0.0114
14507TIP3    H165012   6.172   4.643   5.163  0.2880 -0.9287  0.0114
14507TIP3    H265013   6.310   4.705   5.160 -0.5007  0.8156 -1.2052
14508TIP3   OH265014   1.899   1.183   3.696  0.4048  0.0231  0.8524
14508TIP3    H165015   1.986   1.179   3.656 -0.8790 -0.0283 -2.0578
14508TIP3    H265016   1.881   1.277   3.704 -0.8792  0.1057 -2.3330
14509TIP3   OH265017   5.802   6.401  15.670 -0.1056 -0.5238 -0.1313
14509TIP3    H165018   5.855   6.322  15.664  0.1148 -0.2543 -1.9609
14509TIP3    H265019   5.715   6.374  15.640  0.2785  0.1919 -1.9481
14510TIP3   OH265020   3.302   2.055  15.649 -0.1873  0.1552  0.4182
14510TIP3    H165021   3.360   1.988  15.612  2.4858  2.3967  0.3499
14510TIP3    H265022   3.326   2.058  15.742 -1.2616  0.0725  0.7000
14511TIP3   OH265023   3.599   1.127   3.503  0.5575  0.1904 -0.8483
14511TIP3    H165024   3.669   1.115   3.568  0.2788  0.9229 -0.4061
14511TIP3    H265025   3.570   1.038   3.484  0.4437 -0.0265  0.2613
14512TIP3   OH265026   1.737   6.724   4.930 -0.4445  0.5755 -0.1287
14512TIP3    H165027   1.782   6.783   4.991  1.2367  0.2891 -1.0703
14512TIP3    H265028   1.685   6.666   4.987  0.2481  1.0153  0.9704
14513TIP3   OH265029   2.067   3.760   0.305 -0.1912  0.0989 -0.4207
14513TIP3    H165030   2.142   3.796   0.258  1.7922 -1.4588  1.4227
14513TIP3    H265031   2.087   3.667   0.315 -2.3058 -0.3171  0.2574
14514TIP3   OH265032   5.375   2.082   3.759  0.2846  0.2204  0.0891
14514TIP3    H165033   5.319   2.045   3.690 -0.0278  1.6499 -0.4343
14514TIP3    H265034   5.322   2.077   3.838  1.0892 -2.5601  0.5131
14515TIP3   OH265035   3.114   3.841  10.313  0.4663 -0.7730 -0.2340
14515TIP3    H165036   3.202   3.812  10.338  1.4402  0.8727 -1.7440
14515TIP3    H265037   3.100   3.922  10.363  0.1394 -0.5643 -0.6658
14516TIP3   OH265038   4.446   0.472  11.292  0.4522  0.9740 -0.0680
14516TIP3    H165039   4.353   0.453  11.278  0.3386  2.0637 -0.8039
14516TIP3    H265040   4.470   0.416  11.366 -0.0298 -1.5580 -1.7584
14517TIP3   OH265041   6.485   4.711   4.577 -0.0642 -0.2317  0.2464
14517TIP3    H165042   6.437   4.665   4.645 -1.0900 -0.9213 -0.9107
14517TIP3    H265043   6.575   4.683   4.586 -0.1790 -0.2329  1.3800
14518TIP3   OH265044   2.326   5.445   2.911  0.1528  0.1646 -0.0120
14518TIP3    H165045   2.367   5.448   2.824  0.2892  0.2561  0.0555
14518TIP3    H265046   2.376   5.507   2.963  0.1321  0.0364  0.1602
14519TIP3   OH265047   6.378   0.035   2.551  0.1964 -1.0916 -0.0527
14519TIP3    H165048   6.345   0.026   2.461  0.4037  0.5151 -0.2942
14519TIP3    H265049   6.300   0.044   2.604  0.0797 -1.8768 -0.0820
14520TIP3   OH265050   2.489   6.453   2.274  0.0508  0.0001  0.4046
14520TIP3    H165051   2.431   6.513   2.226  0.9243 -0.0042 -0.6703
14520TIP3    H265052   2.577   6.489   2.261  0.3688 -0.3964  1.4263
14521TIP3   OH265053   6.075   3.442   2.622  0.1062 -0.0362  0.2860
14521TIP3    H165054   5.992   3.463   2.666  0.6567 -0.3084  1.4949
14521TIP3    H265055   6.074   3.347   2.614  0.6559 -0.1103  1.0419
14522TIP3   OH265056   3.374   6.276  17.017 -0.4341  0.0709  0.2794
14522TIP3    H165057   3.322   6.204  16.983 -1.8539  1.7862 -1.2756
14522TIP3    H265058   3.458   6.269  16.971 -1.4104  0.7966 -1.6640
14523TIP3   OH265059   5.010   1.449   4.118  0.6159  0.6027 -0.0878
14523TIP3    H165060   4.963   1.380   4.163  0.8007  1.2996  1.1943
14523TIP3    H265061   4.952   1.476   4.047  0.0727 -0.1045  0.0887
14524TIP3   OH265062   2.264   5.109  11.288 -0.0026  0.1804  0.9946
14524TIP3    H165063   2.251   5.037  11.226 -0.2600  1.7280 -0.7995
14524TIP3    H265064   2.338   5.159  11.252 -1.0279  1.8784  1.1604
14525TIP3   OH265065   6.617   3.536   5.749 -0.3916 -0.3159  0.1925
14525TIP3    H165066   6.525   3.515   5.762 -0.0537 -1.6429  0.5413
14525TIP3    H265067   6.655   3.456   5.712  0.4599  0.4850 -0.7045
14526TIP3   OH265068   0.925   6.374   4.722 -0.1824 -0.0407 -0.3619
14526TIP3    H165069   0.938   6.314   4.649 -0.2236  1.3130 -1.5235
14526TIP3    H265070   0.864   6.329   4.781  0.1538 -1.3064 -0.9714
14527TIP3   OH265071   4.162   5.804  13.052  0.2707  0.6175  0.9449
14527TIP3    H165072   4.160   5.768  12.963 -0.9567  0.4168  1.0492
14527TIP3    H265073   4.217   5.743  13.101 -1.4895 -0.9631  1.0316
14528TIP3   OH265074   0.584   2.315  15.778 -0.5321  0.0613  0.3895
14528TIP3    H165075   0.564   2.352  15.692  1.2015  0.8818  0.3318
14528TIP3    H265076   0.499   2.312  15.823 -1.2632  0.6977 -0.9291
14529TIP3   OH265077   6.664   4.810   2.287  0.0062 -0.3381  0.1674
14529TIP3    H165078   6.690   4.881   2.346  0.4010 -0.6994  0.4368
14529TIP3    H265079   6.735   4.746   2.295  0.4063 -0.0789 -1.2267
14530TIP3   OH265080   5.892   3.941   1.710 -0.0174  0.0318 -1.2464
14530TIP3    H165081   5.912   4.008   1.776 -0.9634 -0.0841 -0.8304
14530TIP3    H265082   5.977   3.902   1.688  0.1427 -0.9892  1.0376
14531TIP3   OH265083   6.291   0.647  14.355 -0.1092  0.0748  0.3196
14531TIP3    H165084   6.226   0.699  14.309 -0.2983 -1.5104 -1.2682
14531TIP3    H265085   6.368   0.704  14.361 -0.8051  1.0529 -0.0278
14532TIP3   OH265086   2.707   2.552   3.109  0.0224 -0.7611 -0.0698
14532TIP3    H165087   2.653   2.630   3.095 -1.2076 -1.2994  1.4910
14532TIP3    H265088   2.664   2.484   3.058 -0.3769 -1.0184  0.6019
14533TIP3   OH265089   2.894   5.209   1.622 -0.6728  0.1324  0.2331
14533TIP3    H165090   2.950   5.158   1.564 -0.6231  0.1337  0.2795
14533TIP3    H265091   2.863   5.146   1.687  1.5163  0.6719  1.8749
14534TIP3   OH265092   1.615   4.802   2.844  0.2730  0.0053  0.0630
14534TIP3    H165093   1.526   4.802   2.807  0.1286  3.2648  0.2535
14534TIP3    H265094   1.672   4.816   2.768  0.4003  0.7625  0.2940
14535TIP3   OH265095   1.923   0.029  13.130  0.2419 -0.5419  0.1009
14535TIP3    H165096   1.843  -0.021  13.140 -1.2522  1.5052 -1.1207
14535TIP3    H265097   1.911   0.106  13.185  1.6496 -0.5417  0.4313
14536TIP3   OH265098   1.718   6.175  14.861  0.4610  0.8593 -0.4172
14536TIP3    H165099   1.674   6.192  14.777 -0.7748  0.3242  0.1006
14536TIP3    H265100   1.667   6.226  14.924  1.4618  1.3483 -0.0048
14537TIP3   OH265101   2.987   2.555  13.005 -0.1313  0.0118 -0.0914
14537TIP3    H165102   2.973   2.610  13.082  0.1947 -0.5712  0.3918
14537TIP3    H265103   2.903   2.554  12.960  0.4060  2.6696 -1.2778
14538TIP3   OH265104   2.418   0.812   6.565 -0.2041  0.2470  0.5183
14538TIP3    H165105   2.472   0.836   6.489  1.8007 -1.0953  1.4715
14538TIP3    H265106   2.398   0.719   6.552  2.5572 -0.7760  2.9829
14539TIP3   OH265107   1.758   2.953   5.850  0.3602  0.3002  0.1489
14539TIP3    H165108   1.672   2.911   5.849  0.3656  0.2963 -0.1479
14539TIP3    H265109   1.782   2.955   5.943  0.3776 -0.3839  0.1656
14540TIP3   OH265110   3.470   0.764   3.127  0.2801  0.0810 -0.1883
14540TIP3    H165111   3.512   0.795   3.207  0.2010  0.2966 -0.2278
14540TIP3    H265112   3.378   0.790   3.137 -0.0153 -1.0871  0.2529
14541TIP3   OH265113   0.334   0.382  11.644 -0.2663 -0.7952  1.0542
14541TIP3    H165114   0.416   0.345  11.676 -1.5070 -2.7297  2.1588
14541TIP3    H265115   0.308   0.326  11.572 -0.6779 -0.2773  0.7920
14542TIP3   OH265116   0.814   5.072  11.902  0.1823  0.4020 -0.2156
14542TIP3    H165117   0.901   5.035  11.885  0.2958  0.5869 -0.0340
14542TIP3    H265118   0.767   5.060  11.820  0.7388  1.3077 -0.6713
14543TIP3   OH265119   4.977   5.114  16.379 -0.8462  0.4472 -0.2380
14543TIP3    H165120   5.023   5.192  16.349  0.5610 -1.2205 -2.5219
14543TIP3    H265121   4.886   5.128  16.352 -0.6531  1.3970 -0.4012
14544TIP3   OH265122   0.684   6.482  12.130  0.3894 -0.1394  0.2141
14544TIP3    H165123   0.647   6.400  12.097  0.6568  0.2385 -1.0419
14544TIP3    H265124   0.701   6.534  12.052  0.7550  0.8940  0.9704
14545TIP3   OH265125   2.608   3.863  14.364 -0.2158 -0.5587 -0.3081
14545TIP3    H165126   2.628   3.921  14.291 -0.0187  1.4713  1.3176
14545TIP3    H265127   2.512   3.859  14.366 -0.2166 -0.8821 -0.8688
14546TIP3   OH265128   4.502   6.150  16.994  0.1585  0.4681 -0.7280
14546TIP3    H165129   4.460   6.067  16.975 -0.3043  0.5775 -0.1679
14546TIP3    H265130   4.596   6.132  16.987  0.0993 -0.4311  0.8373
14547TIP3   OH265131   5.887   5.904   3.082 -0.2857 -0.2530 -0.2544
14547TIP3    H165132   5.971   5.860   3.099 -0.4644 -0.3444  0.3815
14547TIP3    H265133   5.846   5.912   3.168 -0.5116  0.6459 -0.4372
14548TIP3   OH265134   3.996   2.828   1.337  0.3682 -0.5743  0.6354
14548TIP3    H165135   4.058   2.762   1.307 -1.7903 -3.4129  2.0619
14548TIP3    H265136   3.920   2.817   1.279 -0.4074 -0.0808  1.5399
14549TIP3   OH265137   5.705   4.413   2.512 -0.3067  0.1047  0.6257
14549TIP3    H165138   5.751   4.432   2.594  1.3035  0.1171 -0.2737
14549TIP3    H265139   5.773   4.385   2.451 -1.3385  1.0760 -1.0341
14550TIP3   OH265140   1.211   2.181   1.093  0.0127  0.0760 -0.1056
14550TIP3    H165141   1.141   2.162   1.155  0.2501  0.2467  0.2142
14550TIP3    H265142   1.176   2.154   1.008 -0.7446  0.9121 -0.0638
14551TIP3   OH265143   3.275   3.765   6.491 -0.0475  0.0261 -0.3855
14551TIP3    H165144   3.340   3.836   6.495 -0.8605  0.7815 -0.5117
14551TIP3    H265145   3.321   3.689   6.526  0.9651  0.5155 -0.6265
14552TIP3   OH265146   1.245   0.961  16.856  0.5498 -0.3430  0.1362
14552TIP3    H165147   1.259   1.049  16.893 -1.2681 -0.3230  0.8329
14552TIP3    H265148   1.332   0.920  16.859  1.2535  1.1267  0.5937
14553TIP3   OH265149   4.344   5.928  15.164 -0.2129  0.3525  0.6668
14553TIP3    H165150   4.289   5.976  15.227 -0.5846  1.2420 -0.3243
14553TIP3    H265151   4.365   5.993  15.097 -0.0915 -0.6805 -0.2994
14554TIP3   OH265152   2.465   5.884   5.955 -0.4194  0.1246 -0.5824
14554TIP3    H165153   2.476   5.789   5.963 -2.8054 -0.1139  0.3895
14554TIP3    H265154   2.381   5.894   5.910  0.2014  1.7785 -1.3949
14555TIP3   OH265155   1.677   5.683   0.259  0.4655  0.0138  0.6626
14555TIP3    H165156   1.746   5.730   0.213  0.3632 -0.8161 -0.3530
14555TIP3    H265157   1.694   5.591   0.241 -0.8479 -0.2039  0.4764
14556TIP3   OH265158   5.051   2.926  10.175  0.4815 -0.2490  0.0266
14556TIP3    H165159   5.072   2.840  10.211  0.8565  0.4430  1.5298
14556TIP3    H265160   4.960   2.941  10.199  0.1606 -0.5838 -0.9779
14557TIP3   OH265161   3.529   3.280  13.998  0.0065  0.1552 -0.1457
14557TIP3    H165162   3.453   3.319  14.041 -0.1749 -0.6897  0.3030
14557TIP3    H265163   3.602   3.297  14.058  0.1456  0.8330 -0.5039
14558TIP3   OH265164   4.210   0.689   2.209 -0.0560  0.2957 -0.1864
14558TIP3    H165165   4.174   0.669   2.122 -1.4303  1.0029  0.2026
14558TIP3    H265166   4.141   0.739   2.252  0.3915 -0.5239  1.5243
14559TIP3   OH265167   2.252   1.133   2.388 -0.4979  0.3147  0.0501
14559TIP3    H165168   2.268   1.124   2.482  0.9223  1.0920 -0.1136
14559TIP3    H265169   2.279   1.222   2.367  0.8826 -0.4227 -1.4295
14560TIP3   OH265170   4.328   5.843  12.639  0.1698  0.1230 -0.3504
14560TIP3    H165171   4.267   5.820  12.568 -0.4165  2.2052 -0.5281
14560TIP3    H265172   4.280   5.824  12.719  0.4307 -1.1782 -0.4894
14561TIP3   OH265173   3.667   1.960  12.653 -0.3506  0.7905 -0.4176
14561TIP3    H165174   3.753   1.985  12.618 -1.2224  0.3501 -2.9568
14561TIP3    H265175   3.627   1.908  12.584 -2.2680  0.0904  1.1613
14562TIP3   OH265176   5.657   2.349  12.016 -0.3269  0.1228  0.3149
14562TIP3    H165177   5.684   2.441  12.018  0.7453 -0.1163 -1.8372
14562TIP3    H265178   5.735   2.301  12.042 -1.0795 -0.1612  2.0817
14563TIP3   OH265179   6.287   5.283   5.864  0.5714 -0.1677 -0.2372
14563TIP3    H165180   6.245   5.233   5.933 -0.7072 -0.3666 -1.1304
14563TIP3    H265181   6.280   5.374   5.892 -0.6345 -0.1831 -0.4421
14564TIP3   OH265182   0.572   6.031   0.693  0.3506  0.0593  0.0386
14564TIP3    H165183   0.488   6.072   0.674  0.1014  0.2322  1.4649
14564TIP3    H265184   0.629   6.059   0.621 -0.6280  0.4841 -0.5789
14565TIP3   OH265185   1.766   6.510  15.981 -0.5647 -0.2214 -0.1203
14565TIP3    H165186   1.847   6.557  15.962 -0.4398 -0.5582 -0.4237
14565TIP3    H265187   1.792   6.418  15.990 -0.8972 -0.3189 -0.1277
14566TIP3   OH265188   1.087   2.069  13.788 -0.3411 -0.4683 -0.3715
14566TIP3    H165189   1.111   2.137  13.724 -1.8085  0.7389  0.3157
14566TIP3    H265190   0.996   2.048  13.766  0.0475 -2.0929 -0.4514
14567TIP3   OH265191   1.941   4.088  13.592  0.0489 -1.0058 -0.0616
14567TIP3    H165192   1.966   4.092  13.500 -2.7131  1.9314 -0.8028
14567TIP3    H265193   1.866   4.029  13.594 -1.1703  0.4978 -0.0931
14568TIP3   OH265194   1.538   4.396  12.364  0.2000 -0.4342  0.3043
14568TIP3    H165195   1.627   4.407  12.330  0.7166  0.3606  1.8595
14568TIP3    H265196   1.500   4.484  12.360 -0.3926 -0.7028 -0.0060
14569TIP3   OH265197   0.915   1.861  16.145  0.3165  0.4690 -0.1594
14569TIP3    H165198   0.842   1.862  16.207  0.5933 -0.8205  0.2118
14569TIP3    H265199   0.973   1.792  16.178  0.1371 -0.7147 -2.2220
14570TIP3   OH265200   2.531   3.127  17.064  0.0358  0.2599 -0.6374
14570TIP3    H165201   2.598   3.114  17.131  0.8771 -1.2893 -1.7774
14570TIP3    H265202   2.491   3.041  17.053 -0.6482  0.6902 -1.5618
14571TIP3   OH265203   3.466   6.541  11.659  0.3916 -0.6784 -0.8291
14571TIP3    H165204   3.411   6.528  11.582 -0.2657  0.7556 -0.6340
14571TIP3    H265205   3.419   6.608  11.710  0.0707 -2.6190  1.5246
14572TIP3   OH265206   6.532   3.587  11.505  0.0856  0.0433  0.0386
14572TIP3    H165207   6.467   3.654  11.523 -0.6154 -0.7535  0.4928
14572TIP3    H265208   6.567   3.611  11.419 -1.2458  0.1297 -0.4945
14573TIP3   OH265209   4.891   5.415   3.825 -0.2750 -0.1766  0.5729
14573TIP3    H165210   4.835   5.382   3.754 -1.1885  0.7788  0.8367
14573TIP3    H265211   4.973   5.367   3.815 -0.6668 -0.6136 -0.6563
14574TIP3   OH265212   2.363   5.719  16.543 -0.0254 -0.5402  0.0132
14574TIP3    H165213   2.273   5.751  16.535  0.5339  1.2111  0.6379
14574TIP3    H265214   2.381   5.680  16.457 -0.9243  0.2801 -0.5687
14575TIP3   OH265215   6.704   3.310  10.430  0.0847  0.5724 -0.3901
14575TIP3    H165216   6.610   3.299  10.442  0.0281  0.9038 -0.5224
14575TIP3    H265217   6.741   3.223  10.444 -0.3266  0.2753 -1.1611
14576TIP3   OH265218   4.671   2.300  16.391  0.1715  0.8135 -0.1637
14576TIP3    H165219   4.762   2.268  16.390 -0.2165 -0.2911 -0.7237
14576TIP3    H265220   4.666   2.358  16.315 -0.8129 -2.6712 -2.8760
14577TIP3   OH265221   1.728   4.050  13.115  0.4119 -0.0275 -0.8589
14577TIP3    H165222   1.741   3.959  13.144  1.3131 -0.0561 -1.3429
14577TIP3    H265223   1.658   4.082  13.171 -0.2912 -1.1924 -1.0420
14578TIP3   OH265224   3.162   2.131  15.954 -0.4395 -0.7251 -0.0555
14578TIP3    H165225   3.250   2.127  15.992  0.7004  0.2275 -2.4587
14578TIP3    H265226   3.106   2.160  16.025  1.3798 -0.3339  1.2429
14579TIP3   OH265227   3.502   4.711   1.991  0.0486  0.2892  0.0377
14579TIP3    H165228   3.570   4.663   1.944 -1.2094 -1.7251  0.1796
14579TIP3    H265229   3.546   4.746   2.068  1.2606  0.3090 -0.6591
14580TIP3   OH265230   5.869   5.418   4.044  0.6058  0.0229 -0.1656
14580TIP3    H165231   5.962   5.398   4.048  0.9926  1.6190 -0.6652
14580TIP3    H265232   5.828   5.338   4.012  1.7565 -0.7958  0.3519
14581TIP3   OH265233   2.259   3.883   4.646  0.1215 -0.2854 -0.9612
14581TIP3    H165234   2.354   3.879   4.635  0.3278  1.8180 -0.2623
14581TIP3    H265235   2.237   3.806   4.698  1.6185 -0.2088 -0.1803
14582TIP3   OH265236   1.673   6.789  17.096  0.1046  0.0343 -0.1424
14582TIP3    H165237   1.668   6.694  17.107  2.5818  0.0522  1.4607
14582TIP3    H265238   1.690   6.822  17.184  0.7371  1.8445 -0.9357
14583TIP3   OH265239   3.106   4.155  15.082  0.7015  0.6737  0.4127
14583TIP3    H165240   3.039   4.095  15.050  1.1333 -0.1693  1.0764
14583TIP3    H265241   3.060   4.210  15.146  0.6947 -0.0585  1.0432
14584TIP3   OH265242   2.695   2.443   6.083  0.2013  0.4321  0.7452
14584TIP3    H165243   2.619   2.500   6.069  1.2886  1.6562 -0.3426
14584TIP3    H265244   2.714   2.451   6.176 -2.9146 -2.3918  1.7195
14585TIP3   OH265245   1.014   1.429  17.129 -0.2870 -0.3113  0.0100
14585TIP3    H165246   1.001   1.439  17.223 -0.0091 -0.5115  0.0715
14585TIP3    H265247   1.085   1.366  17.121  1.1800  1.3388 -0.3005
14586TIP3   OH265248   2.367   2.298   4.692  0.8686 -0.1731 -0.9002
14586TIP3    H165249   2.395   2.244   4.766 -2.8311 -0.7277  0.1943
14586TIP3    H265250   2.412   2.260   4.616  2.0445 -1.7653  0.5475
14587TIP3   OH265251   1.372   2.639  14.594 -0.1848  0.5905  1.0032
14587TIP3    H165252   1.390   2.658  14.686 -3.0264  0.6205  1.5960
14587TIP3    H265253   1.290   2.686  14.575 -0.1389 -0.1777 -1.2761
14588TIP3   OH265254   0.304   6.435   0.958  0.3836  0.1123 -0.0523
14588TIP3    H165255   0.216   6.468   0.974 -0.0161 -0.8094 -0.2980
14588TIP3    H265256   0.301   6.400   0.869  1.0943  0.3690 -0.1863
14589TIP3   OH265257   5.557   4.952  15.071  0.4591  0.2139  0.2593
14589TIP3    H165258   5.578   4.858  15.071 -0.0827  0.0917  0.1370
14589TIP3    H265259   5.635   4.994  15.036  0.3701 -0.2699 -0.5369
14590TIP3   OH265260   2.564   0.505   4.251 -0.7036 -0.3601 -0.3038
14590TIP3    H165261   2.526   0.554   4.324  2.5455  1.1168  0.4817
14590TIP3    H265262   2.603   0.428   4.293  1.7919  0.8503 -0.3257
14591TIP3   OH265263   5.024   6.696   5.529 -0.7304  0.5003  0.1467
14591TIP3    H165264   5.042   6.789   5.517  0.9203  0.4333  1.8057
14591TIP3    H265265   4.931   6.687   5.509 -0.5098  2.1686 -1.8130
14592TIP3   OH265266   4.249   6.818   4.740  0.1760 -0.1456 -0.7047
14592TIP3    H165267   4.204   6.784   4.662 -0.4653  1.3879 -1.0268
14592TIP3    H265268   4.310   6.884   4.706  0.4514 -0.0217  0.0146
14593TIP3   OH265269   3.617   6.218   2.059 -0.3413 -0.0056  0.3291
14593TIP3    H165270   3.600   6.146   2.119  3.7750  0.0984  1.7461
14593TIP3    H265271   3.562   6.289   2.092 -1.6571 -1.3725  1.1317
14594TIP3   OH265272   4.548   0.022  16.780 -0.4293 -0.4247 -0.3751
14594TIP3    H165273   4.518   0.025  16.871 -0.7388  3.2180 -0.5283
14594TIP3    H265274   4.643   0.016  16.786 -0.4199  0.2164  0.2219
14595TIP3   OH265275   4.514   6.550  12.039 -0.3324 -0.0584  0.1071
14595TIP3    H165276   4.559   6.634  12.042  0.2336 -0.3842  1.4131
14595TIP3    H265277   4.429   6.566  12.080 -0.9996  0.3041 -1.3781
14596TIP3   OH265278   0.999   0.489  14.827 -0.1483  0.5563 -0.0658
14596TIP3    H165279   0.920   0.543  14.824 -0.5470  0.0681  1.4315
14596TIP3    H265280   1.006   0.452  14.739 -0.8956  1.5671 -0.5640
14597TIP3   OH265281   5.486   1.640   0.662 -0.4404  0.3033  0.1727
14597TIP3    H165282   5.530   1.657   0.746 -1.0561  1.3685  0.2914
14597TIP3    H265283   5.461   1.727   0.631  0.1975 -0.0485 -1.3563
14598TIP3   OH265284   4.710   1.039  11.801 -0.1602  0.5706 -0.3747
14598TIP3    H165285   4.753   1.000  11.877  1.0902 -0.0695 -1.3937
14598TIP3    H265286   4.750   1.125  11.793  0.3873  0.2747 -0.8601
14599TIP3   OH265287   0.087   3.957  16.563 -0.3675 -0.4484 -0.0140
14599TIP3    H165288   0.182   3.948  16.571 -0.5107 -0.7516  1.6006
14599TIP3    H265289   0.071   4.050  16.575 -0.1890 -0.2551 -1.2794
14600TIP3   OH265290   1.729   4.239  11.540 -0.2096 -0.0837  0.0859
14600TIP3    H165291   1.647   4.211  11.581  1.0395 -0.1656  2.6173
14600TIP3    H265292   1.790   4.168  11.558  0.2862 -0.3328 -2.3641
14601TIP3   OH265293   3.433   6.129  16.458 -0.4037 -0.1353 -0.4225
14601TIP3    H165294   3.455   6.065  16.390  1.2885  0.7143 -0.7164
14601TIP3    H265295   3.456   6.085  16.540  0.2929 -0.0961 -0.5905
14602TIP3   OH265296   5.098   6.559   4.979 -0.4788 -0.1927  0.5398
14602TIP3    H165297   5.010   6.549   5.015 -1.1065  0.0161 -0.9047
14602TIP3    H265298   5.118   6.474   4.940 -1.4402  0.7686 -2.1534
14603TIP3   OH265299   2.742   6.568   5.258  0.5546 -0.5652 -0.2356
14603TIP3    H165300   2.718   6.488   5.305  1.0651 -0.0500  0.9282
14603TIP3    H265301   2.687   6.568   5.180 -0.1206 -1.5689  0.2323
14604TIP3   OH265302   6.764   4.490   5.043  0.7309  0.5040 -0.2116
14604TIP3    H165303   6.742   4.519   4.954 -0.8139 -1.4107 -0.4913
14604TIP3    H265304   6.713   4.548   5.100 -1.4749 -0.8494 -0.7321
14605TIP3   OH265305   5.184   1.418  13.075  0.4244  0.3531  1.0484
14605TIP3    H165306   5.209   1.510  13.080 -0.8448  0.6113  2.9431
14605TIP3    H265307   5.237   1.374  13.141 -0.2867  0.0377  1.4175
14606TIP3   OH265308   6.726   5.649  16.370  0.2178 -0.0845  0.3200
14606TIP3    H165309   6.723   5.577  16.434 -0.9577 -1.4148 -1.1895
14606TIP3    H265310   6.791   5.621  16.306  2.5456  1.9538  1.7000
14607TIP3   OH265311   5.495   3.226   5.033  0.2147  0.3066 -0.3289
14607TIP3    H165312   5.516   3.133   5.042  1.3562  0.5669 -0.3110
14607TIP3    H265313   5.558   3.271   5.089  0.1104  1.1439 -0.8774
14608TIP3   OH265314   6.185   3.530   3.754  0.6693 -0.3196  0.6338
14608TIP3    H165315   6.204   3.456   3.812  1.6876 -1.9181 -1.6771
14608TIP3    H265316   6.271   3.570   3.737  0.7037 -1.3233 -1.6633
14609TIP3   OH265317   5.625   3.490  13.843  0.0813  0.2725 -0.2361
14609TIP3    H165318   5.587   3.431  13.778 -0.5969  1.3985 -0.8817
14609TIP3    H265319   5.677   3.433  13.899 -0.0666 -0.8548 -1.2095
14610TIP3   OH265320   5.627   4.438  15.853  0.0890 -0.1248  0.0260
14610TIP3    H165321   5.716   4.458  15.880  0.4058  0.9902 -1.7940
14610TIP3    H265322   5.572   4.491  15.911  0.6588  0.4700  0.0221
14611TIP3   OH265323   2.676   3.542  16.086  0.0072 -0.3370 -0.1623
14611TIP3    H165324   2.703   3.465  16.036  0.0154  0.0671 -0.7898
14611TIP3    H265325   2.758   3.580  16.117  0.1858  0.8283 -1.9694
14612TIP3   OH265326   3.306   1.105  16.706  0.7772 -0.4300  0.7220
14612TIP3    H165327   3.219   1.089  16.668  1.2496 -2.7760  0.5626
14612TIP3    H265328   3.287   1.133  16.795 -0.1481 -1.5951  0.9102
14613TIP3   OH265329   6.610   6.647  13.438 -0.4773 -0.3691  0.0601
14613TIP3    H165330   6.619   6.556  13.467  0.0119 -0.7379 -1.2276
14613TIP3    H265331   6.614   6.698  13.519 -0.1885 -1.4501  0.7388
14614TIP3   OH265332   1.500   1.594  15.741 -0.2961 -0.6951 -0.0604
14614TIP3    H165333   1.534   1.630  15.659 -0.6800 -1.7070 -0.6679
14614TIP3    H265334   1.471   1.671  15.791 -0.5812 -0.1175 -1.1049
14615TIP3   OH265335   6.199   3.036   1.532  0.9770  0.1128 -0.3458
14615TIP3    H165336   6.142   3.075   1.466  0.5094  0.1536  0.0870
14615TIP3    H265337   6.261   2.983   1.481  2.0497  1.9173 -1.0140
14616TIP3   OH265338   3.592   3.670   2.422 -0.7937  0.6916  0.8341
14616TIP3    H165339   3.557   3.756   2.443  0.6310  1.3668  0.4656
14616TIP3    H265340   3.678   3.667   2.464  0.6895  0.8240 -2.0246
14617TIP3   OH265341   6.034   0.658  16.889  0.3643  0.7469  0.2017
14617TIP3    H165342   6.109   0.640  16.945  0.5976 -0.7650 -0.5528
14617TIP3    H265343   6.072   0.683  16.805  0.0166  1.8350  0.3578
14618TIP3   OH265344   1.680   2.765   3.187 -0.4197 -0.2431  0.5486
14618TIP3    H165345   1.699   2.817   3.110  0.9781 -1.5050  0.0366
14618TIP3    H265346   1.632   2.825   3.245 -1.0629  0.8397 -1.0770
14619TIP3   OH265347   0.042   1.619  16.762  0.9651  0.2601  0.0554
14619TIP3    H165348   0.003   1.546  16.809 -0.8563  0.4153 -1.1648
14619TIP3    H265349   0.076   1.676  16.831  2.3436 -1.6605  1.0218
14620TIP3   OH265350   6.113   3.201   2.133  0.1928 -0.0541 -0.4313
14620TIP3    H165351   6.111   3.106   2.145 -0.2013  0.0378  0.2289
14620TIP3    H265352   6.131   3.213   2.040  0.7602 -0.7766 -0.4221
14621TIP3   OH265353   2.290   3.837   6.286  0.1759  0.6951  0.1186
14621TIP3    H165354   2.338   3.889   6.222 -0.0684  1.6393  0.6988
14621TIP3    H265355   2.281   3.894   6.362  1.9150 -0.9786  1.6390
14622TIP3   OH265356   6.712   0.357   0.412 -0.7266 -0.4922 -0.0735
14622TIP3    H165357   6.664   0.412   0.351 -1.4391 -0.3579  0.6095
14622TIP3    H265358   6.728   0.413   0.488 -1.1599 -1.1228  0.4855
14623TIP3   OH265359   1.608   5.777   2.316 -0.1093 -0.3554 -0.9722
14623TIP3    H165360   1.630   5.778   2.409  0.8535 -0.3926 -1.1930
14623TIP3    H265361   1.517   5.748   2.313 -0.6592  1.2675  0.0519
14624TIP3   OH265362   5.985   3.399  12.066 -0.7809  0.3371 -0.0411
14624TIP3    H165363   5.972   3.493  12.074 -2.7899  0.3703 -3.0971
14624TIP3    H265364   6.069   3.390  12.020 -1.4625  0.6984 -1.3700
14625TIP3   OH265365   4.184   1.842  12.539 -0.1410  0.0268  0.1517
14625TIP3    H165366   4.190   1.898  12.461 -0.3749 -1.0114 -0.6337
14625TIP3    H265367   4.091   1.824  12.549  0.0299 -1.2522 -0.3752
14626TIP3   OH265368   4.070   2.244  12.298 -0.2964  0.2341  1.1268
14626TIP3    H165369   4.164   2.251  12.319  0.1129 -2.2295  0.3852
14626TIP3    H265370   4.033   2.329  12.322  2.0814  1.1528  1.6963
14627TIP3   OH265371   2.405   2.722  12.147  0.4039 -0.2445  0.2868
14627TIP3    H165372   2.412   2.817  12.161  0.8551 -0.0696 -1.0165
14627TIP3    H265373   2.485   2.699  12.100  0.9838 -1.5369  1.8799
14628TIP3   OH265374   3.219   2.342  17.258  0.3510 -0.2356  0.3500
14628TIP3    H165375   3.152   2.389  17.210  0.2026 -0.5554  0.2391
14628TIP3    H265376   3.176   2.319  17.341  0.3712 -0.3135  0.3404
14629TIP3   OH265377   1.649   4.829  12.516  0.2919 -0.4709  0.2137
14629TIP3    H165378   1.633   4.877  12.434  0.0070  1.7106  1.5004
14629TIP3    H265379   1.567   4.836  12.564  0.9921 -0.2612  1.3992
14630TIP3   OH265380   5.455   2.277   1.615 -0.4613  0.0045  0.2501
14630TIP3    H165381   5.513   2.332   1.667  0.8353 -2.6175  1.7256
14630TIP3    H265382   5.381   2.257   1.674 -0.2401 -0.9166  0.2263
14631TIP3   OH265383   4.367   3.459  13.110  0.3017  0.4771 -0.0488
14631TIP3    H165384   4.375   3.382  13.165  1.0481  0.6542  0.0813
14631TIP3    H265385   4.281   3.449  13.068 -0.0996  0.1570  0.8416
14632TIP3   OH265386   2.603   0.874   5.675 -0.1011  0.1318  0.2392
14632TIP3    H165387   2.593   0.867   5.580  0.0539 -0.1216  0.2423
14632TIP3    H265388   2.646   0.792   5.701 -0.9281 -0.1889  0.6365
14633TIP3   OH265389   0.191   4.515   0.928  0.4655 -0.7342 -0.4378
14633TIP3    H165390   0.206   4.591   0.871 -0.1746  0.0653  0.4394
14633TIP3    H265391   0.163   4.553   1.012 -1.2786 -1.9770 -0.4174
14634TIP3   OH265392   0.233   5.209  11.307 -0.0971 -0.0887 -0.3351
14634TIP3    H165393   0.328   5.218  11.305 -0.2646  2.4024  1.2040
14634TIP3    H265394   0.206   5.229  11.217  0.8222 -0.5722 -0.7217
14635TIP3   OH265395   6.442   3.629   3.714  0.1018 -0.7344 -0.5729
14635TIP3    H165396   6.469   3.719   3.736 -0.2260 -0.6435 -0.5384
14635TIP3    H265397   6.505   3.601   3.648 -0.8658  0.1721 -1.8998
14636TIP3   OH265398   2.014   6.056   3.577 -0.3735  0.3535 -0.7911
14636TIP3    H165399   1.974   6.102   3.651 -0.5722 -1.0220 -0.0197
14636TIP3    H265400   1.976   6.098   3.499 -0.7398  1.3048 -0.1084
14637TIP3   OH265401   1.577   5.196   3.627  0.5536  0.1244  0.3872
14637TIP3    H165402   1.486   5.226   3.628  0.8309  0.9472  1.4634
14637TIP3    H265403   1.572   5.104   3.602 -0.5695  0.1917  0.3624
14638TIP3   OH265404   0.081   3.696  10.358 -0.1086 -0.7261  0.3133
14638TIP3    H165405   0.004   3.667  10.310 -0.5656 -0.5152  0.9076
14638TIP3    H265406   0.095   3.786  10.328  0.8821 -1.3067 -1.0016
14639TIP3   OH265407   0.193   1.392   4.744  0.5242  0.6756 -0.5955
14639TIP3    H165408   0.247   1.322   4.782  0.3035  0.0013 -1.5148
14639TIP3    H265409   0.132   1.347   4.686 -1.4301  1.3701  0.8543
14640TIP3   OH265410   1.581   1.219  16.675  0.2201 -0.1607  0.0332
14640TIP3    H165411   1.524   1.252  16.745  1.1156 -3.1185  2.2709
14640TIP3    H265412   1.659   1.275  16.680  0.5428 -0.7323  1.8665
14641TIP3   OH265413   6.818   1.211  14.357  0.2235  0.0536 -0.2255
14641TIP3    H165414   6.755   1.283  14.353 -0.7931 -0.7245  1.2574
14641TIP3    H265415   6.855   1.216  14.445  2.7704  0.9036 -1.2990
14642TIP3   OH265416   5.480   4.308   5.606 -0.1851  0.8797  0.6456
14642TIP3    H165417   5.507   4.373   5.542  0.1743 -1.2476 -1.4237
14642TIP3    H265418   5.385   4.301   5.595 -0.0411  0.0533 -0.1258
14643TIP3   OH265419   6.383   2.733   3.728 -0.5618 -0.0597  0.3686
14643TIP3    H165420   6.368   2.766   3.816 -0.5891  0.6360  0.1004
14643TIP3    H265421   6.380   2.810   3.672  1.6624 -0.1901  0.0223
14644TIP3   OH265422   0.416   3.498   1.890  0.5241  0.0274 -0.1172
14644TIP3    H165423   0.462   3.431   1.941 -0.3818 -1.0571 -0.7150
14644TIP3    H265424   0.390   3.454   1.810  1.4060  1.5632 -1.2922
14645TIP3   OH265425   0.319   3.647   4.297 -0.0557  0.8061 -0.4805
14645TIP3    H165426   0.340   3.616   4.209  0.8628 -1.3656  0.4650
14645TIP3    H265427   0.263   3.578   4.334  1.5633  0.4695  1.4737
14646TIP3   OH265428   1.042   5.280  15.118 -0.2455 -0.2401 -0.3992
14646TIP3    H165429   0.970   5.282  15.182 -0.9860 -0.9765 -1.1992
14646TIP3    H265430   1.097   5.206  15.147 -0.3474 -0.3028 -0.3638
14647TIP3   OH265431   2.433   2.392   4.982 -0.1436 -0.1302  0.6478
14647TIP3    H165432   2.488   2.384   4.904  2.5260  2.3899  2.1757
14647TIP3    H265433   2.361   2.449   4.956  0.7248  0.6920  0.0290
14648TIP3   OH265434   4.561   6.695  11.177 -0.2036 -0.2934  0.4096
14648TIP3    H165435   4.490   6.679  11.115  0.5061  0.9925 -0.7665
14648TIP3    H265436   4.526   6.759  11.238 -0.7343 -1.1880  1.0574
14649TIP3   OH265437   3.077   0.333  12.121 -0.0156  0.3484 -0.0339
14649TIP3    H165438   3.066   0.337  12.216  0.2994 -0.0642  0.0211
14649TIP3    H265439   3.013   0.268  12.092  1.1528 -0.8919  0.1124
14650TIP3   OH265440   1.729   1.723   3.857 -0.0072  0.5593  0.2092
14650TIP3    H165441   1.785   1.788   3.900  1.2456  0.2027 -0.8233
14650TIP3    H265442   1.729   1.748   3.764 -1.3645  0.4001  0.1591
14651TIP3   OH265443   2.935   5.962  15.036 -0.0331 -0.3566 -0.1560
14651TIP3    H165444   2.955   6.012  14.957 -0.7863 -1.1057 -0.8269
14651TIP3    H265445   2.882   6.022  15.089  1.4703  0.5669  0.3181
14652TIP3   OH265446   0.066   6.144   4.625  0.0669  0.6452 -0.4228
14652TIP3    H165447   0.062   6.160   4.719 -3.3876 -0.3469 -0.3167
14652TIP3    H265448   0.082   6.230   4.586 -1.0037  1.4867  0.9518
14653TIP3   OH265449   5.164   1.503  15.386  0.3607 -0.0304  0.2592
14653TIP3    H165450   5.237   1.493  15.324  1.1839 -0.6748  1.3154
14653TIP3    H265451   5.093   1.453  15.347  0.9940 -0.7512  0.0187
14654TIP3   OH265452   5.979   3.590  15.418 -0.2476  0.0905 -0.8778
14654TIP3    H165453   5.914   3.649  15.458  1.6132  0.6926  1.3690
14654TIP3    H265454   5.987   3.518  15.481  0.9567 -0.1761 -1.3357
14655TIP3   OH265455   1.312   1.935  12.389 -0.4472 -0.2162  0.3424
14655TIP3    H165456   1.403   1.929  12.419 -0.5347  2.8376  1.3661
14655TIP3    H265457   1.318   1.920  12.295  1.5322  2.7978 -0.0705
14656TIP3   OH265458   3.986   4.803   5.056 -0.1726 -0.2729 -0.0778
14656TIP3    H165459   4.081   4.794   5.051  0.0131  1.9712 -1.8300
14656TIP3    H265460   3.952   4.714   5.059  1.9350 -1.1389 -1.1771
14657TIP3   OH265461   2.378   1.606  14.344 -0.8473  0.0674  0.5588
14657TIP3    H165462   2.366   1.614  14.439 -1.7738 -1.1422  0.5497
14657TIP3    H265463   2.448   1.542  14.335 -0.0095  0.9855  0.4351
14658TIP3   OH265464   3.492   1.337  11.444  0.5947  0.0187  0.2847
14658TIP3    H165465   3.496   1.267  11.379 -0.4493  0.3471 -0.1534
14658TIP3    H265466   3.469   1.415  11.393  1.0035  0.5215  0.8717
14659TIP3   OH265467   5.216   6.558  17.212  0.9024 -0.7681  0.4671
14659TIP3    H165468   5.291   6.499  17.209  0.4212 -1.3803  0.2880
14659TIP3    H265469   5.193   6.574  17.120  1.2971  0.0493  0.5057
14660TIP3   OH265470   4.565   0.121  12.248 -0.1834 -0.0583 -0.1235
14660TIP3    H165471   4.652   0.159  12.243 -0.0220 -0.4558 -0.4510
14660TIP3    H265472   4.511   0.187  12.291 -0.0615  0.8060 -1.2741
14661TIP3   OH265473   2.237   0.705   5.859 -0.3375 -0.2396 -0.0814
14661TIP3    H165474   2.274   0.662   5.782 -0.1059 -0.3415  0.0876
14661TIP3    H265475   2.313   0.728   5.913 -0.5571 -0.9804  0.5457
14662TIP3   OH265476   5.766   6.050  14.666  0.7281 -0.1568 -0.0385
14662TIP3    H165477   5.747   6.020  14.577  0.4649 -0.0186 -0.0312
14662TIP3    H265478   5.713   6.130  14.676 -1.0051 -1.4050  1.0211
14663TIP3   OH265479   1.858   5.376  14.181  0.0183  0.1065 -0.2749
14663TIP3    H165480   1.905   5.388  14.264  0.9380  0.0414 -0.7791
14663TIP3    H265481   1.772   5.414  14.196 -0.0534 -0.5072  0.9363
14664TIP3   OH265482   0.293   5.907   6.033 -0.1829 -0.1792  0.6888
14664TIP3    H165483   0.381   5.944   6.023 -0.5440  0.9062  1.5626
14664TIP3    H265484   0.303   5.816   6.006  0.9046  0.3001 -0.6044
14665TIP3   OH265485   4.917   0.731  12.491  0.3911  0.5176 -0.3389
14665TIP3    H165486   4.965   0.719  12.409 -1.0687  0.0926 -1.1641
14665TIP3    H265487   4.825   0.735  12.464 -0.2223 -0.9488  1.3880
14666TIP3   OH265488   6.468   0.049  16.015  0.4155 -0.3059  0.1503
14666TIP3    H165489   6.441   0.135  15.984  0.2782  0.2819  1.8688
14666TIP3    H265490   6.396  -0.009  15.990  0.7718 -0.0603 -1.5344
14667TIP3   OH265491   5.430   1.283  16.297 -0.3630 -0.0102  0.6770
14667TIP3    H165492   5.492   1.329  16.240  0.7305 -0.2594  1.6530
14667TIP3    H265493   5.350   1.336  16.293  0.6448  1.5784  1.2166
14668TIP3   OH265494   4.061   6.263   5.611 -0.4452 -0.6071  0.2557
14668TIP3    H165495   4.136   6.267   5.551 -0.9927 -2.3334 -0.5697
14668TIP3    H265496   4.099   6.232   5.694 -0.0428 -0.3178  0.1795
14669TIP3   OH265497   2.752   6.133  13.127 -0.3273 -0.4802  0.2056
14669TIP3    H165498   2.831   6.083  13.147  0.1902  0.2675  0.0418
14669TIP3    H265499   2.760   6.154  13.034  0.6559  2.0108  0.8379
14670TIP3   OH265500   5.233   5.337   0.247  0.1265 -0.3683  0.4651
14670TIP3    H165501   5.223   5.272   0.177 -1.1549  1.4258 -1.0515
14670TIP3    H265502   5.314   5.383   0.226 -1.3096  1.5272 -0.9930
14671TIP3   OH265503   3.663   1.194  15.839  0.5040  0.5481  0.0353
14671TIP3    H165504   3.649   1.273  15.891  1.1555  1.5198 -1.2583
14671TIP3    H265505   3.702   1.224  15.757  1.2353 -1.1545 -0.2836
14672TIP3   OH265506   6.083   0.721  15.175 -0.1061 -0.7750 -0.9212
14672TIP3    H165507   6.041   0.805  15.194  1.8242  0.8162 -3.2951
14672TIP3    H265508   6.088   0.676  15.260  0.1233  2.1335  0.6704
14673TIP3   OH265509   4.026   4.406  11.633  0.2852 -0.2231  0.0112
14673TIP3    H165510   3.953   4.409  11.570 -0.1192 -0.8449  0.4400
14673TIP3    H265511   4.008   4.478  11.694  0.0760 -0.3202  0.0650
14674TIP3   OH265512   5.688   3.939   4.012 -0.2738 -0.0295 -0.3144
14674TIP3    H165513   5.665   3.860   4.061 -0.8429 -0.0156 -0.5632
14674TIP3    H265514   5.775   3.963   4.045 -0.6533 -0.0258  0.6810
14675TIP3   OH265515   6.413   6.176   2.063 -0.0062  0.3892  0.2052
14675TIP3    H165516   6.488   6.124   2.033  0.8966  0.6700  1.9033
14675TIP3    H265517   6.395   6.236   1.990 -0.5595 -1.7198 -1.4612
14676TIP3   OH265518   5.798   0.538  14.808 -0.1285  0.3799  0.8554
14676TIP3    H165519   5.750   0.470  14.855  0.2725 -0.4032  0.1433
14676TIP3    H265520   5.744   0.559  14.732  0.4985 -0.2737  0.2246
14677TIP3   OH265521   1.424   1.535  10.475  0.0301 -0.0021 -0.6124
14677TIP3    H165522   1.414   1.440  10.486  0.9017 -0.0194  0.1066
14677TIP3    H265523   1.511   1.554  10.511  0.5364  0.8362 -2.2238
14678TIP3   OH265524   0.873   3.851  13.187 -0.2453 -0.4851  0.1611
14678TIP3    H165525   0.890   3.866  13.094 -0.4713  1.4314  0.4090
14678TIP3    H265526   0.790   3.805  13.189  0.5401 -1.9731 -0.6543
14679TIP3   OH265527   6.021   4.303   0.096 -0.0514 -0.4021  0.1408
14679TIP3    H165528   5.956   4.326   0.162 -2.0564 -1.5871 -1.3640
14679TIP3    H265529   6.081   4.243   0.140 -0.7770 -0.4093  1.1307
14680TIP3   OH265530   6.310   2.108   3.503 -0.2446  0.5513 -0.2088
14680TIP3    H165531   6.277   2.050   3.571 -0.3630 -0.8351 -1.4244
14680TIP3    H265532   6.371   2.054   3.453  0.1350  1.6650 -0.9678
14681TIP3   OH265533   6.184   6.043  15.959  0.2756 -0.1449 -0.1743
14681TIP3    H165534   6.251   5.997  15.909  1.2363  0.5382  0.4649
14681TIP3    H265535   6.169   6.123  15.910 -0.2968 -0.4358 -0.4761
14682TIP3   OH265536   2.581   3.827   5.737 -0.0308 -0.2739  0.0844
14682TIP3    H165537   2.624   3.742   5.723 -0.4940 -0.2212 -1.8540
14682TIP3    H265538   2.650   3.884   5.769  0.7867 -0.8267 -0.6694
14683TIP3   OH265539   2.150   4.254  13.684 -0.0492  0.4656  0.2071
14683TIP3    H165540   2.100   4.181  13.648 -0.4444  1.2657 -0.8867
14683TIP3    H265541   2.176   4.224  13.771 -0.1740 -0.9871 -0.2447
14684TIP3   OH265542   2.976   4.260  11.308 -0.2171 -0.2940  0.1285
14684TIP3    H165543   2.905   4.280  11.369 -0.2383 -3.5191  1.2110
14684TIP3    H265544   3.013   4.346  11.287 -1.6287  1.0857  2.9223
14685TIP3   OH265545   3.335   0.882  13.332 -0.1094  0.3722 -0.2622
14685TIP3    H165546   3.242   0.904  13.323 -0.3490 -0.5741 -0.1897
14685TIP3    H265547   3.360   0.852  13.245  0.1723  0.7606 -0.3179
14686TIP3   OH265548   4.929   5.222   4.163  0.7049 -0.2014  0.7425
14686TIP3    H165549   4.844   5.265   4.167  1.3830  1.0870  1.6413
14686TIP3    H265550   4.920   5.147   4.223 -0.5077 -1.4145 -0.9064
14687TIP3   OH265551   3.802   3.641  11.735  0.5549 -0.0732 -0.5129
14687TIP3    H165552   3.889   3.679  11.749  0.4837  0.2645 -0.9830
14687TIP3    H265553   3.751   3.713  11.697  0.6486 -0.8900 -2.2076
14688TIP3   OH265554   0.592   1.555   1.090  0.6705 -0.1093  0.2740
14688TIP3    H165555   0.594   1.470   1.046 -0.3277  0.9842 -1.9906
14688TIP3    H265556   0.525   1.546   1.158  0.7918 -1.2266  0.2479
14689TIP3   OH265557   6.275   2.459   0.445 -0.5209 -0.0826  0.6266
14689TIP3    H165558   6.351   2.478   0.390  0.0129 -2.0062  0.6689
14689TIP3    H265559   6.204   2.508   0.404  0.2959  0.1065 -0.6091
14690TIP3   OH265560   5.769   3.789   0.807  0.0471  0.7290  0.3152
14690TIP3    H165561   5.751   3.707   0.853  0.2952 -0.0720 -0.9815
14690TIP3    H265562   5.857   3.813   0.833 -0.9418  1.9342  2.6673
14691TIP3   OH265563   1.631   1.046   0.499  0.0391 -0.0589 -0.2300
14691TIP3    H165564   1.571   1.100   0.447 -0.2740 -0.4857 -0.3106
14691TIP3    H265565   1.715   1.055   0.455 -0.1290 -0.0644 -0.5588
14692TIP3   OH265566   3.306   3.780   0.708  0.2489  0.3484 -0.2115
14692TIP3    H165567   3.321   3.867   0.744  0.1304  0.3052 -0.0555
14692TIP3    H265568   3.370   3.771   0.638  0.0610  0.6781 -0.4257
14693TIP3   OH265569   3.811   5.008  12.325 -0.4608 -0.0111 -0.1707
14693TIP3    H165570   3.758   4.941  12.369  0.3310 -0.1148  0.6239
14693TIP3    H265571   3.876   5.033  12.389  1.3065 -0.8577 -1.5900
14694TIP3   OH265572   6.705   0.988  12.530 -0.0450  0.6511  0.0899
14694TIP3    H165573   6.784   1.008  12.578 -0.2112  1.6015 -0.0269
14694TIP3    H265574   6.634   1.026  12.582 -0.5974 -1.5353  1.0084
14695TIP3   OH265575   5.769   3.593   5.746  0.4124  0.0566 -0.1242
14695TIP3    H165576   5.826   3.531   5.793 -1.4411 -0.9631  0.8321
14695TIP3    H265577   5.683   3.581   5.786 -0.2926  2.2315 -0.9269
14696TIP3   OH265578   2.108   2.223  13.352  0.7642  0.4352  0.4846
14696TIP3    H165579   2.150   2.257  13.431 -1.5059  1.1014  1.4453
14696TIP3    H265580   2.124   2.291  13.286  0.2599  1.1995  1.1405
14697TIP3   OH265581   1.221   6.215   3.002 -0.0608  0.4974  0.0435
14697TIP3    H165582   1.306   6.217   3.047 -0.6906  0.7558  1.2409
14697TIP3    H265583   1.156   6.221   3.072 -1.1176 -1.6354 -0.6968
14698TIP3   OH265584   3.690   3.691   5.362  0.4151 -0.6268  0.2313
14698TIP3    H165585   3.611   3.744   5.353  0.6528 -0.5626 -1.6315
14698TIP3    H265586   3.755   3.735   5.307  1.7967 -0.6267  1.8073
14699TIP3   OH265587   5.482   0.870   2.417  0.4007 -0.3165  0.1550
14699TIP3    H165588   5.575   0.883   2.400  0.2236  0.7454 -0.0648
14699TIP3    H265589   5.442   0.954   2.393 -0.2202  0.3388  3.2481
14700TIP3   OH265590   1.304   2.586  13.943 -0.6041  0.1534 -0.1330
14700TIP3    H165591   1.348   2.506  13.970  0.0286  1.3751  2.6815
14700TIP3    H265592   1.211   2.567  13.955 -0.6075 -0.9531 -1.8214
14701TIP3   OH265593   0.182   4.423  15.406  0.5697 -0.1676  0.4115
14701TIP3    H165594   0.229   4.353  15.449 -1.3512 -1.8929 -0.2154
14701TIP3    H265595   0.111   4.379  15.359 -0.6271  2.1732 -0.0493
14702TIP3   OH265596   0.404   0.498   5.068  0.1363  0.0699  0.1299
14702TIP3    H165597   0.411   0.591   5.090  0.8736 -0.0405  0.3664
14702TIP3    H265598   0.384   0.497   4.975 -0.4303  0.4787  0.2434
14703TIP3   OH265599   1.520   2.752  13.231 -0.1960  0.7353  0.0221
14703TIP3    H165600   1.437   2.765  13.186 -1.1245  0.9270  1.7236
14703TIP3    H265601   1.495   2.737  13.323  1.7240  2.4817  0.8718
14704TIP3   OH265602   4.807   2.640  15.404  0.1424 -0.1667  0.1062
14704TIP3    H165603   4.769   2.574  15.346  0.6676 -0.7129  0.3816
14704TIP3    H265604   4.764   2.722  15.378  0.7351 -0.3203 -1.3679
14705TIP3   OH265605   6.216   0.584  11.390  0.8471  0.6917 -0.1873
14705TIP3    H165606   6.149   0.516  11.386 -0.0525  1.6757 -3.6980
14705TIP3    H265607   6.221   0.607  11.483 -0.8842 -2.1122  0.6669
14706TIP3   OH265608   4.832   0.006  11.125  0.3134 -0.2433 -0.1430
14706TIP3    H165609   4.755  -0.043  11.152 -0.1909  0.2702 -0.6389
14706TIP3    H265610   4.849  -0.022  11.035  1.1428 -0.8965  0.2130
14707TIP3   OH265611   2.237   1.742   3.084  0.3159  0.1062 -0.3547
14707TIP3    H165612   2.183   1.794   3.025  0.2313  0.9186  0.4342
14707TIP3    H265613   2.197   1.655   3.084 -0.8707  0.6562  0.0856
14708TIP3   OH265614   5.213   1.858   1.705  0.3044 -0.1128 -0.6490
14708TIP3    H165615   5.264   1.777   1.696  1.2446  0.4395 -0.3778
14708TIP3    H265616   5.163   1.864   1.624  0.0061 -1.1141 -0.5500
14709TIP3   OH265617   6.284   2.013   1.846 -0.1300 -0.3357  0.4925
14709TIP3    H165618   6.212   1.971   1.798 -1.4011  0.9751  1.2436
14709TIP3    H265619   6.357   1.951   1.837 -1.1852 -1.4445 -0.7078
14710TIP3   OH265620   3.206   4.798  13.880 -0.1606  0.3866  0.0334
14710TIP3    H165621   3.115   4.821  13.861  0.0228 -0.4354 -1.9523
14710TIP3    H265622   3.219   4.715  13.835  1.8832  1.0482 -0.6431
14711TIP3   OH265623   0.924   6.492  14.480  0.5217 -0.6759  1.0755
14711TIP3    H165624   0.995   6.430  14.494  0.0554 -1.5288 -0.2898
14711TIP3    H265625   0.930   6.514  14.387 -0.1600  0.2917  1.2580
14712TIP3   OH265626   1.279   5.539  12.946  0.0006  0.2764  0.3286
14712TIP3    H165627   1.313   5.481  13.015 -1.1053  0.3438  0.9454
14712TIP3    H265628   1.184   5.533  12.955 -0.1482  0.5341 -1.0002
14713TIP3   OH265629   2.917   4.211  15.261  0.0841  0.3274 -0.0380
14713TIP3    H165630   2.859   4.215  15.338  1.1699  0.6642  0.7760
14713TIP3    H265631   2.892   4.130  15.217 -1.1057  0.5385  0.2252
14714TIP3   OH265632   1.319   6.653   3.158 -0.0094 -0.2117 -0.0997
14714TIP3    H165633   1.367   6.641   3.240  0.7429 -0.9760 -0.6425
14714TIP3    H265634   1.232   6.681   3.186 -0.0238 -1.2827  1.0049
14715TIP3   OH265635   5.895   6.374  13.075 -0.2645  0.4509 -0.0457
14715TIP3    H165636   5.860   6.425  13.002  0.5671  1.1550  0.0437
14715TIP3    H265637   5.860   6.286  13.061 -3.5221  1.5013  1.0173
14716TIP3   OH265638   1.095   3.922  14.286  0.0001 -0.3785  0.4729
14716TIP3    H165639   1.175   3.900  14.333  0.1146 -1.0926 -0.0496
14716TIP3    H265640   1.090   3.858  14.215 -0.3347  0.4911 -0.3018
14717TIP3   OH265641   3.332   1.533   5.526 -0.0902  0.4928 -0.5884
14717TIP3    H165642   3.328   1.621   5.489  0.9616  0.7337 -0.1507
14717TIP3    H265643   3.311   1.546   5.619  0.8140  0.3909 -0.3687
14718TIP3   OH265644   1.457   0.186  14.017  0.7633  0.3171 -0.1360
14718TIP3    H165645   1.446   0.267  14.068 -0.9409 -0.6045  0.9896
14718TIP3    H265646   1.397   0.196  13.943  1.8472  0.8292 -0.9616
14719TIP3   OH265647   6.452   5.915   0.435  0.4036  0.0848  0.4741
14719TIP3    H165648   6.487   5.874   0.515  0.5006  1.9146  1.4091
14719TIP3    H265649   6.361   5.934   0.456  0.6478  1.3151  0.4764
14720TIP3   OH265650   4.188   1.601  13.095  0.0969  0.4703  0.1682
14720TIP3    H165651   4.244   1.534  13.055 -0.2861  0.9871 -1.2650
14720TIP3    H265652   4.113   1.551  13.130  0.9874 -0.1153  1.3034
14721TIP3   OH265653   0.359   3.402   5.002  0.2893  0.0827  0.0617
14721TIP3    H165654   0.435   3.402   5.060 -0.3281  2.2516  0.9393
14721TIP3    H265655   0.384   3.457   4.928  0.0344 -0.2710 -0.2945
14722TIP3   OH265656   5.789   0.660  14.213 -0.0004 -0.3198 -0.1792
14722TIP3    H165657   5.769   0.744  14.172 -0.2847 -0.1640  0.2750
14722TIP3    H265658   5.772   0.595  14.145  1.6689  0.0902 -1.0283
14723TIP3   OH265659   0.901   5.194   2.895 -0.1490  0.4467  0.1995
14723TIP3    H165660   0.994   5.199   2.873 -0.7766 -1.3910 -3.0865
14723TIP3    H265661   0.864   5.274   2.858 -0.5110 -0.6926 -1.9494
14724TIP3   OH265662   6.214   3.032   3.971 -0.0662 -0.2574  0.3604
14724TIP3    H165663   6.139   3.024   4.030 -1.7280 -0.6875 -1.7269
14724TIP3    H265664   6.184   3.093   3.903  1.8161  0.2851  0.0087
14725TIP3   OH265665   0.330   4.482  15.944 -0.0526  0.2146 -0.8173
14725TIP3    H165666   0.380   4.544  15.997 -0.5153  1.0001 -1.2924
14725TIP3    H265667   0.240   4.488  15.978  0.1539 -1.1550  0.0034
14726TIP3   OH265668   2.530   2.939   5.418  0.0607 -0.2968  0.9386
14726TIP3    H165669   2.489   2.924   5.503  1.2328 -4.1418  0.9338
14726TIP3    H265670   2.483   2.881   5.358  0.5727  0.8918 -0.6543
14727TIP3   OH265671   5.900   5.197  11.909 -0.9872 -0.0623  0.2740
14727TIP3    H165672   5.902   5.149  11.826 -1.3939  0.6799 -0.1670
14727TIP3    H265673   5.992   5.215  11.928 -0.8537 -0.6823  0.2530
14728TIP3   OH265674   2.548   6.478  12.520  0.2412  0.4046 -0.6521
14728TIP3    H165675   2.572   6.411  12.584  1.5164  1.9349  0.4849
14728TIP3    H265676   2.452   6.484  12.526  0.3842  0.7869  1.3544
14729TIP3   OH265677   2.061   0.229  12.127 -0.2706 -0.2614 -0.0052
14729TIP3    H165678   2.044   0.301  12.188  2.1543 -0.0423  0.4693
14729TIP3    H265679   1.995   0.240  12.058 -0.3982  1.9634  0.4348
14730TIP3   OH265680   6.489   5.256  12.041  0.3771 -0.8212 -0.5647
14730TIP3    H165681   6.581   5.233  12.049  0.1473 -0.9864  1.9951
14730TIP3    H265682   6.483   5.347  12.071 -0.1525 -0.4866 -1.6472
14731TIP3   OH265683   4.069   1.603   4.108 -0.2954  0.4015 -0.5807
14731TIP3    H165684   4.142   1.552   4.073  0.8293  0.3062  1.7989
14731TIP3    H265685   4.030   1.644   4.032  2.6539  0.9805 -1.8432
14732TIP3   OH265686   6.715   4.041  11.619  0.2066  0.2654 -0.7740
14732TIP3    H165687   6.668   3.971  11.574 -1.2705  0.6609  0.0979
14732TIP3    H265688   6.664   4.120  11.600  1.1944  0.9141 -0.7795
14733TIP3   OH265689   2.662   4.644  11.608  0.1866 -0.0939 -0.0794
14733TIP3    H165690   2.650   4.699  11.530  0.6222  2.1110  1.3419
14733TIP3    H265691   2.728   4.691  11.660 -0.1006 -1.5203  1.6235
14734TIP3   OH265692   6.722   1.252  15.951 -0.6080 -0.1376 -0.3397
14734TIP3    H165693   6.756   1.328  15.904 -0.7002  0.4340  0.4914
14734TIP3    H265694   6.792   1.187  15.945  0.0657  0.5275  0.1565
14735TIP3   OH265695   1.395   5.880   4.527 -0.4388  0.7569 -0.4692
14735TIP3    H165696   1.407   5.823   4.451 -1.6828  0.1643 -0.2397
14735TIP3    H265697   1.480   5.879   4.571 -0.0472  0.1724 -1.2096
14736TIP3   OH265698   4.478   1.170   2.940  0.2564  0.4751 -0.2047
14736TIP3    H165699   4.468   1.096   2.999 -0.4497  1.1425  0.5202
14736TIP3    H265700   4.483   1.246   2.998  1.6033  0.9385 -0.9048
14737TIP3   OH265701   0.239   4.283   5.785  0.0198 -0.1151  0.2447
14737TIP3    H165702   0.157   4.332   5.792 -1.0945 -1.9261 -0.1392
14737TIP3    H265703   0.214   4.191   5.786  2.0454 -0.7075  0.1324
14738TIP3   OH265704   1.771   0.438  14.551  0.4730  0.2762 -0.0490
14738TIP3    H165705   1.708   0.437  14.478  0.7798 -0.5060 -0.3047
14738TIP3    H265706   1.732   0.499  14.614 -1.8442 -2.0986  0.9346
14739TIP3   OH265707   3.814   5.536   2.253  0.1722  0.2543  0.1191
14739TIP3    H165708   3.734   5.486   2.263 -0.0408  0.6461  0.3682
14739TIP3    H265709   3.880   5.471   2.227  0.0711 -0.2777  1.1795
14740TIP3   OH265710   2.341   6.723   3.449  0.7950  0.2443 -0.1799
14740TIP3    H165711   2.278   6.742   3.518  0.0286  0.1653 -0.8376
14740TIP3    H265712   2.288   6.684   3.379  1.2733  1.8677 -1.4749
14741TIP3   OH265713   3.251   4.267   0.835  0.4763 -0.2230  0.0405
14741TIP3    H165714   3.282   4.209   0.765 -1.4239 -2.2733  0.8098
14741TIP3    H265715   3.329   4.312   0.866  1.4836  0.1131 -2.8267
14742TIP3   OH265716   5.099   5.134  12.823 -0.1635 -0.1589  0.0738
14742TIP3    H165717   5.097   5.172  12.911  0.0777 -0.2425  0.1160
14742TIP3    H265718   5.027   5.072  12.823 -0.7198  0.4881 -0.0808
14743TIP3   OH265719   6.513   6.223  12.518  0.5375 -0.2895  0.3754
14743TIP3    H165720   6.529   6.192  12.429 -0.3789 -2.6521  0.9783
14743TIP3    H265721   6.600   6.240  12.554  0.9998 -0.9297 -0.4276
14744TIP3   OH265722   3.124   0.276   5.852  0.4352 -0.0365  0.0997
14744TIP3    H165723   3.106   0.355   5.801  3.4746  2.2038  2.3443
14744TIP3    H265724   3.207   0.243   5.818  0.0655 -1.2854  0.3667
14745TIP3   OH265725   1.884   2.463  16.185 -0.6175 -0.2125 -0.2727
14745TIP3    H165726   1.921   2.520  16.118 -0.4404  0.4896  0.4129
14745TIP3    H265727   1.835   2.522  16.243  1.2984 -0.4500  1.6455
14746TIP3   OH265728   5.535   5.382   0.097  0.0146 -0.2424  0.0596
14746TIP3    H165729   5.566   5.472   0.108 -0.0600 -0.2828  0.6123
14746TIP3    H265730   5.568   5.336   0.174 -2.4157 -0.0162  1.2723
14747TIP3   OH265731   4.153   0.101   0.512  0.0394 -0.7918  0.1015
14747TIP3    H165732   4.245   0.108   0.536  0.0735 -1.9330  0.3416
14747TIP3    H265733   4.105   0.116   0.594  0.0621 -1.6933  0.2836
14748TIP3   OH265734   0.811   1.469  15.493 -0.3389  0.3314  0.4591
14748TIP3    H165735   0.851   1.503  15.413 -0.7536  0.4327  0.2899
14748TIP3    H265736   0.813   1.374  15.483 -0.7348  0.3547  0.1576
14749TIP3   OH265737   1.488   3.469   4.049 -0.1015  0.3498 -0.6193
14749TIP3    H165738   1.524   3.382   4.032  0.4021  1.2072 -4.3440
14749TIP3    H265739   1.398   3.465   4.016  0.0370  1.3273 -1.1201
14750TIP3   OH265740   4.641   2.485   3.682 -0.0129  0.4127  0.7870
14750TIP3    H165741   4.553   2.508   3.653 -0.2480  0.9532  1.8799
14750TIP3    H265742   4.699   2.538   3.629 -0.5054  2.7247  2.4834
14751TIP3   OH265743   1.880   6.136  15.318 -0.0706 -0.1826  0.2810
14751TIP3    H165744   1.787   6.116  15.329  0.0446 -1.0302 -0.2493
14751TIP3    H265745   1.882   6.229  15.296 -0.9053 -0.5096 -1.2259
14752TIP3   OH265746   2.446   2.350   3.474  0.5106 -0.1352  0.4402
14752TIP3    H165747   2.486   2.368   3.559  2.5750  2.0315 -0.9437
14752TIP3    H265748   2.382   2.420   3.462 -1.4607 -1.7590  1.1995
14753TIP3   OH265749   2.247   4.146   4.832  0.2763 -0.1829 -0.2968
14753TIP3    H165750   2.159   4.181   4.824 -0.4533 -2.0272 -0.6225
14753TIP3    H265751   2.235   4.052   4.844  2.1586 -0.3338  0.7330
14754TIP3   OH265752   0.764   1.304  15.019 -0.2521 -0.2887  0.1147
14754TIP3    H165753   0.711   1.250  14.960  0.4122 -0.2675 -0.5197
14754TIP3    H265754   0.767   1.256  15.101 -1.9652  0.1180  0.4352
14755TIP3   OH265755   1.799   1.543  14.181 -0.5920  0.4345 -0.2029
14755TIP3    H165756   1.744   1.466  14.196 -0.4477  0.1255 -1.2404
14755TIP3    H265757   1.744   1.616  14.210 -0.2631 -0.1288  1.9679
14756TIP3   OH265758   5.643   1.812  11.860 -0.4684 -0.0776  0.6294
14756TIP3    H165759   5.730   1.791  11.825 -0.3716 -1.3870  1.5845
14756TIP3    H265760   5.594   1.845  11.785  1.0691  1.3877  0.2317
14757TIP3   OH265761   1.367   5.885   1.249  0.5002  0.2402  0.5323
14757TIP3    H165762   1.393   5.976   1.262 -2.4963  1.3472 -0.6887
14757TIP3    H265763   1.367   5.873   1.154 -1.8887 -0.0957  0.5257
14758TIP3   OH265764   4.063   3.820  13.795  0.0013 -0.5967  0.0993
14758TIP3    H165765   4.127   3.762  13.837 -2.5538 -0.9387  3.8202
14758TIP3    H265766   3.978   3.789  13.827 -1.6331  3.4103 -0.0247
14759TIP3   OH265767   4.024   3.644   3.680  0.0524  0.3309 -0.1964
14759TIP3    H165768   4.062   3.714   3.625 -0.9977 -0.3682 -1.8609
14759TIP3    H265769   4.096   3.583   3.694 -0.0016 -0.1924 -2.0231
14760TIP3   OH265770   3.889   6.285  12.141  0.2686 -0.1072 -0.4540
14760TIP3    H165771   3.977   6.252  12.123  0.6162  0.6855 -0.2046
14760TIP3    H265772   3.848   6.290  12.055  1.1258  1.3781 -0.8017
14761TIP3   OH265773   4.623   1.698   1.839  0.8286 -0.1503 -0.1141
14761TIP3    H165774   4.599   1.789   1.822  1.5683  0.3835  1.5268
14761TIP3    H265775   4.716   1.693   1.818  0.7460 -0.5801 -0.3870
14762TIP3   OH265776   4.096   0.858   6.773 -0.1129 -0.0763 -0.6140
14762TIP3    H165777   4.071   0.817   6.690 -0.3369  0.9001 -1.0464
14762TIP3    H265778   4.037   0.933   6.781 -1.3040 -1.1810  1.3350
14763TIP3   OH265779   2.146   5.075   2.074 -0.1881 -0.2609 -0.2901
14763TIP3    H165780   2.192   5.018   2.136  2.1633  1.5717 -0.2968
14763TIP3    H265781   2.075   5.113   2.125  1.9594  1.5332  1.4551
14764TIP3   OH265782   2.158   4.360   4.519  0.3168  0.0975 -0.0482
14764TIP3    H165783   2.166   4.266   4.509 -2.0218  0.0293 -1.8715
14764TIP3    H265784   2.247   4.393   4.516  1.0363 -1.8915 -1.4757
14765TIP3   OH265785   6.161   4.218   4.689 -0.4186 -0.6155 -0.6887
14765TIP3    H165786   6.114   4.301   4.680 -0.3355 -0.5438 -0.4610
14765TIP3    H265787   6.111   4.156   4.636  0.0564 -0.2004 -1.6244
14766TIP3   OH265788   2.976   3.127  13.928  0.0340  0.2709 -0.5563
14766TIP3    H165789   2.918   3.090  13.863 -0.6253 -1.7121  1.1058
14766TIP3    H265790   3.063   3.126  13.887 -0.4237 -0.6128 -1.5058
14767TIP3   OH265791   4.725   1.136  15.409 -0.0517 -0.0032  0.7705
14767TIP3    H165792   4.790   1.099  15.470  0.6135  0.8363  0.5831
14767TIP3    H265793   4.732   1.081  15.331 -1.8300 -1.8896  1.9167
14768TIP3   OH265794   2.626   5.830  14.881 -0.0695  0.1223 -0.4435
14768TIP3    H165795   2.678   5.807  14.957 -2.4496 -1.7051  0.6866
14768TIP3    H265796   2.571   5.903  14.910  0.0885  0.4185 -0.8775
14769TIP3   OH265797   0.108   2.141   2.997 -0.1388 -0.1523 -0.1244
14769TIP3    H165798   0.177   2.189   2.951  1.1045 -1.6603  0.1520
14769TIP3    H265799   0.047   2.209   3.025  1.5815  1.2753  0.2398
14770TIP3   OH265800   1.706   2.768  15.604  0.4577 -0.3973  0.0752
14770TIP3    H165801   1.784   2.779  15.659  1.6748 -4.1895 -0.7048
14770TIP3    H265802   1.741   2.740  15.519 -1.6920 -0.8354 -0.6873
14771TIP3   OH265803   2.179   6.614   3.251 -0.4757 -0.1880  0.3178
14771TIP3    H165804   2.142   6.672   3.185 -1.1310 -0.4889  0.4145
14771TIP3    H265805   2.197   6.533   3.205 -0.6843 -0.3074  0.4410
14772TIP3   OH265806   6.031   4.612   4.489 -0.1742  0.4295 -0.4989
14772TIP3    H165807   6.092   4.620   4.416 -0.4147 -1.0245 -0.8766
14772TIP3    H265808   6.031   4.698   4.530  2.5498  0.3007 -0.1506
14773TIP3   OH265809   4.755   5.914  16.912 -0.2184  0.2048  0.5971
14773TIP3    H165810   4.724   5.907  16.822 -0.5580  0.6680  0.6772
14773TIP3    H265811   4.786   5.826  16.933  2.5272  0.7473 -0.9273
14774TIP3   OH265812   2.561   4.455  16.488  0.0106  0.1687  0.6881
14774TIP3    H165813   2.649   4.492  16.488 -0.1689  0.6052  1.8479
14774TIP3    H265814   2.514   4.503  16.556 -0.8164 -0.7965  0.8136
14775TIP3   OH265815   2.272   6.778   0.280  1.1003 -0.0055  0.5240
14775TIP3    H165816   2.332   6.723   0.331  1.4633 -0.9118 -0.8354
14775TIP3    H265817   2.327   6.850   0.247  0.8093  0.7176  1.6228
14776TIP3   OH265818   5.829   3.970   2.550 -0.4037 -0.1960  0.2502
14776TIP3    H165819   5.861   4.011   2.630  0.6679 -0.9938  0.2432
14776TIP3    H265820   5.795   3.885   2.578  2.8668 -1.8431 -0.5335
14777TIP3   OH265821   1.125   3.782   4.731 -0.2339 -0.3032 -1.0438
14777TIP3    H165822   1.101   3.699   4.774  0.9633 -0.0878  0.0403
14777TIP3    H265823   1.054   3.797   4.668 -0.6265 -1.9925 -1.0290
14778TIP3   OH265824   1.579   5.329  15.793  0.3250  0.2447  0.8251
14778TIP3    H165825   1.543   5.241  15.808  2.9176 -1.0232 -0.0413
14778TIP3    H265826   1.588   5.336  15.698 -0.1760  1.5823  0.8695
14779TIP3   OH265827   0.161   4.141   4.640 -0.2556 -0.0166  0.0917
14779TIP3    H165828   0.137   4.227   4.675 -2.0950  0.0409 -1.2840
14779TIP3    H265829   0.236   4.114   4.694  0.6962  2.6678  0.2067
14780TIP3   OH265830   1.880   5.087   1.231  0.4430  0.4271  0.4592
14780TIP3    H165831   1.788   5.104   1.209  1.0438  0.8173 -1.8020
14780TIP3    H265832   1.917   5.173   1.250  0.4341  0.2999  1.0780
14781TIP3   OH265833   0.355   3.989  16.622  0.1962 -0.7765  0.1048
14781TIP3    H165834   0.425   3.965  16.562 -0.2731  0.1707 -0.8607
14781TIP3    H265835   0.368   3.934  16.699  2.0408 -0.5460 -0.0185
14782TIP3   OH265836   6.645   5.506  15.322  0.6372 -0.1603  0.5583
14782TIP3    H165837   6.596   5.537  15.247 -0.0127 -1.3092  0.4963
14782TIP3    H265838   6.734   5.537  15.307  0.6396 -0.8701 -0.9767
14783TIP3   OH265839   2.421   5.268   1.217 -0.0359 -0.5374  0.5091
14783TIP3    H165840   2.366   5.190   1.212  0.2346 -0.6445 -1.4300
14783TIP3    H265841   2.503   5.238   1.257  0.1895 -1.3273 -0.5189
14784TIP3   OH265842   1.944   5.027  14.555  0.3948  0.1005 -0.1969
14784TIP3    H165843   1.915   4.983  14.476 -0.7800 -1.1875  0.9274
14784TIP3    H265844   1.911   4.973  14.627  2.0168  0.8675  1.1749
14785TIP3   OH265845   0.452   4.047   5.877 -0.3842  0.3299  0.6350
14785TIP3    H165846   0.356   4.039   5.869 -0.5224  0.1378  2.3550
14785TIP3    H265847   0.471   4.013   5.964  1.2102  0.8466  0.4873
14786TIP3   OH265848   3.100   6.514   4.070  0.2241  0.0302  0.1184
14786TIP3    H165849   3.137   6.599   4.095  2.4415  0.1024 -3.2067
14786TIP3    H265850   3.036   6.535   4.002  0.1779 -0.9131 -0.1310
14787TIP3   OH265851   0.483   5.059  11.457  0.0826  0.0246  0.8414
14787TIP3    H165852   0.507   5.116  11.384  0.5632 -1.1297  0.0967
14787TIP3    H265853   0.429   5.115  11.513 -1.0119  0.6764 -0.8078
14788TIP3   OH265854   2.453   0.546  16.290 -0.5196 -0.0178  0.0185
14788TIP3    H165855   2.468   0.604  16.215 -1.0517 -1.3826 -1.1645
14788TIP3    H265856   2.366   0.569  16.322 -0.3944  0.3978  0.0616
14789TIP3   OH265857   5.424   4.330   2.181 -0.1056  0.1858  0.5922
14789TIP3    H165858   5.441   4.394   2.250 -0.7591  0.5658  0.4075
14789TIP3    H265859   5.337   4.296   2.201  0.3393 -0.8174  0.8181
14790TIP3   OH265860   6.153   6.146   0.289 -0.2807  0.0648 -1.2079
14790TIP3    H165861   6.238   6.190   0.291 -0.3260  0.1214  0.1919
14790TIP3    H265862   6.091   6.215   0.267 -0.4651  0.9595  1.8203
14791TIP3   OH265863   2.275   1.007  14.231 -0.1179  0.0320  0.0138
14791TIP3    H165864   2.325   0.946  14.285 -0.3358  0.0597  0.2503
14791TIP3    H265865   2.339   1.070  14.199 -0.2065  0.8140  1.3487
14792TIP3   OH265866   5.721   3.055  12.035 -0.0050  0.7965  0.0495
14792TIP3    H165867   5.701   3.103  11.955  2.0549  0.4780 -0.6703
14792TIP3    H265868   5.732   3.123  12.101  2.2634  1.3108 -0.8285
14793TIP3   OH265869   6.119   6.314  14.990  0.6028  0.3225  0.8206
14793TIP3    H165870   6.087   6.231  14.955  1.6169  0.5666 -0.7146
14793TIP3    H265871   6.072   6.381  14.940  2.1030  0.6716 -0.1569
14794TIP3   OH265872   0.704   2.674  14.539  0.5838  0.0419  0.1188
14794TIP3    H165873   0.672   2.602  14.592  1.1286  0.1500  0.5967
14794TIP3    H265874   0.784   2.640  14.499  0.8584  0.3961  0.3727
14795TIP3   OH265875   3.482   6.358   5.389 -0.7061 -0.5444 -0.1795
14795TIP3    H165876   3.544   6.426   5.416 -1.3254 -0.3789  0.8928
14795TIP3    H265877   3.414   6.361   5.456 -2.5190  0.1292 -2.0017
14796TIP3   OH265878   2.242   1.121  12.788  0.5125  0.5793 -0.3151
14796TIP3    H165879   2.166   1.178  12.779 -0.3755 -0.6131 -0.3927
14796TIP3    H265880   2.251   1.107  12.882  0.7500  0.8544 -0.2952
14797TIP3   OH265881   4.409   3.025   0.565  0.1632  0.1254  0.0818
14797TIP3    H165882   4.342   3.078   0.609  1.6404  1.8944  0.2525
14797TIP3    H265883   4.486   3.082   0.561  1.1016 -1.2371 -1.7630
14798TIP3   OH265884   1.150   1.038   2.007  0.1461 -0.3351  0.5389
14798TIP3    H165885   1.114   1.126   1.997  0.3004 -0.4208 -0.9501
14798TIP3    H265886   1.218   1.047   2.074 -0.6416  0.4242  1.2519
14799TIP3   OH265887   4.995   0.831  11.392 -0.1289  0.9808 -0.3815
14799TIP3    H165888   5.011   0.736  11.389  1.3117  1.1190  1.4731
14799TIP3    H265889   4.901   0.839  11.406 -0.4140 -0.1571 -1.5753
14800TIP3   OH265890   6.468   4.232  14.823  0.6464  0.7672 -0.0388
14800TIP3    H165891   6.481   4.228  14.728  0.9262 -0.8853  0.0600
14800TIP3    H265892   6.523   4.162  14.858 -1.8402 -0.6978  1.0863
14801TIP3   OH265893   5.106   2.007  10.473  0.2295  0.2357  0.4340
14801TIP3    H165894   5.174   2.030  10.410 -0.1471  2.4513  0.7662
14801TIP3    H265895   5.152   1.965  10.545  1.2627  1.7054  0.6505
14802TIP3   OH265896   4.416   3.131   1.227 -0.6425  0.2732 -0.0489
14802TIP3    H165897   4.415   3.045   1.270  0.2511  0.0454 -0.4817
14802TIP3    H265898   4.436   3.193   1.297 -0.7862  0.0730  0.1698
14803TIP3   OH265899   3.447   4.948  14.633  0.1113 -0.4892 -0.2975
14803TIP3    H165900   3.536   4.943  14.597 -0.0267  0.1307 -0.7473
14803TIP3    H265901   3.426   4.858  14.657  0.6541 -0.7348 -0.7076
14804TIP3   OH265902   5.828   1.221  14.006  0.5067 -0.1655  0.0018
14804TIP3    H165903   5.900   1.199  13.948  2.2223  1.6130  1.3830
14804TIP3    H265904   5.870   1.263  14.081 -1.9999  1.5104  0.5299
14805TIP3   OH265905   0.818   4.627  13.810  0.1940 -0.3081 -0.1100
14805TIP3    H165906   0.725   4.622  13.788 -0.3001  1.8945  1.2866
14805TIP3    H265907   0.832   4.557  13.874 -0.2766 -1.2482 -1.0228
14806TIP3   OH265908   0.892   4.990   0.570  0.5488 -0.5284 -0.1096
14806TIP3    H165909   0.832   5.009   0.642 -1.0185  0.0958 -1.5504
14806TIP3    H265910   0.878   4.896   0.552  1.2713 -0.7898  0.6959
14807TIP3   OH265911   4.980   1.550   3.459 -0.5518 -0.2966  0.0513
14807TIP3    H165912   4.941   1.637   3.473  0.2780 -0.1286  1.3421
14807TIP3    H265913   4.993   1.515   3.547  1.0268 -0.8801 -0.3998
14808TIP3   OH265914   0.108   6.641   4.480 -0.0846  0.3866  0.3579
14808TIP3    H165915   0.014   6.645   4.500 -0.3791 -0.4721 -0.8168
14808TIP3    H265916   0.149   6.692   4.550 -1.5223  1.8318  0.1907
14809TIP3   OH265917   6.561   2.020   2.705 -0.4754 -0.7431 -0.7009
14809TIP3    H165918   6.532   2.002   2.794 -0.9244 -2.1206 -1.1068
14809TIP3    H265919   6.650   2.052   2.714 -1.3523  1.4729  0.4097
14810TIP3   OH265920   1.938   1.824  16.357 -0.0581 -0.4019 -0.2778
14810TIP3    H165921   1.851   1.787  16.343 -0.2987 -0.7004  1.8724
14810TIP3    H265922   1.952   1.817  16.452  0.6036  3.4080 -0.0274
14811TIP3   OH265923   6.124   6.343   6.473 -0.5608 -0.1566 -0.0283
14811TIP3    H165924   6.218   6.335   6.460 -0.4398 -0.3326  0.9526
14811TIP3    H265925   6.113   6.355   6.567 -1.6174 -1.8378  0.0889
14812TIP3   OH265926   0.596   1.260  15.644  0.0887  0.1750  0.0169
14812TIP3    H165927   0.626   1.188  15.588  0.9182  0.4001  0.1662
14812TIP3    H265928   0.501   1.262  15.632 -0.1034 -1.8054  1.0495
14813TIP3   OH265929   6.339   5.638  11.034 -0.7417  0.9019 -0.1262
14813TIP3    H165930   6.430   5.660  11.054 -0.3101 -0.5117 -0.4014
14813TIP3    H265931   6.292   5.721  11.035  0.5785  1.6529 -0.0691
14814TIP3   OH265932   1.182   4.788  15.880  0.4709  0.4797 -0.4930
14814TIP3    H165933   1.260   4.837  15.905 -1.5571  3.0262  1.1400
14814TIP3    H265934   1.180   4.713  15.939 -1.1251  3.3063  3.2614
14815TIP3   OH265935   0.899   3.981  14.576 -0.2160  0.5282 -0.1695
14815TIP3    H165936   0.906   3.894  14.614 -1.7761  0.7424  0.6330
14815TIP3    H265937   0.847   4.031  14.639  0.7169  2.0724 -0.5704
14816TIP3   OH265938   6.626   3.672   3.073 -0.4363  0.5153 -0.2093
14816TIP3    H165939   6.637   3.766   3.055 -1.1131  0.5066 -0.6713
14816TIP3    H265940   6.585   3.637   2.994 -0.1698 -0.1797 -0.0456
14817TIP3   OH265941   1.132   4.821  16.284  0.6426 -0.3172  1.1187
14817TIP3    H165942   1.174   4.830  16.199 -0.0678 -0.8241  0.7030
14817TIP3    H265943   1.184   4.755  16.331  0.6471 -0.5286  0.8172
14818TIP3   OH265944   1.015   5.470  12.983  0.0054  0.0334 -0.4655
14818TIP3    H165945   0.968   5.399  12.940  0.9140  0.1708 -1.6889
14818TIP3    H265946   0.946   5.522  13.024 -0.6911 -1.4017  0.2442
14819TIP3   OH265947   6.082   0.355  16.813  0.1235 -0.0328  0.1319
14819TIP3    H165948   6.052   0.446  16.816  1.2467  0.3139  1.4327
14819TIP3    H265949   6.006   0.305  16.783 -1.1069  1.0817  1.3701
14820TIP3   OH265950   4.780   0.772   2.491 -0.4021 -0.1613  0.8952
14820TIP3    H165951   4.868   0.745   2.517 -0.9787 -2.1168  0.9097
14820TIP3    H265952   4.790   0.863   2.462  1.9919 -0.9322 -0.9032
14821TIP3   OH265953   6.015   4.221  16.032 -0.4427  0.4947  0.2894
14821TIP3    H165954   6.073   4.262  16.096  0.3365 -0.8014  0.4285
14821TIP3    H265955   5.947   4.286  16.016 -0.2024  1.1488  1.8331
14822TIP3   OH265956   2.488   2.703   6.117 -0.3798 -0.2720  0.2721
14822TIP3    H165957   2.410   2.756   6.136 -0.8167 -1.4693  1.9401
14822TIP3    H265958   2.459   2.613   6.131  1.3179 -0.7251  0.9549
14823TIP3   OH265959   3.253   0.627  16.150  0.5343 -0.7180 -0.2298
14823TIP3    H165960   3.309   0.697  16.184  0.9188 -0.9725 -0.3390
14823TIP3    H265961   3.227   0.577  16.228  0.0116 -0.2753 -0.1159
14824TIP3   OH265962   3.085   3.647   1.504 -0.0172  0.3652 -0.3890
14824TIP3    H165963   3.059   3.555   1.505 -1.6034  0.8149 -0.0016
14824TIP3    H265964   3.179   3.644   1.487 -0.2196 -1.2945 -1.3990
14825TIP3   OH265965   0.364   4.215  13.730 -0.0426 -0.7767 -0.1524
14825TIP3    H165966   0.291   4.161  13.758 -0.5728 -0.5466 -1.0811
14825TIP3    H265967   0.338   4.249  13.644  1.4896 -1.3241 -0.8438
14826TIP3   OH265968   4.330   2.939   5.356 -0.2704  0.4653  0.3197
14826TIP3    H165969   4.271   2.981   5.418  0.4832  3.9384 -1.1950
14826TIP3    H265970   4.278   2.870   5.315 -1.5337 -0.1694  2.9291
14827TIP3   OH265971   2.824   4.905   0.747  0.0259  0.0298  0.1367
14827TIP3    H165972   2.823   4.871   0.837 -0.4266 -0.9677 -0.2401
14827TIP3    H265973   2.751   4.966   0.743 -0.2081 -0.2366  0.3294
14828TIP3   OH265974   4.237   2.262   1.006 -0.0975 -0.3572  0.4151
14828TIP3    H165975   4.242   2.210   0.926 -0.5405 -0.1374  0.2401
14828TIP3    H265976   4.322   2.250   1.048  0.4752  0.2364 -0.5322
14829TIP3   OH265977   0.981   0.996  12.136  0.2771 -0.1267  0.3434
14829TIP3    H165978   0.905   1.052  12.152  0.9461  0.1402  2.8260
14829TIP3    H265979   0.968   0.920  12.192  1.0994 -0.7926 -0.3509
14830TIP3   OH265980   3.911   4.296   5.502  0.5642  0.6437 -0.6080
14830TIP3    H165981   3.845   4.343   5.553 -0.1332  0.2609 -1.1497
14830TIP3    H265982   3.874   4.209   5.489  1.2935  0.3396 -0.6946
14831TIP3   OH265983   2.961   2.070   4.741 -0.0414  0.1975 -0.3240
14831TIP3    H165984   2.993   1.999   4.685  1.7271  0.8850 -0.2204
14831TIP3    H265985   3.021   2.143   4.723 -0.8939  1.1697  0.7270
14832TIP3   OH265986   3.553   5.346   1.719 -0.0368 -0.1284 -0.5971
14832TIP3    H165987   3.472   5.368   1.674 -1.4358 -0.9240  1.4531
14832TIP3    H265988   3.549   5.251   1.732 -0.0036  0.1532  1.7505
14833TIP3   OH265989   6.614   2.974  14.156  0.5541  0.5671 -0.0802
14833TIP3    H165990   6.707   2.997  14.158  0.7684 -0.3080  0.2973
14833TIP3    H265991   6.583   3.009  14.072  1.8002 -1.2087 -1.3430
14834TIP3   OH265992   4.904   2.434   3.503 -0.1240  0.0556 -0.1954
14834TIP3    H165993   4.942   2.457   3.588 -0.1579  1.2010 -0.4872
14834TIP3    H265994   4.835   2.371   3.524 -0.0018  0.1822  0.6020
14835TIP3   OH265995   3.159   4.127   1.979  0.5914  0.5810  0.0810
14835TIP3    H165996   3.178   4.049   1.927 -1.6363 -0.2520  0.4256
14835TIP3    H265997   3.135   4.193   1.915  0.7968  0.4559 -0.1240
14836TIP3   OH265998   3.034   3.158  12.225  0.7728 -0.0815 -0.1612
14836TIP3    H165999   2.993   3.170  12.311  0.1742  0.0810 -0.4716
14836TIP3    H266000   2.974   3.101  12.177  0.6909  0.5166 -0.7746
14837TIP3   OH266001   0.574   0.426  16.850 -0.5602  0.5142  0.1242
14837TIP3    H166002   0.654   0.376  16.864 -1.3022 -0.8931 -0.4588
14837TIP3    H266003   0.603   0.515  16.833  1.0844 -0.5011 -2.9063
14838TIP3   OH266004   4.342   1.949  11.976  0.1253  0.0681  0.4017
14838TIP3    H166005   4.276   1.879  11.981 -1.0302  1.0566 -0.5050
14838TIP3    H266006   4.352   1.979  12.066 -0.3011 -0.4287  0.6198
14839TIP3   OH266007   6.804   0.154   3.698 -0.1379  0.0353 -0.1427
14839TIP3    H166008   6.853   0.131   3.777  1.0888  0.2395 -0.8301
14839TIP3    H266009   6.725   0.100   3.702  0.1928 -0.3856  0.9252
14840TIP3   OH266010   5.942   3.089   5.618 -0.2727  0.3876 -0.7360
14840TIP3    H166011   5.956   3.014   5.560  1.6549  0.5286 -0.4854
14840TIP3    H266012   5.978   3.163   5.570  0.3512  0.6845  0.1827
14841TIP3   OH266013   0.761   0.662  12.862 -0.4629 -0.1279  0.5776
14841TIP3    H166014   0.683   0.666  12.918 -1.5019  0.6978 -0.9013
14841TIP3    H266015   0.792   0.753  12.859  0.2668 -0.3673  0.7229
14842TIP3   OH266016   1.115   1.024  12.767  0.2964 -0.3091  0.4366
14842TIP3    H166017   1.082   1.007  12.856 -0.3364  0.0503  0.2658
14842TIP3    H266018   1.136   1.117  12.767  1.6235 -0.5973  0.6466
14843TIP3   OH266019   4.715   1.639  12.819 -0.2463 -0.2228  0.0131
14843TIP3    H166020   4.621   1.652  12.830 -0.4609  0.5358 -2.3651
14843TIP3    H266021   4.735   1.562  12.873 -2.2196 -0.3769  0.5750
14844TIP3   OH266022   0.292   6.622   2.314  0.0434 -0.1612 -0.4132
14844TIP3    H166023   0.219   6.681   2.292 -0.6636 -0.6113  0.6924
14844TIP3    H266024   0.345   6.672   2.375  0.0616 -0.2535 -0.3541
14845TIP3   OH266025   6.489   2.837   0.454  0.5629 -0.2002 -0.4926
14845TIP3    H166026   6.577   2.848   0.417  0.5032  1.7864 -0.1079
14845TIP3    H266027   6.441   2.787   0.388  1.2411  0.9847 -1.9153
14846TIP3   OH266028   5.759   3.262  13.469 -0.0670  0.0125 -0.0992
14846TIP3    H166029   5.718   3.226  13.390 -0.0430  1.7404 -0.9280
14846TIP3    H266030   5.851   3.236  13.462 -0.5306 -1.8709  0.5786
14847TIP3   OH266031   2.496   3.190  16.554  0.1808  0.0898  0.4516
14847TIP3    H166032   2.455   3.116  16.597  1.2566 -0.8932 -0.1687
14847TIP3    H266033   2.486   3.172  16.460  0.8913  0.4525  0.2975
14848TIP3   OH266034   0.342   4.000   3.542 -0.1407 -0.2588 -0.9052
14848TIP3    H166035   0.274   3.949   3.587  0.5494  0.5892  1.1764
14848TIP3    H266036   0.386   4.048   3.612 -0.4331  2.8415 -2.7571
14849TIP3   OH266037   3.267   1.500  15.610  0.0203  0.0559 -0.3236
14849TIP3    H166038   3.360   1.506  15.588 -0.4564  1.8620 -2.0073
14849TIP3    H266039   3.255   1.566  15.678 -0.1199  0.1765 -0.4643
14850TIP3   OH266040   3.322   2.640   0.699 -0.1955  0.1260  0.1691
14850TIP3    H166041   3.333   2.732   0.675 -0.2094  0.2132  0.4878
14850TIP3    H266042   3.369   2.592   0.631  2.0597  0.4928  1.3972
14851TIP3   OH266043   4.565   3.565  12.000  0.0264 -0.1970 -0.0426
14851TIP3    H166044   4.478   3.525  11.991 -0.6195  1.2635 -0.4223
14851TIP3    H266045   4.623   3.491  12.015 -1.1937 -1.2611 -0.3949
14852TIP3   OH266046   5.581   2.501   3.923 -0.1740 -0.1200 -0.2997
14852TIP3    H166047   5.562   2.589   3.892 -1.4210 -0.6025 -0.9385
14852TIP3    H266048   5.524   2.444   3.871  0.8595 -1.3386 -0.1404
14853TIP3   OH266049   3.499   6.749  17.279 -0.2985  0.3963 -0.1144
14853TIP3    H166050   3.489   6.658  17.251  0.1735 -0.1096  1.3019
14853TIP3    H266051   3.593   6.764  17.279 -0.2609  0.2169  1.6802
14854TIP3   OH266052   5.293   6.153  14.515 -0.2770 -0.0097 -0.6205
14854TIP3    H166053   5.211   6.140  14.562  0.2765  2.2027  1.1089
14854TIP3    H266054   5.273   6.219  14.449  0.4116  1.6465  0.7877
14855TIP3   OH266055   6.390   1.530   4.379  0.2259 -0.4972 -0.4686
14855TIP3    H166056   6.319   1.513   4.440  0.9009  0.9003  0.7777
14855TIP3    H266057   6.437   1.605   4.418  0.9629  0.1177 -2.4592
14856TIP3   OH266058   0.573   3.527   1.411 -0.0694 -0.6055  0.1178
14856TIP3    H166059   0.480   3.503   1.418 -0.2814 -0.0327 -0.6343
14856TIP3    H266060   0.575   3.593   1.342  0.8319 -0.2045  0.5273
14857TIP3   OH266061   1.015   2.277  15.923  0.0626 -0.0134  0.2191
14857TIP3    H166062   1.046   2.364  15.895  0.5909 -0.6419 -1.1872
14857TIP3    H266063   1.092   2.233  15.956 -0.2896  0.2019  1.3308
14858TIP3   OH266064   2.723   5.776  15.822  0.2117  0.4160  0.2043
14858TIP3    H166065   2.776   5.833  15.877 -1.0721  0.5629  1.3377
14858TIP3    H266066   2.700   5.830  15.746 -0.1051  1.0518  0.7498
14859TIP3   OH266067   2.123   2.684  14.778  0.0969  0.6953 -0.0856
14859TIP3    H166068   2.088   2.696  14.867 -0.4594  1.1141 -0.3591
14859TIP3    H266069   2.118   2.771  14.739 -1.7374  0.0504 -1.2965
14860TIP3   OH266070   1.356   4.995  16.019 -0.4078  1.0513 -0.0447
14860TIP3    H166071   1.277   5.045  15.997 -1.1474  0.3895  1.1063
14860TIP3    H266072   1.358   4.993  16.114  0.8405  0.7915 -0.0669
14861TIP3   OH266073   1.444   3.350   0.651  0.1817 -0.0046 -0.1786
14861TIP3    H166074   1.412   3.386   0.733 -0.2187 -3.4277  1.2812
14861TIP3    H266075   1.538   3.339   0.665  0.0601 -0.8995 -0.0227
14862TIP3   OH266076   3.723   2.402   2.175 -0.4441 -0.0653 -0.0487
14862TIP3    H166077   3.629   2.421   2.181 -0.1495  1.1395  0.8895
14862TIP3    H266078   3.746   2.366   2.260  0.1488  0.5518  0.0558
14863TIP3   OH266079   6.503   6.114   0.991  0.0082 -0.2145 -0.0264
14863TIP3    H166080   6.517   6.199   1.031  1.7783 -0.0278 -0.9767
14863TIP3    H266081   6.587   6.069   1.000 -0.4746 -1.3059 -0.8230
14864TIP3   OH266082   6.154   5.117   4.853  0.0103  0.3653 -0.4411
14864TIP3    H166083   6.205   5.049   4.898  0.6690  1.3105  0.2679
14864TIP3    H266084   6.147   5.187   4.917 -4.2138 -0.6447  0.3312
14865TIP3   OH266085   0.412   4.030   4.507  0.3377 -0.4540 -0.2210
14865TIP3    H166086   0.360   4.018   4.586  0.9873 -0.5973  0.1856
14865TIP3    H266087   0.379   3.963   4.447 -1.3050  0.7611 -0.6744
14866TIP3   OH266088   3.662   6.657   0.691  0.0026  0.3497  0.0104
14866TIP3    H166089   3.688   6.587   0.631 -0.3913  1.1926 -1.1546
14866TIP3    H266090   3.583   6.694   0.652  0.5825  1.8896  0.2392
14867TIP3   OH266091   6.445   6.053  11.810 -0.1501 -0.4915 -0.3487
14867TIP3    H166092   6.413   6.038  11.721 -2.2635 -0.1995  0.3231
14867TIP3    H266093   6.482   6.141  11.807 -1.4312  0.0512 -0.6284
14868TIP3   OH266094   4.399   2.178   4.014 -0.0396 -0.3493 -0.1051
14868TIP3    H166095   4.351   2.096   4.004 -0.2426 -0.1197 -1.0778
14868TIP3    H266096   4.338   2.236   4.060 -0.3736 -0.3283 -0.5756
14869TIP3   OH266097   4.665   5.770  13.808 -0.2625 -0.3060  0.5119
14869TIP3    H166098   4.591   5.770  13.869 -0.7955 -0.9941 -0.1319
14869TIP3    H266099   4.633   5.820  13.732  0.6058  1.0796  1.0280
14870TIP3   OH266100   5.644   0.056  11.419  0.3337  0.2482  0.1674
14870TIP3    H166101   5.655  -0.033  11.386 -0.4519 -0.0932  0.7973
14870TIP3    H266102   5.616   0.106  11.343  0.0587 -0.2047 -0.0328
14871TIP3   OH266103   5.456   1.797  17.171  0.1778  0.2175  0.2547
14871TIP3    H166104   5.390   1.866  17.167  0.0011  0.0927  1.0455
14871TIP3    H266105   5.509   1.819  17.247  1.8220  1.0091 -1.0787
14872TIP3   OH266106   4.941   5.367  13.038  0.0768  0.0626 -0.1937
14872TIP3    H166107   4.882   5.361  13.112  0.6539 -1.0885  0.1793
14872TIP3    H266108   5.015   5.311  13.061 -0.0930 -0.9322 -1.9683
14873TIP3   OH266109   0.541   1.354   0.728  0.4336 -0.3287  0.6064
14873TIP3    H166110   0.527   1.447   0.711  0.4691 -0.0504  2.0220
14873TIP3    H266111   0.632   1.338   0.701 -0.6407 -0.7741 -2.9218
14874TIP3   OH266112   1.920   0.440   6.771  0.0862 -0.0075  0.3833
14874TIP3    H166113   1.965   0.372   6.721 -1.2475  1.0233 -2.2897
14874TIP3    H266114   1.839   0.400   6.800  0.0600 -0.0537  0.2435
14875TIP3   OH266115   5.284   3.842   2.231  0.1933  0.4917 -0.1388
14875TIP3    H166116   5.190   3.851   2.248 -0.3060  0.1303 -2.6258
14875TIP3    H266117   5.304   3.912   2.169  1.5448  0.4621  0.2467
14876TIP3   OH266118   2.033   2.338  11.662 -0.0989  0.0832  0.0088
14876TIP3    H166119   2.094   2.277  11.621  0.4116  0.0404  0.8215
14876TIP3    H266120   1.968   2.355  11.595  0.2796 -0.6177 -0.5457
14877TIP3   OH266121   4.879   1.953   0.183  0.0507  0.0041  0.1507
14877TIP3    H166122   4.803   1.991   0.139 -0.2752 -0.6892  0.1162
14877TIP3    H266123   4.844   1.883   0.237  0.6705 -0.3626  0.0847
14878TIP3   OH266124   1.141   0.943   3.496 -0.1716 -0.0183 -0.6783
14878TIP3    H166125   1.180   1.010   3.439  0.5685 -1.2911 -1.7131
14878TIP3    H266126   1.152   0.978   3.584  1.3915  0.6392 -1.1011
14879TIP3   OH266127   2.796   3.509   1.284  0.1583 -0.0266  0.1678
14879TIP3    H166128   2.706   3.480   1.301  0.5691 -1.2706  0.2682
14879TIP3    H266129   2.787   3.600   1.255 -1.5954 -1.5608 -4.6316
14880TIP3   OH266130   4.332   1.055   5.005  0.2518 -0.3661  0.1636
14880TIP3    H166131   4.297   0.968   4.984  1.5512 -0.9585  0.3897
14880TIP3    H266132   4.276   1.115   4.956 -0.1418 -1.3813 -0.6732
14881TIP3   OH266133   2.486   2.899   2.653 -0.1027  0.2113  0.3174
14881TIP3    H166134   2.479   2.830   2.587  0.8630  1.3884 -1.0557
14881TIP3    H266135   2.505   2.852   2.734  1.7182 -1.0740 -0.8046
14882TIP3   OH266136   3.296   1.109   0.750 -0.1143  0.0063 -0.5779
14882TIP3    H166137   3.329   1.190   0.710 -1.6021  1.3935  0.9405
14882TIP3    H266138   3.301   1.124   0.844 -1.2141 -1.3364 -0.2781
14883TIP3   OH266139   1.783   1.895  12.174 -0.1255 -0.4308  0.2116
14883TIP3    H166140   1.829   1.847  12.242 -0.5541 -0.7368  0.2943
14883TIP3    H266141   1.705   1.842  12.156  1.1137 -1.5243 -2.1043
14884TIP3   OH266142   1.400   1.704   4.496  0.1703 -0.6589  0.0391
14884TIP3    H166143   1.393   1.799   4.486  1.8587 -0.5287 -0.0538
14884TIP3    H266144   1.340   1.682   4.567  0.8681  0.6861  1.0611
14885TIP3   OH266145   1.261   5.128  12.660  0.1853  0.6141 -0.1012
14885TIP3    H166146   1.271   5.172  12.744 -1.4055  2.3448 -0.7595
14885TIP3    H266147   1.348   5.130  12.621  0.9831 -0.4109  1.5791
14886TIP3   OH266148   1.540   3.275  11.971 -0.4888 -0.1858  0.2594
14886TIP3    H166149   1.559   3.279  12.065 -0.1761 -2.0583  0.2912
14886TIP3    H266150   1.624   3.292  11.929 -0.9175  2.1449  0.2761
14887TIP3   OH266151   1.735   3.772  16.822  0.1408 -0.0275 -0.2308
14887TIP3    H166152   1.693   3.686  16.817 -1.7066  0.9130 -1.4523
14887TIP3    H266153   1.698   3.811  16.901  0.1135  0.0708 -0.2918
14888TIP3   OH266154   1.424   2.732  11.323  0.0072  0.2817  0.4017
14888TIP3    H166155   1.400   2.717  11.232  0.0920  1.5371  0.1575
14888TIP3    H266156   1.345   2.712  11.373  0.1375 -0.9720  0.1048
14889TIP3   OH266157   1.034   3.614  15.244 -0.1529  0.2133  0.3413
14889TIP3    H166158   1.122   3.589  15.273 -0.8407 -0.7359  1.6543
14889TIP3    H266159   1.012   3.550  15.176  0.4356  0.8641 -0.4662
14890TIP3   OH266160   4.851   1.727   2.626 -0.1930  0.5628 -0.2099
14890TIP3    H166161   4.831   1.820   2.641  0.3174  0.6673 -0.1511
14890TIP3    H266162   4.939   1.728   2.589 -0.4752  0.1431 -0.8913
14891TIP3   OH266163   1.428   5.229  16.814  0.8726  0.4147  0.1230
14891TIP3    H166164   1.403   5.285  16.741  0.4855 -1.0803 -0.9104
14891TIP3    H266165   1.471   5.154  16.774  3.9730  1.3078  1.6712
14892TIP3   OH266166   3.436   3.894   1.961  0.1631  0.1930  0.3432
14892TIP3    H166167   3.443   3.966   1.897 -1.0354  1.1971  1.2935
14892TIP3    H266168   3.526   3.870   1.980  0.7868  3.8263  2.5946
14893TIP3   OH266169   1.002   6.441   2.650  0.1242 -0.7694  0.2115
14893TIP3    H166170   1.028   6.400   2.567 -1.7172  1.0905 -1.3350
14893TIP3    H266171   1.084   6.457   2.696  1.3652  0.2734 -2.2910
14894TIP3   OH266172   2.435   5.931   7.109 -0.2806 -0.2539 -0.1167
14894TIP3    H166173   2.397   5.847   7.083  0.8297 -0.5507 -0.7958
14894TIP3    H266174   2.378   5.996   7.068 -0.8127 -0.6742 -0.0520
14895TIP3   OH266175   2.614   4.140   5.588  0.1356  0.5378 -0.1849
14895TIP3    H166176   2.593   4.055   5.548 -2.1235  0.4614  1.0340
14895TIP3    H266177   2.587   4.204   5.523 -5.5010  0.4819  1.8222
14896TIP3   OH266178   3.768   0.628   0.258  0.1137  0.5614 -0.5978
14896TIP3    H166179   3.751   0.658   0.348 -2.6454  0.9759 -1.2183
14896TIP3    H266180   3.808   0.704   0.215  0.5471  0.6807  0.0038
14897TIP3   OH266181   6.452   4.722   3.399 -0.4175 -0.0833 -0.5885
14897TIP3    H166182   6.522   4.740   3.338 -0.7061 -3.2456 -1.9487
14897TIP3    H266183   6.495   4.680   3.474 -0.5964 -0.3393 -0.6251
14898TIP3   OH266184   4.602   3.213  12.153 -0.0840  0.3353  0.3267
14898TIP3    H166185   4.638   3.131  12.185 -0.8492  0.3702  1.3352
14898TIP3    H266186   4.517   3.220  12.197 -2.0936 -0.5405 -3.1729
14899TIP3   OH266187   4.621   2.026  16.447  0.2372 -0.3996 -0.0968
14899TIP3    H166188   4.591   2.117  16.443  1.2495 -0.0599 -0.2976
14899TIP3    H266189   4.712   2.030  16.417 -0.0289 -1.6340 -1.1053
14900TIP3   OH266190   3.257   3.400   0.825 -0.4231 -0.0188  0.0563
14900TIP3    H166191   3.180   3.422   0.877  0.4415  3.4230  0.0109
14900TIP3    H266192   3.330   3.402   0.888 -0.0332 -0.7961 -0.3623
14901TIP3   OH266193   2.018   0.563  14.626  0.1353  0.2602  0.0945
14901TIP3    H166194   1.954   0.497  14.598 -0.2169 -0.2124  1.9877
14901TIP3    H266195   2.067   0.583  14.546 -2.4682  0.7591 -1.4601
14902TIP3   OH266196   0.438   2.993   5.967 -0.7000 -0.1059  0.2760
14902TIP3    H166197   0.382   3.037   5.903 -1.8016  0.1423  1.3975
14902TIP3    H266198   0.388   2.916   5.993 -0.2763 -0.1721  0.8840
14903TIP3   OH266199   1.986   2.402   5.346  0.3390 -0.0252 -0.6739
14903TIP3    H166200   2.046   2.464   5.306 -0.5162  1.2060 -0.0970
14903TIP3    H266201   2.031   2.372   5.425  0.2470  0.7988 -0.3080
14904TIP3   OH266202   6.087   2.563  16.481  1.4268  0.0114 -0.0645
14904TIP3    H166203   6.006   2.561  16.532  2.8078  3.2014  2.3859
14904TIP3    H266204   6.068   2.621  16.407  1.4119  0.6079  0.4038
14905TIP3   OH266205   1.885   2.181  10.468  0.2561 -0.2612 -0.4848
14905TIP3    H166206   1.799   2.159  10.433 -0.2468  3.0261 -1.4018
14905TIP3    H266207   1.918   2.250  10.411  0.9497  2.7647  3.3731
14906TIP3   OH266208   6.494   3.891  14.332  0.2465 -0.1528  0.7018
14906TIP3    H166209   6.461   3.888  14.242 -0.6123 -1.3740  1.0532
14906TIP3    H266210   6.437   3.953  14.377  0.6363  0.4097  0.4276
14907TIP3   OH266211   6.794   4.863  15.485 -0.1430 -0.4080 -0.0473
14907TIP3    H166212   6.785   4.901  15.573 -0.4902 -1.0755  0.2093
14907TIP3    H266213   6.830   4.934  15.432 -1.4213  0.4987  0.2703
14908TIP3   OH266214   0.396   6.228  11.684  0.1723 -0.3554 -0.0545
14908TIP3    H166215   0.363   6.250  11.771  0.7061 -1.5799  0.4698
14908TIP3    H266216   0.460   6.296  11.664 -1.3414  1.0260 -0.3220
14909TIP3   OH266217   3.539   2.113  15.050 -0.4109  0.0585  0.0816
14909TIP3    H166218   3.470   2.054  15.080 -0.4589 -1.0024 -1.9944
14909TIP3    H266219   3.613   2.093  15.106 -1.6454  0.8962  2.0415
14910TIP3   OH266220   5.213   2.562  14.059 -0.2454  0.2565  0.3574
14910TIP3    H166221   5.143   2.596  14.004 -0.0409  1.1538  0.6560
14910TIP3    H266222   5.169   2.529  14.137 -0.2280  1.8908  1.0696
14911TIP3   OH266223   2.983   0.397  15.840  0.3297  0.4079 -0.4145
14911TIP3    H166224   3.057   0.427  15.893  0.1865  1.5726 -0.8702
14911TIP3    H266225   2.914   0.378  15.904 -0.1016  2.5378 -0.2234
14912TIP3   OH266226   5.371   1.678   4.008 -0.2948  0.2890  0.9717
14912TIP3    H166227   5.286   1.664   4.050 -0.7318  0.7101  0.2415
14912TIP3    H266228   5.352   1.680   3.914  0.7348 -1.0935  0.7107
14913TIP3   OH266229   5.805   3.978  14.268  0.4994 -0.9466 -0.4855
14913TIP3    H166230   5.769   4.067  14.275  0.4067 -0.9807 -0.5296
14913TIP3    H266231   5.862   3.970  14.344 -0.2535 -1.2005  0.0557
14914TIP3   OH266232   4.116   4.652  11.508  0.3048 -0.2272  0.4689
14914TIP3    H166233   4.150   4.591  11.443  1.2155  0.3764  0.3587
14914TIP3    H266234   4.114   4.602  11.590 -0.6183 -0.9161  0.0280
14915TIP3   OH266235   3.539   1.170  11.216  0.1931 -0.2688  0.1491
14915TIP3    H166236   3.592   1.241  11.179  0.0798  0.6330  1.6616
14915TIP3    H266237   3.486   1.138  11.143  1.7195 -0.1636 -1.0296
14916TIP3   OH266238   2.174   2.385  13.592 -0.1087 -0.5386  0.0649
14916TIP3    H166239   2.109   2.411  13.658  1.7832  0.8212  1.4390
14916TIP3    H266240   2.181   2.461  13.534  1.0186 -0.2756  0.5409
14917TIP3   OH266241   0.585   0.516   4.095 -0.2969  0.0843 -0.3699
14917TIP3    H166242   0.510   0.484   4.145  0.9754  0.9617  2.1924
14917TIP3    H266243   0.548   0.545   4.012 -2.6411 -0.5170  0.4302
14918TIP3   OH266244   6.230   4.514   5.901 -0.6269  0.4459  0.0074
14918TIP3    H166245   6.243   4.446   5.967  1.3593  0.8346  0.0448
14918TIP3    H266246   6.172   4.474   5.836  1.0985 -1.5434 -0.3489
14919TIP3   OH266247   1.470   1.232   5.098 -0.2475  0.0103 -0.4347
14919TIP3    H166248   1.540   1.297   5.093  2.6122 -2.9513 -0.4733
14919TIP3    H266249   1.394   1.276   5.062  0.8632  4.2197  2.0149
14920TIP3   OH266250   0.343   4.857  13.512  0.0688  0.6374  0.2810
14920TIP3    H166251   0.384   4.851  13.598 -0.2467 -0.3466  0.3703
14920TIP3    H266252   0.326   4.950  13.500  0.8489  0.8663  0.9383
14921TIP3   OH266253   2.113   0.479  12.893  0.2943 -0.6062  0.4586
14921TIP3    H166254   2.093   0.568  12.921 -0.1610 -0.4006 -0.4990
14921TIP3    H266255   2.034   0.450  12.845 -0.4266 -2.3047  2.6014
14922TIP3   OH266256   0.776   3.860   5.799 -0.2652 -0.3134 -0.4281
14922TIP3    H166257   0.776   3.951   5.830  0.2924 -0.0119 -1.2752
14922TIP3    H266258   0.832   3.862   5.722 -1.3453 -1.1085 -1.2538
14923TIP3   OH266259   1.232   3.689  15.014 -0.1244 -0.2453  0.1405
14923TIP3    H166260   1.238   3.745  15.092  2.4247  1.0965 -0.9540
14923TIP3    H266261   1.229   3.751  14.941  4.6504 -1.4338 -1.2215
14924TIP3   OH266262   6.535   1.485  15.988  0.3763 -0.1242  0.1554
14924TIP3    H166263   6.580   1.433  16.054  1.2781  1.0417  0.4650
14924TIP3    H266264   6.546   1.436  15.907  0.7154 -0.7112  0.5537
14925TIP3   OH266265   2.078   2.796   5.101  0.4147 -0.6032 -0.4337
14925TIP3    H166266   1.997   2.763   5.064 -0.7395  1.9620 -0.3209
14925TIP3    H266267   2.116   2.850   5.032  0.4189  0.7474  0.5922
14926TIP3   OH266268   0.764   3.112   1.880  0.3791 -0.0875 -0.4978
14926TIP3    H166269   0.860   3.103   1.876  0.3883 -0.8592  0.9111
14926TIP3    H266270   0.750   3.199   1.917  0.5135  0.5070 -1.8332
14927TIP3   OH266271   3.278   3.832   2.513 -0.0706  0.1864  0.8347
14927TIP3    H166272   3.288   3.881   2.432  0.2515 -0.1931  0.6462
14927TIP3    H266273   3.309   3.892   2.581  0.2354  0.2786  0.6147
14928TIP3   OH266274   5.954   1.811   0.486 -0.0878  0.1240  0.0975
14928TIP3    H166275   5.962   1.892   0.435  2.3663  0.2456  0.6146
14928TIP3    H266276   5.885   1.830   0.549 -1.9730  0.5640 -2.0196
14929TIP3   OH266277   0.154   5.527  15.593 -0.2547 -0.5853 -0.7008
14929TIP3    H166278   0.211   5.559  15.663 -0.4501 -2.2520  0.2304
14929TIP3    H266279   0.185   5.573  15.515  0.1074  1.1258  0.4250
14930TIP3   OH266280   5.079   3.981  12.466  0.0113  0.0359  0.0589
14930TIP3    H166281   5.046   3.964  12.378 -2.0760 -0.9104  0.9804
14930TIP3    H266282   5.016   4.043  12.503  2.0003  2.0349  0.2170
14931TIP3   OH266283   1.446   6.447   1.417 -0.1905 -0.0313 -0.3164
14931TIP3    H166284   1.541   6.438   1.421 -0.3180 -1.5807 -0.5501
14931TIP3    H266285   1.413   6.378   1.474 -1.1879  0.1078 -0.7122
14932TIP3   OH266286   3.028   5.474   2.969  0.0141  0.0437  0.2481
14932TIP3    H166287   3.036   5.381   2.987  3.2848  0.2096 -0.0218
14932TIP3    H266288   2.977   5.508   3.043 -2.1022 -2.0690 -0.1844
14933TIP3   OH266289   6.700   5.468  15.581 -0.2700  0.1629 -0.0943
14933TIP3    H166290   6.663   5.467  15.493  0.9844  0.4544 -0.6301
14933TIP3    H266291   6.785   5.512  15.571 -0.4392  0.8435  1.3829
14934TIP3   OH266292   6.596   1.090  11.712  0.1800 -0.5076 -0.0050
14934TIP3    H166293   6.545   1.091  11.793 -0.0228  1.7498 -0.1241
14934TIP3    H266294   6.686   1.078  11.740  0.0249 -0.4631  0.5142
14935TIP3   OH266295   3.680   0.440  16.997 -0.3877 -0.0075 -0.3912
14935TIP3    H166296   3.651   0.350  16.987  2.4245 -1.2131  1.7101
14935TIP3    H266297   3.661   0.462  17.088  2.2327  0.2466  0.1318
14936TIP3   OH266298   1.104   2.972  17.082  0.5968 -0.0156  0.2225
14936TIP3    H166299   1.172   2.939  17.141 -1.3706 -3.3634  0.7655
14936TIP3    H266300   1.144   2.969  16.995  0.7081 -3.3870  0.3392
14937TIP3   OH266301   2.371   1.916  13.718  0.3640  0.1055 -0.0429
14937TIP3    H166302   2.303   1.983  13.708  1.4364  1.2840  0.5000
14937TIP3    H266303   2.335   1.856  13.784 -0.2722  0.5591  0.0318
14938TIP3   OH266304   5.238   3.358  13.823 -0.0923  0.2801  0.1170
14938TIP3    H166305   5.163   3.336  13.878 -1.1516  1.0405 -0.9977
14938TIP3    H266306   5.243   3.285  13.760 -0.2479  0.5073 -0.1606
14939TIP3   OH266307   2.691   6.138   1.294  0.6011  0.1533  0.0668
14939TIP3    H166308   2.660   6.118   1.382  2.1173 -2.4481  0.0516
14939TIP3    H266309   2.785   6.148   1.303  0.7468  0.0819 -1.2325
14940TIP3   OH266310   3.731   1.704   5.151  0.2908 -0.7508 -0.0131
14940TIP3    H166311   3.681   1.622   5.143 -1.7294  0.2478  1.8651
14940TIP3    H266312   3.669   1.772   5.125  1.8455  0.2346 -1.1978
14941TIP3   OH266313   0.754   0.754   6.535  0.0984  0.4016  0.0331
14941TIP3    H166314   0.787   0.820   6.476  0.3763  0.1250 -0.1199
14941TIP3    H266315   0.832   0.714   6.574 -0.0895  1.5711  1.6901
14942TIP3   OH266316   4.746   0.164   3.987 -0.1221 -0.0426  0.0964
14942TIP3    H166317   4.787   0.085   4.023 -2.2720 -1.7307 -1.0294
14942TIP3    H266318   4.652   0.147   3.992 -0.6005  2.1225 -0.8972
14943TIP3   OH266319   5.478   5.247   3.130 -0.2255 -0.2500  0.0894
14943TIP3    H166320   5.444   5.329   3.166  0.6185 -0.3083  1.0222
14943TIP3    H266321   5.402   5.205   3.089 -0.3108  1.7986 -1.9186
14944TIP3   OH266322   1.901   4.499   3.066  0.6284  0.1072  0.8391
14944TIP3    H166323   1.942   4.427   3.114  0.1206 -1.4905 -1.0537
14944TIP3    H266324   1.950   4.504   2.984 -0.5964  0.6346  0.1276
14945TIP3   OH266325   2.383   4.884  16.000 -0.0066  1.4358 -0.0505
14945TIP3    H166326   2.386   4.790  16.015 -0.9272  1.5822  1.1005
14945TIP3    H266327   2.312   4.895  15.936  1.9507  1.1047 -2.3718
14946TIP3   OH266328   3.444   3.655  16.947  0.1045  0.0646  0.1680
14946TIP3    H166329   3.455   3.725  16.882  2.2521 -0.2841  0.1215
14946TIP3    H266330   3.398   3.697  17.019 -2.3216  0.4650 -1.5535
14947TIP3   OH266331   1.763   4.292  16.532  0.3115 -0.7464  0.0742
14947TIP3    H166332   1.816   4.338  16.597  1.4829 -1.3936 -0.4163
14947TIP3    H266333   1.774   4.199  16.553  0.0238 -0.9191 -0.5240
14948TIP3   OH266334   6.342   0.307  11.426  0.4274 -0.4549  0.1763
14948TIP3    H166335   6.355   0.333  11.335 -0.1166 -1.1619 -0.1066
14948TIP3    H266336   6.292   0.379  11.465  0.4633 -0.2587 -0.1400
14949TIP3   OH266337   0.444   2.130  15.602 -0.0386 -0.8192 -0.7180
14949TIP3    H166338   0.539   2.137  15.608 -0.2045  0.2862  1.4643
14949TIP3    H266339   0.427   2.037  15.592  1.1792 -1.5504  3.0279
14950TIP3   OH266340   5.193   2.964   0.482  0.3170  0.2523 -0.0409
14950TIP3    H166341   5.131   3.032   0.507  1.7339  1.7436 -0.4968
14950TIP3    H266342   5.177   2.950   0.389 -0.3603 -0.4850  0.1712
14951TIP3   OH266343   6.658   6.452   4.797 -0.2610  0.3848  0.0223
14951TIP3    H166344   6.653   6.373   4.850  0.3636  1.3932  1.6104
14951TIP3    H266345   6.638   6.523   4.858  0.3462  1.5520 -1.1239
14952TIP3   OH266346   2.573   3.693   3.296  0.4201  0.0636  0.0658
14952TIP3    H166347   2.557   3.718   3.387  2.1246  2.2678 -0.1788
14952TIP3    H266348   2.658   3.648   3.297 -0.1978 -1.1160 -0.2439
14953TIP3   OH266349   5.507   4.534   6.644 -0.5431 -0.1831 -0.6270
14953TIP3    H166350   5.599   4.556   6.628 -0.6693  0.1942 -0.8461
14953TIP3    H266351   5.459   4.610   6.612 -1.1387 -1.6878 -3.4794
14954TIP3   OH266352   3.594   2.117  17.261  0.2728  0.0045  0.3849
14954TIP3    H166353   3.628   2.120  17.350  2.2282  0.5810 -0.3530
14954TIP3    H266354   3.618   2.202  17.223 -0.1935 -0.3849 -0.8030
14955TIP3   OH266355   0.267   6.423  13.398 -0.3888 -0.1441  0.5641
14955TIP3    H166356   0.235   6.337  13.424 -1.1028  0.4745  1.7471
14955TIP3    H266357   0.229   6.484  13.462  1.5158  0.8371  0.8084
14956TIP3   OH266358   6.593   2.307  13.455  0.1585  0.1877 -0.0362
14956TIP3    H166359   6.591   2.366  13.380  1.2905  0.1723 -0.0908
14956TIP3    H266360   6.503   2.306  13.488 -0.1232  0.9811 -0.7759
14957TIP3   OH266361   6.527   0.819  12.909 -0.1034 -0.4961  0.4761
14957TIP3    H166362   6.545   0.793  13.000  1.6455 -2.0620 -0.2899
14957TIP3    H266363   6.553   0.743  12.857  0.6051  1.0514 -1.4934
14958TIP3   OH266364   3.825   5.477   3.539 -0.0571  0.2647  0.4304
14958TIP3    H166365   3.846   5.557   3.587  1.2172  0.4540 -0.4081
14958TIP3    H266366   3.789   5.508   3.456  1.8505 -0.0037 -0.5097
14959TIP3   OH266367   4.324   5.876  16.538  0.0342  0.0787 -0.2507
14959TIP3    H166368   4.418   5.863  16.526 -0.3816 -4.4417  0.7293
14959TIP3    H266369   4.287   5.871  16.450  0.5593  0.8573 -0.5220
14960TIP3   OH266370   1.460   2.090  13.360  0.0541 -0.1104  0.6257
14960TIP3    H166371   1.521   2.025  13.394  0.6159  0.2302  0.2833
14960TIP3    H266372   1.434   2.056  13.275  1.9505  1.1002 -0.4726
14961TIP3   OH266373   2.162   5.590   3.319 -0.0493 -0.7891  0.5919
14961TIP3    H166374   2.092   5.590   3.385 -0.0248 -0.1959  0.6246
14961TIP3    H266375   2.126   5.541   3.246 -0.6489 -0.1532  0.4560
14962TIP3   OH266376   5.228   5.008   3.099 -0.7392  0.3240  0.1805
14962TIP3    H166377   5.162   5.022   3.031 -1.0195 -1.2157  0.1284
14962TIP3    H266378   5.311   5.005   3.052 -0.6696  1.7426  0.1901
14963TIP3   OH266379   5.878   6.162  12.715 -0.3506  0.4102 -0.9785
14963TIP3    H166380   5.788   6.195  12.719 -0.5619 -0.3564  1.2195
14963TIP3    H266381   5.881   6.112  12.633 -2.4594 -0.9869 -0.2386
14964TIP3   OH266382   0.167   4.472   4.481 -1.2734  0.4968 -0.3264
14964TIP3    H166383   0.129   4.390   4.449  2.4779 -1.2367 -0.5779
14964TIP3    H266384   0.181   4.457   4.575 -1.6822  1.3015 -0.1359
14965TIP3   OH266385   5.665   4.655   6.299 -0.4073  0.2809 -0.4887
14965TIP3    H166386   5.663   4.746   6.271  2.9208  0.6669  0.3657
14965TIP3    H266387   5.679   4.605   6.219  1.8516  0.8485 -0.4747
14966TIP3   OH266388   6.062   2.319  12.680  0.0552 -1.0164  0.2157
14966TIP3    H166389   6.138   2.338  12.734  1.8096 -0.5329 -2.3017
14966TIP3    H266390   6.064   2.224  12.668  0.6531 -0.9404 -0.3472
14967TIP3   OH266391   2.300   2.494  14.824  0.0535 -0.3480  0.3833
14967TIP3    H166392   2.273   2.418  14.771  0.7356 -0.8556  0.7500
14967TIP3    H266393   2.227   2.555  14.818 -0.1357 -0.6649 -0.6383
14968TIP3   OH266394   3.843   5.351  16.095 -0.1056  0.3855  0.2289
14968TIP3    H166395   3.769   5.290  16.098 -1.1254  1.6099  0.5641
14968TIP3    H266396   3.882   5.346  16.182  1.0382 -1.2563 -0.3672
14969TIP3   OH266397   2.947   0.109  15.483 -0.6102 -0.1389  0.3174
14969TIP3    H166398   3.012   0.063  15.536 -0.0814  0.2385 -0.0004
14969TIP3    H266399   2.914   0.178  15.541 -1.9117 -1.3296  1.0358
14970TIP3   OH266400   2.430   3.465   5.416 -0.1553  0.4287  0.0243
14970TIP3    H166401   2.397   3.443   5.503 -1.6189  0.5110 -0.4947
14970TIP3    H266402   2.480   3.546   5.429  0.9531 -0.3942  1.0422
14971TIP3   OH266403   2.794   1.943   1.587 -0.0098 -0.1757  0.2381
14971TIP3    H166404   2.747   1.940   1.503  0.9002  0.2001 -0.2918
14971TIP3    H266405   2.788   2.035   1.614 -0.1878 -0.2704  0.5197
14972TIP3   OH266406   5.304   0.975   5.813 -0.3666 -0.3485  0.3788
14972TIP3    H166407   5.328   0.888   5.846 -1.2231 -0.3485  1.0322
14972TIP3    H266408   5.365   1.034   5.857  1.5393 -0.7986 -1.5970
14973TIP3   OH266409   5.043   2.794  12.783 -0.3194 -0.0887  0.1570
14973TIP3    H166410   4.999   2.725  12.733  0.7677  0.6850 -1.9230
14973TIP3    H266411   4.983   2.813  12.855 -0.9226 -2.7614  0.4189
14974TIP3   OH266412   0.404   2.944   5.617  0.2906  1.1569  0.2597
14974TIP3    H166413   0.492   2.966   5.647  0.7572 -1.0661  0.6153
14974TIP3    H266414   0.412   2.854   5.584 -1.8953  0.8564  0.4893
14975TIP3   OH266415   5.918   5.641   0.719 -0.0764  0.5267  0.2808
14975TIP3    H166416   5.882   5.679   0.640 -0.9868 -1.4088 -0.2652
14975TIP3    H266417   5.978   5.708   0.753  0.0229  1.5217 -1.8003
14976TIP3   OH266418   0.463   3.336   3.464 -0.2456 -0.6056 -0.2037
14976TIP3    H166419   0.456   3.402   3.533 -0.3423 -0.8640  0.0304
14976TIP3    H266420   0.508   3.382   3.393 -2.6050  0.4888 -1.0327
14977TIP3   OH266421   6.513   4.863   5.381  0.0419 -0.0570  0.5550
14977TIP3    H166422   6.566   4.940   5.403 -0.7768  0.6953 -0.0353
14977TIP3    H266423   6.423   4.893   5.394 -0.2970 -0.7480 -0.2190
14978TIP3   OH266424   2.057   2.196   0.131  0.6639 -0.6855 -0.1267
14978TIP3    H166425   2.091   2.258   0.067 -1.5220 -0.4588 -1.1174
14978TIP3    H266426   2.054   2.112   0.085 -4.6496  0.2201 -1.7784
14979TIP3   OH266427   0.544   3.001  16.058  0.1218 -0.3097  0.4812
14979TIP3    H166428   0.636   3.005  16.081  0.2611 -2.6054  0.3978
14979TIP3    H266429   0.516   3.093  16.053  2.4121  0.3958  0.3652
14980TIP3   OH266430   0.919   6.017   0.364  0.5355 -0.1516  0.0009
14980TIP3    H166431   0.860   5.953   0.404  0.0240  0.3858  0.1117
14980TIP3    H266432   0.861   6.085   0.330  0.9794 -0.4002 -1.3022
14981TIP3   OH266433   3.496   2.715  17.157 -0.5517  0.6267 -0.1609
14981TIP3    H166434   3.432   2.739  17.225  0.6766  2.5717  0.3406
14981TIP3    H266435   3.555   2.655  17.201 -2.0089 -1.2019 -0.6297
14982TIP3   OH266436   0.087   3.348  13.569 -0.0382 -0.1569 -0.1739
14982TIP3    H166437   0.130   3.433  13.561  0.1555  0.1686  3.6185
14982TIP3    H266438   0.156   3.284  13.553  0.2028  0.3628 -1.2772
14983TIP3   OH266439   3.554   4.256  12.352 -0.0318  0.4194  0.5984
14983TIP3    H166440   3.469   4.294  12.374  0.1841  0.8856  0.6294
14983TIP3    H266441   3.584   4.215  12.433  0.3624  1.3751  0.9384
14984TIP3   OH266442   6.196   0.339   0.956 -0.1663 -0.3039  0.6248
14984TIP3    H166443   6.232   0.291   0.881  0.7106  2.1267 -0.5527
14984TIP3    H266444   6.146   0.273   1.004  1.9541 -2.6861 -0.2879
14985TIP3   OH266445   6.401   6.808  15.698 -0.0896  0.2654 -0.2870
14985TIP3    H166446   6.390   6.821  15.604 -1.5520 -0.4090 -0.2273
14985TIP3    H266447   6.456   6.881  15.727 -0.9211  1.3392 -1.4045
14986TIP3   OH266448   0.150   1.386  16.493 -0.1890 -0.3572  0.3174
14986TIP3    H166449   0.061   1.417  16.473 -0.7944 -1.7649  0.7463
14986TIP3    H266450   0.203   1.417  16.420 -1.4139 -1.1712 -0.9510
14987TIP3   OH266451   1.440   4.049   0.101  0.3879 -0.0701  0.2220
14987TIP3    H166452   1.476   4.138   0.108  0.4662 -0.0256 -0.6399
14987TIP3    H266453   1.450   4.012   0.188  2.2882  0.0368  0.0598
14988TIP3   OH266454   1.353   0.042  12.816  0.4475  0.6019 -0.4830
14988TIP3    H166455   1.287   0.033  12.748 -0.8022 -0.3830  0.8404
14988TIP3    H266456   1.377   0.135  12.815 -1.2171  1.0310 -0.7226
14989TIP3   OH266457   4.348   2.423  14.351  0.1212 -0.1428  0.1247
14989TIP3    H166458   4.342   2.327  14.354 -0.3392 -0.1033  0.8142
14989TIP3    H266459   4.268   2.452  14.395  0.1907  0.5577 -0.2205
14990TIP3   OH266460   0.091   5.670   1.369 -0.1135 -0.2798 -0.4864
14990TIP3    H166461   0.085   5.764   1.384  2.8686 -0.0259 -0.5045
14990TIP3    H266462   0.023   5.632   1.424  0.4070  1.7106  1.5987
14991TIP3   OH266463   5.301   3.633  15.452 -0.0047 -0.6011 -0.1180
14991TIP3    H166464   5.273   3.678  15.532  2.0018 -1.6464  1.2316
14991TIP3    H266465   5.319   3.703  15.389  0.1144  0.3287  0.9333
14992TIP3   OH266466   2.201   2.787  16.897 -0.4047  0.3309 -0.0955
14992TIP3    H166467   2.133   2.757  16.956 -0.3535  1.2939  0.4627
14992TIP3    H266468   2.233   2.708  16.854 -0.3841 -0.3937  1.2303
14993TIP3   OH266469   0.584   3.933   1.038  0.4772 -0.3018 -0.1572
14993TIP3    H166470   0.649   4.000   1.018 -0.4795  0.1286 -1.9892
14993TIP3    H266471   0.501   3.980   1.045  0.2354 -0.9394  1.4073
14994TIP3   OH266472   4.583   2.531  16.539 -0.0092  0.2471  0.5552
14994TIP3    H166473   4.592   2.441  16.508  1.9027  0.4469  0.4592
14994TIP3    H266474   4.640   2.536  16.616  1.4315  1.8830 -0.5714
14995TIP3   OH266475   6.642   6.075  14.861 -0.1320  0.5221 -0.3680
14995TIP3    H166476   6.692   6.034  14.791 -1.6720 -0.0537 -1.1504
14995TIP3    H266477   6.573   6.124  14.816 -1.4019 -0.2019  0.7364
14996TIP3   OH266478   3.973   1.466  11.038 -0.1634 -0.7984  0.5795
14996TIP3    H166479   4.059   1.495  11.068 -1.1726 -0.1644  3.0005
14996TIP3    H266480   3.982   1.372  11.023  1.6479 -0.2869 -1.8903
14997TIP3   OH266481   3.727   1.637   2.976 -0.9579 -0.0585  0.1653
14997TIP3    H166482   3.738   1.580   3.052 -1.7217 -0.3698  0.0476
14997TIP3    H266483   3.787   1.710   2.992 -0.0033 -0.8752  0.3330
14998TIP3   OH266484   0.481   3.289   1.009  0.1125 -0.0013 -0.2045
14998TIP3    H166485   0.475   3.321   0.919  0.1295  1.2214  0.2223
14998TIP3    H266486   0.391   3.286   1.041  0.1770  0.4191  0.0256
14999TIP3   OH266487   4.927   2.887   5.220 -0.0704 -0.4374 -0.1521
14999TIP3    H166488   4.977   2.842   5.151  2.0994 -0.9011  1.6436
14999TIP3    H266489   4.854   2.829   5.239 -1.3211  0.2171 -2.7961
15000TIP3   OH266490   2.115   2.357  11.933  0.2867  0.1346 -0.0229
15000TIP3    H166491   2.146   2.447  11.925  0.1971  0.1460 -0.2624
15000TIP3    H266492   2.083   2.336  11.845  1.9994 -0.7460 -0.4572
15001TIP3   OH266493   2.559   0.392  12.390 -0.2797 -0.0275  0.3220
15001TIP3    H166494   2.544   0.298  12.379 -2.1558  0.4268 -1.2697
15001TIP3    H266495   2.539   0.409  12.482 -0.4682 -1.0767  0.4763
15002TIP3   OH266496   4.494   4.356   6.491  0.1622 -0.5530 -0.1682
15002TIP3    H166497   4.538   4.298   6.429 -0.7032  0.1384 -1.4413
15002TIP3    H266498   4.433   4.299   6.538  0.0802 -0.8642 -0.6565
15003TIP3   OH266499   2.648   6.081   5.918  0.0448 -0.2532  0.3807
15003TIP3    H166500   2.570   6.029   5.937 -0.4875  1.0472  1.7728
15003TIP3    H266501   2.721   6.026   5.948 -0.3315 -1.3266 -0.6200
15004TIP3   OH266502   0.956   4.840   4.188 -0.3400 -0.1213  0.3485
15004TIP3    H166503   1.000   4.761   4.158  0.8695 -0.1148  2.0251
15004TIP3    H266504   1.014   4.876   4.256 -0.6689  2.4272 -0.6514
15005TIP3   OH266505   3.382   4.687  14.645  0.0227  0.3537  0.3248
15005TIP3    H166506   3.378   4.632  14.723  1.2199  0.6309  0.5874
15005TIP3    H266507   3.290   4.704  14.623 -0.3311  0.7432  2.0060
15006TIP3   OH266508   6.117   6.686   4.712 -0.0527  0.3822  0.9566
15006TIP3    H166509   6.191   6.732   4.672  0.3814 -3.0965 -2.5096
15006TIP3    H266510   6.040   6.721   4.666 -0.0111 -0.0465  0.5538
15007TIP3   OH266511   0.403   1.070   1.859 -0.0654  0.3075 -0.3268
15007TIP3    H166512   0.497   1.085   1.854  0.0459 -0.4783 -0.7624
15007TIP3    H266513   0.371   1.089   1.770 -0.1192 -0.6630 -0.5243
15008TIP3   OH266514   0.448   5.162   1.309 -0.1393 -0.6681  0.2703
15008TIP3    H166515   0.507   5.231   1.340  0.2381 -1.3137  1.0002
15008TIP3    H266516   0.394   5.141   1.385  0.7023 -2.1691  0.4675
15009TIP3   OH266517   0.343   0.616  14.286  0.0983  0.9425  0.7165
15009TIP3    H166518   0.274   0.574  14.338  1.1191 -1.1857  0.4335
15009TIP3    H266519   0.421   0.565  14.306  0.4506 -0.2260 -3.1876
15010TIP3   OH266520   2.749   0.251   1.685  0.0432 -0.2203 -0.2720
15010TIP3    H166521   2.659   0.235   1.657 -0.3573 -1.0115  1.4126
15010TIP3    H266522   2.802   0.193   1.629 -0.7229 -1.6011  0.4001
15011TIP3   OH266523   1.518   3.800   1.039  0.2926 -0.3855 -0.5156
15011TIP3    H166524   1.586   3.848   0.992 -0.0696 -0.8626 -1.5378
15011TIP3    H266525   1.562   3.766   1.117  0.8353  0.6350 -0.3765
15012TIP3   OH266526   5.744   0.263  15.440  0.6445 -0.1991 -0.1709
15012TIP3    H166527   5.746   0.348  15.484 -1.7316 -0.6920  0.9676
15012TIP3    H266528   5.737   0.199  15.511 -0.1447 -1.2017 -1.1373
15013TIP3   OH266529   5.946   4.904   1.928 -0.0381  0.4166 -0.0416
15013TIP3    H166530   5.977   4.874   1.842  0.9545 -0.2812  0.5416
15013TIP3    H266531   5.948   4.826   1.982 -1.6608  0.6469  0.3519
15014TIP3   OH266532   0.411   4.798   1.535 -0.3315 -0.0553  0.7757
15014TIP3    H166533   0.384   4.740   1.464  0.7137 -2.8069  2.5153
15014TIP3    H266534   0.485   4.847   1.499 -1.2297  0.2213 -0.7439
15015TIP3   OH266535   2.555   4.685  14.038 -0.5233  0.1289  0.3891
15015TIP3    H166536   2.461   4.667  14.036 -0.6263  0.7324 -0.6237
15015TIP3    H266537   2.583   4.654  14.124 -1.7231  0.3012  0.8579
15016TIP3   OH266538   2.438   5.870   4.223  0.1528 -0.0198  0.4316
15016TIP3    H166539   2.473   5.841   4.308 -1.3915 -0.2841  1.0009
15016TIP3    H266540   2.351   5.829   4.218  0.6237 -0.8393 -1.7352
15017TIP3   OH266541   3.972   6.044  16.811 -0.4766 -0.4834  0.4747
15017TIP3    H166542   4.037   6.019  16.877 -1.5263 -0.7677  1.4078
15017TIP3    H266543   4.022   6.095  16.747  0.2960  1.0190  2.2132
15018TIP3   OH266544   2.394   5.540  14.581 -0.0049 -0.3495  0.1902
15018TIP3    H166545   2.317   5.580  14.622 -0.2151 -1.0705  0.4970
15018TIP3    H266546   2.361   5.504  14.499  0.3646  0.8724 -0.5088
15019TIP3   OH266547   0.450   0.810  12.254 -0.3031  0.0629  0.3041
15019TIP3    H166548   0.425   0.884  12.309 -1.1950 -0.8290  1.1099
15019TIP3    H266549   0.534   0.835  12.217 -1.0225  1.8822 -0.1639
15020TIP3   OH266550   4.994   0.057   1.292 -0.0965  0.0387 -0.0787
15020TIP3    H166551   5.051   0.035   1.366 -1.2047  0.2733  0.8588
15020TIP3    H266552   5.009  -0.014   1.229  3.6215  1.7439 -1.2620
15021TIP3   OH266553   5.109   6.117   0.087  0.2418 -0.2370 -0.3527
15021TIP3    H166554   5.096   6.125  -0.008 -0.2279  0.0848 -0.2600
15021TIP3    H266555   5.112   6.207   0.119 -0.8533 -0.3612  0.1105
15022TIP3   OH266556   4.477   3.886  15.875  0.2841 -0.3764 -0.3022
15022TIP3    H166557   4.558   3.936  15.866 -0.3705  0.4477 -2.0144
15022TIP3    H266558   4.502   3.796  15.858  0.7624 -0.0534 -1.3380
15023TIP3   OH266559   2.072   3.054   3.229 -0.1343 -0.1382  0.1376
15023TIP3    H166560   2.033   3.115   3.292 -1.8086 -1.0991  0.0648
15023TIP3    H266561   2.165   3.050   3.253 -0.7373 -0.4658  2.5232
15024TIP3   OH266562   1.696   1.598   6.320 -0.2960 -0.1207  0.0086
15024TIP3    H166563   1.640   1.630   6.391  0.2822 -0.0846  0.4433
15024TIP3    H266564   1.767   1.552   6.363  0.8150  1.0997 -0.4832
15025TIP3   OH266565   3.721   6.069   2.987  0.7807 -0.1354  0.0876
15025TIP3    H166566   3.727   6.113   3.072 -1.5989  0.9912 -0.2685
15025TIP3    H266567   3.681   6.134   2.929  1.7589 -1.1188 -1.7448
15026TIP3   OH266568   0.254   4.861   4.625 -0.3551  0.0188  0.0698
15026TIP3    H166569   0.184   4.799   4.649  0.6587  0.4681  4.5344
15026TIP3    H266570   0.213   4.947   4.632  0.2526  0.2122  1.3377
15027TIP3   OH266571   4.874   6.238  13.750  0.1046 -0.2380 -0.0552
15027TIP3    H166572   4.795   6.231  13.696  1.1645  1.7851 -1.9570
15027TIP3    H266573   4.939   6.185  13.703  1.3289  2.3727 -1.4018
15028TIP3   OH266574   6.512   4.597  11.457 -0.3658  0.0359  0.2321
15028TIP3    H166575   6.598   4.559  11.442 -0.3820  0.2622 -0.4453
15028TIP3    H266576   6.527   4.667  11.521  0.4843  2.0961 -2.1215
15029TIP3   OH266577   3.497   2.264  16.688 -0.2179 -0.2754  0.0680
15029TIP3    H166578   3.456   2.336  16.736 -1.0326 -1.7940  1.7043
15029TIP3    H266579   3.548   2.217  16.754 -2.3345 -3.1251 -0.2273
15030TIP3   OH266580   6.021   6.233  16.295 -0.0389  0.4444 -0.1593
15030TIP3    H166581   6.005   6.291  16.220 -2.0529 -1.0297 -0.9275
15030TIP3    H266582   5.958   6.263  16.361 -0.9310 -0.6604 -0.4778
15031TIP3   OH266583   1.179   3.947  16.084  0.3207 -0.3165 -0.5082
15031TIP3    H166584   1.253   3.999  16.115 -0.6384  0.2616  0.8527
15031TIP3    H266585   1.213   3.858  16.078  1.5802  0.2102 -1.5106
15032TIP3   OH266586   4.338   2.500   1.772  0.2828  0.3436  0.8310
15032TIP3    H166587   4.343   2.489   1.866 -1.6804  0.9966  1.0375
15032TIP3    H266588   4.290   2.423   1.741  3.1122 -1.1799  0.0258
15033TIP3   OH266589   0.535   2.102   4.634  0.2128  0.0534  0.1652
15033TIP3    H166590   0.443   2.083   4.613 -0.0980  0.9769  0.6597
15033TIP3    H266591   0.530   2.166   4.705  1.2519 -2.5159  2.6446
15034TIP3   OH266592   3.220   5.858  12.540 -0.0474 -0.0620 -0.2306
15034TIP3    H166593   3.222   5.851  12.445  1.4393 -1.0835 -0.1371
15034TIP3    H266594   3.299   5.813  12.569 -0.9439 -0.5420  1.5373
15035TIP3   OH266595   1.013   5.304   0.560  0.3572 -0.6145 -0.1072
15035TIP3    H166596   1.058   5.250   0.625 -0.9780 -1.4566  0.1281
15035TIP3    H266597   0.940   5.250   0.531 -0.4417  0.7058 -0.5680
15036TIP3   OH266598   4.527   5.375   4.586  0.3043  0.2725  0.3668
15036TIP3    H166599   4.544   5.416   4.501  0.9478 -1.3808 -0.3341
15036TIP3    H266600   4.614   5.349   4.617 -0.1729 -1.5051  0.2793
15037TIP3   OH266601   6.492   3.540   1.726 -0.0714 -0.7975  0.1299
15037TIP3    H166602   6.479   3.517   1.634 -1.2095 -2.1296  0.6069
15037TIP3    H266603   6.408   3.576   1.754  0.3073 -0.2912  0.6203
15038TIP3   OH266604   1.918   3.313  15.550  0.0201 -0.0959  0.0704
15038TIP3    H166605   1.892   3.372  15.480  1.5191 -0.2061 -0.5978
15038TIP3    H266606   1.925   3.227  15.508 -1.6108 -0.6645  0.9163
15039TIP3   OH266607   2.122   4.748  12.723 -0.0641 -0.2728  0.0108
15039TIP3    H166608   2.048   4.767  12.665  0.3905 -0.5212 -0.6575
15039TIP3    H266609   2.153   4.835  12.751 -0.9540 -0.1853  0.7365
15040TIP3   OH266610   1.213   5.049   5.709  0.6833  0.0020  0.1459
15040TIP3    H166611   1.214   4.954   5.723  1.0554  0.0810  0.6485
15040TIP3    H266612   1.167   5.084   5.785 -1.1561  0.0728 -0.9764
15041TIP3   OH266613   4.726   5.902   1.053  0.4418 -0.7599 -0.3101
15041TIP3    H166614   4.747   5.809   1.049 -1.4111 -1.2587  1.0160
15041TIP3    H266615   4.680   5.913   1.136 -0.3035  1.1463 -0.9352
15042TIP3   OH266616   0.984   3.484  14.509 -0.0871 -0.4284 -0.1662
15042TIP3    H166617   0.991   3.390  14.521 -0.0993 -0.5103 -0.7755
15042TIP3    H266618   1.074   3.515  14.503 -0.0898 -0.4515 -0.3299
15043TIP3   OH266619   2.358   2.240   1.943  0.7048  0.3283 -0.1650
15043TIP3    H166620   2.373   2.284   2.027 -0.3860  1.0281 -0.3277
15043TIP3    H266621   2.264   2.248   1.929  0.5517 -1.7835 -0.3598
15044TIP3   OH266622   0.635   5.305  17.029 -0.0307  0.4865  0.2328
15044TIP3    H166623   0.654   5.364  16.956 -0.9378  2.3123  1.4475
15044TIP3    H266624   0.717   5.302  17.079  0.6438 -0.8939 -0.9117
15045TIP3   OH266625   2.885   6.195  15.577  0.5322  0.1033  0.3192
15045TIP3    H166626   2.930   6.165  15.498  0.8449 -0.3542  0.6660
15045TIP3    H266627   2.929   6.277  15.600  0.5883  0.1225  0.1455
15046TIP3   OH266628   4.567   5.400   5.201 -0.2169  0.0842  0.3175
15046TIP3    H166629   4.559   5.369   5.291 -1.6900 -1.8331 -0.4336
15046TIP3    H266630   4.490   5.455   5.188 -1.4031 -1.7317 -0.5409
15047TIP3   OH266631   2.310   2.276   0.736 -0.3358  0.8272 -0.5835
15047TIP3    H166632   2.288   2.275   0.829 -2.3500  2.0651 -1.0115
15047TIP3    H266633   2.350   2.361   0.722 -1.2196  1.1658 -1.0890
15048TIP3   OH266634   5.352   5.758   3.929 -0.0795  0.0724 -0.1070
15048TIP3    H166635   5.285   5.739   3.864  1.5226 -0.6913 -1.5843
15048TIP3    H266636   5.410   5.822   3.886 -0.6535  1.8653  1.6820
15049TIP3   OH266637   4.304   1.328   1.656 -0.1867 -0.1557 -0.2759
15049TIP3    H166638   4.219   1.334   1.700 -0.4692  2.1139 -1.0645
15049TIP3    H266639   4.363   1.381   1.709  0.4597 -0.7325 -0.4040
15050TIP3   OH266640   6.799   0.915  13.461  0.2033  0.1883 -0.5700
15050TIP3    H166641   6.799   0.982  13.530  1.0287  1.1133 -1.4492
15050TIP3    H266642   6.709   0.916  13.427  0.2998  1.1040 -0.8089
15051TIP3   OH266643   2.295   4.440   1.661 -0.4544  0.2085 -0.1036
15051TIP3    H166644   2.245   4.460   1.582 -2.1665  2.5000  1.5100
15051TIP3    H266645   2.345   4.520   1.678  0.5706 -0.5862  0.6780
15052TIP3   OH266646   3.982   1.058   2.233 -0.4931 -0.9302 -0.6297
15052TIP3    H166647   4.019   0.970   2.247  1.0507 -0.4942 -1.8014
15052TIP3    H266648   4.008   1.107   2.311 -0.0812 -1.1188 -0.6447
15053TIP3   OH266649   0.860   4.727   0.488  0.2738 -0.1344 -0.1196
15053TIP3    H166650   0.808   4.710   0.409  0.9400  0.8134 -0.7756
15053TIP3    H266651   0.941   4.678   0.474  0.4141  0.0781 -0.0448
15054TIP3   OH266652   3.549   2.134   2.727 -0.0805  0.0226  0.3307
15054TIP3    H166653   3.562   2.056   2.781  1.5721  0.9186  1.3138
15054TIP3    H266654   3.569   2.207   2.786 -1.3577  1.1821 -0.6311
15055TIP3   OH266655   3.758   3.995   0.962 -0.0835 -0.1519 -0.3368
15055TIP3    H166656   3.841   3.965   0.927  1.0409  0.9338  1.3226
15055TIP3    H266657   3.731   3.927   1.023 -0.1052 -0.2073 -0.4075
15056TIP3   OH266658   0.585   1.206   3.658  0.2609 -0.2944  0.2556
15056TIP3    H166659   0.564   1.113   3.654 -2.1493  0.2014  0.4987
15056TIP3    H266660   0.530   1.245   3.590  1.7881  0.8570 -0.3256
15057TIP3   OH266661   6.260   0.711   3.307 -0.1812 -0.3842  0.4833
15057TIP3    H166662   6.220   0.625   3.314 -1.8965  0.3052 -0.4910
15057TIP3    H266663   6.241   0.753   3.391 -1.1674 -0.2080  0.1777
15058TIP3   OH266664   1.358   6.395  13.582 -0.4967 -0.2851  0.0301
15058TIP3    H166665   1.397   6.471  13.540 -0.7169  0.2411  0.7687
15058TIP3    H266666   1.348   6.331  13.511  1.4829 -0.3524 -0.2051
15059TIP3   OH266667   3.774   0.625  15.573  0.5787  0.0945  0.1425
15059TIP3    H166668   3.774   0.663  15.661  0.5102  1.2694 -0.3585
15059TIP3    H266669   3.690   0.579  15.567  0.0955  0.9309  0.3174
15060TIP3   OH266670   4.176   5.087   4.823  0.1890 -0.3268  0.1600
15060TIP3    H166671   4.203   4.995   4.819  2.7315  0.3467  1.3140
15060TIP3    H266672   4.157   5.103   4.915 -0.5285  0.2583 -0.0800
15061TIP3   OH266673   5.768   4.504  11.674 -0.0296  1.3927  1.0041
15061TIP3    H166674   5.710   4.573  11.706  0.2685  1.7901  0.7059
15061TIP3    H266675   5.845   4.509  11.731 -0.7547  0.1308  2.0992
15062TIP3   OH266676   4.015   6.443  10.535 -0.3827 -0.0514 -0.3193
15062TIP3    H166677   4.067   6.522  10.544  0.9445 -0.8265 -1.0209
15062TIP3    H266678   3.938   6.469  10.484  0.6696  0.5055 -1.6339
15063TIP3   OH266679   2.433   2.039  13.311  0.2537  0.1962  0.0297
15063TIP3    H166680   2.434   2.115  13.370 -0.1002  0.2250  0.0039
15063TIP3    H266681   2.394   1.969  13.363  1.2270 -0.1612  0.2815
15064TIP3   OH266682   3.198   4.840   5.085 -0.5098 -0.3447 -0.0819
15064TIP3    H166683   3.268   4.881   5.138 -2.1987  0.3177  1.7005
15064TIP3    H266684   3.143   4.795   5.149 -2.0047 -0.4325 -1.4065
15065TIP3   OH266685   4.778   6.708  16.998 -0.4396  0.2020 -0.1287
15065TIP3    H166686   4.684   6.726  16.991 -0.4207  0.1167 -0.6349
15065TIP3    H266687   4.816   6.751  16.921 -0.2457 -0.9034 -0.6687
15066TIP3   OH266688   4.940   4.464  16.891 -0.0062 -0.1400  0.0711
15066TIP3    H166689   4.925   4.476  16.797 -0.5866  0.2588  0.2194
15066TIP3    H266690   4.901   4.540  16.932  2.2605  0.8350  0.4705
15067TIP3   OH266691   5.996   1.056   6.950  0.8054  0.2084 -0.4750
15067TIP3    H166692   6.048   0.993   6.899  0.6846 -1.3466  1.2519
15067TIP3    H266693   5.928   1.002   6.993 -0.4613  1.7930 -0.4346
15068TIP3   OH266694   5.317   6.777  14.704  0.4038  0.2052 -0.2426
15068TIP3    H166695   5.324   6.686  14.677  2.1851  0.6266 -1.2817
15068TIP3    H266696   5.224   6.790  14.722  0.0708 -1.6764 -0.5587
15069TIP3   OH266697   6.735   4.375  16.924  0.3772  0.4025 -0.0758
15069TIP3    H166698   6.660   4.347  16.872  1.4341 -1.2454 -0.7725
15069TIP3    H266699   6.723   4.469  16.936 -0.3950  0.6529 -2.5152
15070TIP3   OH266700   3.114   3.868   3.496  0.1351  0.2640  0.2052
15070TIP3    H166701   3.070   3.907   3.571  0.7292  1.7199 -0.1916
15070TIP3    H266702   3.206   3.896   3.504  0.2132  0.3943 -1.0125
15071TIP3   OH266703   5.372   5.341   2.508 -0.0583 -0.2560  0.1851
15071TIP3    H166704   5.446   5.379   2.460 -0.3178 -0.5198 -0.4365
15071TIP3    H266705   5.305   5.410   2.507 -0.2726 -0.4695 -0.3328
15072TIP3   OH266706   1.391   3.551   2.587  0.3283 -0.1715 -0.3646
15072TIP3    H166707   1.415   3.589   2.671  2.9797  0.0597 -1.1819
15072TIP3    H266708   1.375   3.627   2.530  1.5917 -0.2588 -0.8726
15073TIP3   OH266709   0.398   0.143   4.274 -0.3383  0.2553  0.4873
15073TIP3    H166710   0.459   0.202   4.229 -1.1950  1.0384  0.3271
15073TIP3    H266711   0.440   0.057   4.270  0.7414  0.7794  0.3668
15074TIP3   OH266712   3.769   4.642   3.436 -0.2303 -0.5161  0.1168
15074TIP3    H166713   3.722   4.662   3.517  1.1383 -0.0942  0.8290
15074TIP3    H266714   3.715   4.576   3.393 -1.0516 -0.6486  1.3035
15075TIP3   OH266715   0.696   4.658   2.674 -0.1850 -0.6842 -0.0859
15075TIP3    H166716   0.711   4.651   2.768  0.9796 -0.4442 -0.2425
15075TIP3    H266717   0.608   4.696   2.667  0.7649  1.8411  0.9577
15076TIP3   OH266718   0.209   4.343   5.414  0.5408  0.3309 -0.1245
15076TIP3    H166719   0.157   4.332   5.334  1.5901 -1.2257 -0.6251
15076TIP3    H266720   0.236   4.254   5.436  0.0563  0.7235  2.1079
15077TIP3   OH266721   4.807   2.559  16.341 -0.0178  0.2609 -0.1118
15077TIP3    H166722   4.800   2.553  16.436 -1.5740 -1.2334 -0.2951
15077TIP3    H266723   4.731   2.611  16.315  0.0068  0.0525 -0.5982
15078TIP3   OH266724   3.474   2.990   2.194  1.1134  0.4261  0.3399
15078TIP3    H166725   3.516   2.981   2.279  1.6782 -2.3697 -0.1914
15078TIP3    H266726   3.450   2.901   2.169 -0.4324  1.3678 -1.7459
15079TIP3   OH266727   1.722   4.660   1.908 -0.4295  0.0210  0.0372
15079TIP3    H166728   1.788   4.695   1.848 -0.6819  0.9961  0.3125
15079TIP3    H266729   1.768   4.650   1.991 -0.8182  1.4956  0.4515
15080TIP3   OH266730   5.496   4.012   1.482  0.0322  0.1179 -0.3916
15080TIP3    H166731   5.531   4.057   1.405  1.1266  0.5033  0.3214
15080TIP3    H266732   5.555   3.937   1.495 -0.7093 -0.4933 -0.4882
15081TIP3   OH266733   6.463   4.610  13.230  0.2184  0.4567  0.5934
15081TIP3    H166734   6.439   4.584  13.141 -0.2887  1.4998  0.4130
15081TIP3    H266735   6.545   4.658  13.220  0.0036  0.8349  0.6540
15082TIP3   OH266736   1.977   3.785  10.495 -0.2113 -0.1706  0.3837
15082TIP3    H166737   1.890   3.770  10.529 -0.2763 -0.3647  0.1357
15082TIP3    H266738   2.024   3.830  10.565  0.2580 -2.3275  1.4908
15083TIP3   OH266739   5.533   2.723   0.773 -0.2119  0.0965 -0.1279
15083TIP3    H166740   5.517   2.674   0.692 -1.0970 -0.1696  0.2133
15083TIP3    H266741   5.458   2.782   0.781 -1.3958 -1.6083  1.8044
15084TIP3   OH266742   2.020   2.709   1.326 -0.1022 -0.1141 -0.0735
15084TIP3    H166743   2.020   2.719   1.230  0.9448 -1.6972 -0.2713
15084TIP3    H266744   2.023   2.798   1.360  1.7094  0.4381 -1.5692
15085TIP3   OH266745   5.423   0.618   4.147 -0.1758 -0.3436 -0.1135
15085TIP3    H166746   5.488   0.614   4.218  0.6229 -0.0166 -0.8122
15085TIP3    H266747   5.384   0.531   4.145  1.3951 -1.0494 -0.7296
15086TIP3   OH266748   0.942   0.070  12.936  0.0273 -0.4695  0.1772
15086TIP3    H166749   0.941   0.143  12.874  1.0118  1.3753  2.2384
15086TIP3    H266750   0.851   0.040  12.939 -0.2256  0.0887 -1.3478
15087TIP3   OH266751   1.719   2.630   1.425 -0.4186  0.1035  0.2647
15087TIP3    H166752   1.700   2.549   1.379 -0.7584 -0.9099  2.1539
15087TIP3    H266753   1.661   2.695   1.385 -2.2399 -1.2430  0.6825
15088TIP3   OH266754   6.233   4.171  15.310 -0.3610  0.8024 -0.1698
15088TIP3    H166755   6.294   4.109  15.272 -3.7692 -1.5225 -2.1382
15088TIP3    H266756   6.257   4.176  15.402  1.4984 -1.5869 -0.5054
15089TIP3   OH266757   5.718   4.570   6.036  0.8876  0.4680  0.5556
15089TIP3    H166758   5.663   4.508   5.988  1.0598  0.8775 -0.1776
15089TIP3    H266759   5.698   4.655   5.996  1.5370  0.7168  0.7610
15090TIP3   OH266760   5.393   3.969  14.977  0.5295 -0.1500  0.6924
15090TIP3    H166761   5.311   4.005  15.012 -0.7614 -1.5699 -0.7589
15090TIP3    H266762   5.364   3.906  14.911  2.7890 -1.4191  0.8766
15091TIP3   OH266763   5.272   2.885  15.872 -0.0401 -0.3989  0.3014
15091TIP3    H166764   5.257   2.979  15.864  0.1723 -0.4229 -0.4246
15091TIP3    H266765   5.270   2.868  15.966 -0.3404  0.2891  0.4218
15092TIP3   OH266766   4.081   6.602   5.801  0.4734  0.1257  0.3321
15092TIP3    H166767   4.167   6.568   5.825  0.2856  0.2140  1.1208
15092TIP3    H266768   4.086   6.614   5.706  1.1443 -0.3998  0.2989
15093TIP3   OH266769   5.109   0.835  13.241  0.5581  0.5689 -0.0822
15093TIP3    H166770   5.179   0.876  13.293  0.8196 -0.0348  0.0498
15093TIP3    H266771   5.097   0.749  13.282 -0.1686  0.6194 -0.1917
15094TIP3   OH266772   0.956   6.055  14.775  0.4368 -0.2397  0.4544
15094TIP3    H166773   0.950   6.053  14.680  0.8318  0.9527  0.3966
15094TIP3    H266774   0.942   5.964  14.802  0.4287 -0.5997 -0.7407
15095TIP3   OH266775   6.590   1.231   4.146 -0.3917 -0.1406  0.8722
15095TIP3    H166776   6.528   1.303   4.137  2.0753  1.8568 -0.8834
15095TIP3    H266777   6.565   1.169   4.078 -1.9434 -0.5050  1.7651
15096TIP3   OH266778   3.562   5.868  11.458  0.2411  0.0168 -0.0363
15096TIP3    H166779   3.572   5.804  11.387  1.2885  0.5365 -0.3699
15096TIP3    H266780   3.651   5.879  11.493 -0.1697  0.2046  0.9769
15097TIP3   OH266781   1.314   0.944   0.557  0.1331 -0.1264  0.0853
15097TIP3    H166782   1.232   0.979   0.521  0.0562 -0.8311 -0.4364
15097TIP3    H266783   1.382   0.999   0.518 -0.1689  1.4293  1.6875
15098TIP3   OH266784   5.959   5.574  15.055  0.1706 -0.1388  0.5100
15098TIP3    H166785   6.013   5.610  15.125  1.0816 -0.1277 -0.1893
15098TIP3    H266786   6.020   5.522  15.002 -0.1025  1.4449 -1.3878
15099TIP3   OH266787   5.412   0.448  14.241 -0.1648 -0.3062 -0.1505
15099TIP3    H166788   5.504   0.429  14.227  0.4935  1.6711  1.2595
15099TIP3    H266789   5.374   0.364  14.269  1.5485 -0.7586  0.9001
15100TIP3   OH266790   2.485   0.361   5.258  0.2320  0.6605  0.2707
15100TIP3    H166791   2.505   0.282   5.207  2.0136  1.1688  0.1567
15100TIP3    H266792   2.425   0.330   5.326  0.1203 -0.5909 -0.3766
15101TIP3   OH266793   5.322   3.414  12.619 -0.8553  0.6232  0.1727
15101TIP3    H166794   5.377   3.351  12.573 -0.4337  0.4740  0.8751
15101TIP3    H266795   5.232   3.389  12.595 -0.6731  0.0575  0.0622
15102TIP3   OH266796   4.177   0.856  10.902  0.3094  0.0129  0.2951
15102TIP3    H166797   4.177   0.952  10.894  0.2858  0.0333  0.5387
15102TIP3    H266798   4.097   0.828  10.859  0.4382  0.0840  0.0041
15103TIP3   OH266799   2.144   3.471   3.006 -0.4343 -0.4393 -0.2759
15103TIP3    H166800   2.215   3.528   3.037  0.4936  0.6987 -4.1636
15103TIP3    H266801   2.065   3.511   3.041  0.5430  0.6270  0.7749
15104TIP3   OH266802   6.172   0.468   3.390  0.1874 -0.3832  0.2804
15104TIP3    H166803   6.214   0.430   3.467  0.8280  0.0896  0.1737
15104TIP3    H266804   6.088   0.423   3.382  0.2215 -0.5877  1.1251
15105TIP3   OH266805   1.945   2.260   1.426 -0.1518  0.3987 -0.4714
15105TIP3    H166806   2.012   2.192   1.427 -1.5424 -0.9894  0.8292
15105TIP3    H266807   1.990   2.338   1.461  0.0992 -1.2265  3.0857
15106TIP3   OH266808   0.153   0.035  11.836  0.2586 -0.8617  0.0197
15106TIP3    H166809   0.244   0.067  11.831 -0.1456  0.5611  1.4180
15106TIP3    H266810   0.110   0.096  11.895 -1.5303 -1.7725 -0.3275
15107TIP3   OH266811   3.617   5.790   1.414 -0.3707 -0.0855  0.1012
15107TIP3    H166812   3.555   5.844   1.364  1.2671  2.2618  0.5103
15107TIP3    H266813   3.598   5.812   1.506 -1.9971 -2.8482  0.4826
15108TIP3   OH266814   3.788   3.080  11.681  0.2192 -0.9706 -0.0881
15108TIP3    H166815   3.694   3.098  11.681  0.4195  0.3156 -2.1340
15108TIP3    H266816   3.799   3.009  11.619  0.7073 -0.4057 -0.6548
15109TIP3   OH266817   4.853   5.148  11.139 -0.3291  0.0019  0.9490
15109TIP3    H166818   4.836   5.054  11.148 -0.9116  0.1767  1.8298
15109TIP3    H266819   4.813   5.172  11.055 -3.1406  0.0824  2.2380
15110TIP3   OH266820   1.200   2.407  12.708  0.2506  0.0936  0.3887
15110TIP3    H166821   1.193   2.388  12.614 -0.9052 -0.3432  0.5442
15110TIP3    H266822   1.137   2.478  12.723 -0.6184 -0.8065  1.0767
15111TIP3   OH266823   4.924   3.985  17.282 -0.4966 -0.0669  0.0541
15111TIP3    H166824   4.884   4.048  17.341 -1.6894 -2.8464  2.3075
15111TIP3    H266825   5.015   4.014  17.275 -0.7060  1.1709  2.0400
15112TIP3   OH266826   6.414   1.585  16.536  0.2127 -0.0091 -0.0871
15112TIP3    H166827   6.453   1.510  16.492  0.4080  0.0584 -0.0308
15112TIP3    H266828   6.484   1.651  16.537 -0.8492  1.2110 -2.6677
15113TIP3   OH266829   4.327   4.183  12.367  0.0005  0.3276 -0.2076
15113TIP3    H166830   4.394   4.129  12.408  0.1229  0.2034 -0.5683
15113TIP3    H266831   4.264   4.121  12.332  0.3690  0.4012 -1.0113
15114TIP3   OH266832   5.393   6.352   0.912 -0.1345 -0.0872 -0.3819
15114TIP3    H166833   5.450   6.329   0.838 -0.4515  1.6514 -1.1947
15114TIP3    H266834   5.308   6.314   0.889  0.5733 -2.3868  0.6692
15115TIP3   OH266835   0.182   1.743  12.275  0.1156  0.0380  0.0138
15115TIP3    H166836   0.234   1.707  12.347 -0.3531 -1.7071 -0.5006
15115TIP3    H266837   0.141   1.821  12.312  0.9269 -0.1013  1.2395
15116TIP3   OH266838   2.192   1.178  14.983 -0.4015 -0.3811  0.1067
15116TIP3    H166839   2.195   1.134  15.068  0.4658 -0.0504  0.2494
15116TIP3    H266840   2.099   1.179  14.960 -0.6744 -0.1942  1.1908
15117TIP3   OH266841   6.045   3.591  16.601  0.1099 -0.3814 -0.1827
15117TIP3    H166842   6.073   3.532  16.531 -0.3013  0.6530 -1.2328
15117TIP3    H266843   5.986   3.539  16.655  1.7425 -1.6936  0.3551
15118TIP3   OH266844   6.069   4.189   2.706  0.4722  0.0631 -0.3061
15118TIP3    H166845   6.026   4.164   2.787  0.4789 -1.5704 -0.7828
15118TIP3    H266846   6.162   4.178   2.724  0.4789 -0.2042 -0.5009
15119TIP3   OH266847   0.877   1.848   4.360 -0.0517 -0.2013  0.0337
15119TIP3    H166848   0.839   1.760   4.360  1.6212 -0.9588 -1.6801
15119TIP3    H266849   0.820   1.898   4.302 -1.0209 -0.1253  1.0296
15120TIP3   OH266850   5.470   6.543  11.494  0.2266  0.4522 -0.6125
15120TIP3    H166851   5.524   6.573  11.421 -0.2282  1.1123 -0.6870
15120TIP3    H266852   5.399   6.607  11.499 -0.3442 -0.2001 -0.2850
15121TIP3   OH266853   4.925   6.489  11.936  0.0758 -0.3133 -0.3260
15121TIP3    H166854   5.015   6.457  11.936 -0.4480 -1.7967  0.1734
15121TIP3    H266855   4.881   6.436  11.870 -0.0930  1.4353 -1.6670
15122TIP3   OH266856   4.575   4.841  15.497  0.1320 -0.0726  0.2346
15122TIP3    H166857   4.552   4.809  15.583 -1.5794 -0.0985 -0.2089
15122TIP3    H266858   4.669   4.857  15.501  0.2273 -0.9935  1.7870
15123TIP3   OH266859   3.710   0.893  13.158 -0.4415 -0.1495  0.7250
15123TIP3    H166860   3.765   0.817  13.176 -0.2045 -0.4465 -1.1130
15123TIP3    H266861   3.712   0.944  13.239 -0.8291 -2.2139  2.0903
15124TIP3   OH266862   3.527   4.313  11.070  0.2756  0.4842  0.1816
15124TIP3    H166863   3.460   4.354  11.124  0.9570  0.9431  0.6967
15124TIP3    H266864   3.566   4.385  11.020  0.3756  0.2203 -0.1225
15125TIP3   OH266865   3.312   3.111   3.528 -0.2798  0.5339  0.3182
15125TIP3    H166866   3.225   3.095   3.493 -0.0880  3.1333 -1.5646
15125TIP3    H266867   3.351   3.024   3.539 -2.0776 -0.5431 -1.5449
15126TIP3   OH266868   6.407   3.792  14.005  0.2870 -0.0464 -0.0617
15126TIP3    H166869   6.473   3.729  14.035 -0.1945 -0.4697  0.1297
15126TIP3    H266870   6.355   3.744  13.941  0.8756  0.6460 -1.0683
15127TIP3   OH266871   3.206   1.791   0.532  0.1907  0.4299 -0.0073
15127TIP3    H166872   3.121   1.793   0.577  0.2852 -0.4833  0.2267
15127TIP3    H266873   3.184   1.776   0.440  0.0851  0.5799 -0.0076
15128TIP3   OH266874   3.026   5.588   0.015 -0.2586 -1.2683 -0.0045
15128TIP3    H166875   3.105   5.606   0.066  0.4208 -1.1792 -1.0681
15128TIP3    H266876   2.975   5.529   0.070  0.1907 -0.7099  1.0278
15129TIP3   OH266877   1.043   5.943   1.066  0.0114 -0.2501  0.0179
15129TIP3    H166878   1.098   5.866   1.056  1.3020  0.6610  0.0269
15129TIP3    H266879   1.087   5.995   1.134 -0.3747  0.9135 -0.6145
15130TIP3   OH266880   1.766   4.581  15.832  0.6117  0.0399 -0.0619
15130TIP3    H166881   1.791   4.620  15.916  0.9393  0.8760 -0.5383
15130TIP3    H266882   1.710   4.507  15.856  2.1289 -0.7971  0.9416
15131TIP3   OH266883   4.038   5.839   6.701  0.0003  0.0116 -0.0000
15131TIP3    H166884   4.083   5.783   6.638  0.2667  0.4540 -0.2069
15131TIP3    H266885   3.956   5.794   6.719 -0.4741  0.3066 -1.3364
15132TIP3   OH266886   3.739   1.139   5.208  0.4643  0.5027 -0.2523
15132TIP3    H166887   3.701   1.051   5.205  2.8793 -0.5514 -0.8242
15132TIP3    H266888   3.666   1.195   5.236 -1.2655 -1.5696 -0.4589
15133TIP3   OH266889   5.822   3.746  15.580 -0.3700  0.5235 -0.3204
15133TIP3    H166890   5.751   3.801  15.612  1.5750  2.2809  1.0806
15133TIP3    H266891   5.828   3.675  15.643  0.4976  1.5534  0.7878
15134TIP3   OH266892   4.505   0.836  16.374  0.1068 -0.1510 -0.3281
15134TIP3    H166893   4.592   0.802  16.397  0.9778  0.8498 -2.0324
15134TIP3    H266894   4.523   0.910  16.316 -1.9135 -0.3336 -1.2173
15135TIP3   OH266895   4.373   2.685   0.833 -0.3623 -0.0210  0.3183
15135TIP3    H166896   4.464   2.685   0.863 -0.4916  1.7443  0.7839
15135TIP3    H266897   4.339   2.770   0.862 -1.4666  0.3180 -1.9232
15136TIP3   OH266898   5.937   4.120  11.347 -0.1406 -0.3885  0.4933
15136TIP3    H166899   5.977   4.142  11.263  0.7121  1.4381  1.3413
15136TIP3    H266900   6.004   4.070  11.393  0.0950  0.1989  0.7949
15137TIP3   OH266901   1.507   6.109  13.567 -0.1861  0.3252 -0.4869
15137TIP3    H166902   1.433   6.133  13.623 -0.8884 -3.5244  0.3389
15137TIP3    H266903   1.583   6.116  13.624 -0.2438  1.3537 -0.5168
15138TIP3   OH266904   0.632   3.269  13.654  0.7168  0.0637  0.9896
15138TIP3    H166905   0.626   3.354  13.609  0.3534 -0.2098  0.5113
15138TIP3    H266906   0.615   3.205  13.585 -0.7924 -0.3314  1.7014
15139TIP3   OH266907   3.463   5.823   5.531  0.0557  0.5103 -0.0554
15139TIP3    H166908   3.538   5.828   5.472 -0.5303 -0.0178 -0.8594
15139TIP3    H266909   3.442   5.914   5.551  2.0037  0.6514  1.6169
15140TIP3   OH266910   0.773   2.193  16.501  0.0903  0.5598  0.0980
15140TIP3    H166911   0.761   2.256  16.572 -1.0575 -0.3981  0.7672
15140TIP3    H266912   0.815   2.118  16.543  1.1226  0.7238 -0.6257
15141TIP3   OH266913   0.892   6.101  12.840  0.1143 -0.3495  0.1192
15141TIP3    H166914   0.884   6.127  12.748  1.6001  0.4534  0.2063
15141TIP3    H266915   0.811   6.054  12.858 -1.1540  1.3354 -0.9969
15142TIP3   OH266916   5.633   5.046  13.361  0.2116 -0.0099 -0.0463
15142TIP3    H166917   5.680   5.024  13.280  0.2213 -1.0175  0.2236
15142TIP3    H266918   5.639   5.141  13.367 -1.6556  0.3078 -2.3628
15143TIP3   OH266919   3.111   2.900   4.918 -0.4440 -0.0631 -0.6650
15143TIP3    H166920   3.168   2.977   4.916  3.9263 -2.8724  2.8981
15143TIP3    H266921   3.138   2.849   4.842 -1.3863  0.6754 -1.4924
15144TIP3   OH266922   5.116   1.853  14.297  0.2264 -0.1063 -0.4099
15144TIP3    H166923   5.110   1.827  14.205  1.2787  0.9990 -0.8104
15144TIP3    H266924   5.203   1.893  14.305  0.3413 -0.6210  1.1795
15145TIP3   OH266925   2.357   6.092   4.083  0.3640 -0.3663 -0.4875
15145TIP3    H166926   2.422   6.149   4.043  0.9119 -1.0521 -0.5788
15145TIP3    H266927   2.405   6.044   4.150 -0.1893 -0.4164 -0.1200
15146TIP3   OH266928   0.733   3.777   5.252 -0.1596 -0.6994  0.1870
15146TIP3    H166929   0.672   3.825   5.308  0.2617 -0.5503  0.5173
15146TIP3    H266930   0.816   3.778   5.300  0.7343  1.1819 -1.3484
15147TIP3   OH266931   4.260   1.159  12.254  0.1714 -0.1330  0.0580
15147TIP3    H166932   4.339   1.124  12.213  2.1628  3.3782  0.7429
15147TIP3    H266933   4.203   1.182  12.181  0.8511 -0.2277 -0.5051
15148TIP3   OH266934   0.312   1.437  12.481  1.0817 -0.0820  0.0121
15148TIP3    H166935   0.356   1.513  12.518  2.2725 -0.2659 -0.9758
15148TIP3    H266936   0.314   1.371  12.550  0.4262  0.6367  0.7217
15149TIP3   OH266937   4.885   5.858  12.192  0.3863  0.8896 -0.7873
15149TIP3    H166938   4.916   5.948  12.201 -0.8113  1.3737 -1.4542
15149TIP3    H266939   4.827   5.845  12.268  2.3605 -0.0880  0.5875
15150TIP3   OH266940   3.050   6.065   5.435  0.0443  0.7135 -0.2127
15150TIP3    H166941   3.138   6.041   5.462  0.3993  1.7001 -0.4565
15150TIP3    H266942   3.020   5.991   5.382  0.3717 -0.0302  0.6293
15151TIP3   OH266943   3.500   5.059   2.368  0.7538 -0.7330 -0.0815
15151TIP3    H166944   3.440   5.127   2.398 -1.5103 -2.6562 -0.1048
15151TIP3    H266945   3.561   5.105   2.310 -1.0986  1.1755 -0.5853
15152TIP3   OH266946   1.347   6.687   4.793  0.4175  0.1840  0.4054
15152TIP3    H166947   1.353   6.605   4.843  0.4866  0.3720  0.7039
15152TIP3    H266948   1.424   6.737   4.820  0.8345 -0.0075 -0.4133
15153TIP3   OH266949   0.355   4.486   4.903  0.4204 -0.0952 -0.2127
15153TIP3    H166950   0.376   4.422   4.972  1.2228 -1.1200 -1.3827
15153TIP3    H266951   0.398   4.451   4.825  0.4638  1.6435 -0.9773
15154TIP3   OH266952   3.278   1.300  11.620  0.9305  0.1878  0.3517
15154TIP3    H166953   3.321   1.318  11.536 -1.5522 -1.6323 -1.4010
15154TIP3    H266954   3.224   1.377  11.636 -3.7437 -2.0644 -3.2391
15155TIP3   OH266955   3.515   6.553   4.676  0.6283 -0.0284 -0.1742
15155TIP3    H166956   3.587   6.492   4.696  1.1867  0.5871 -0.2827
15155TIP3    H266957   3.464   6.557   4.756  1.8409  1.0436  0.5688
15156TIP3   OH266958   2.616   5.556  12.005 -0.3368 -0.0192  0.0995
15156TIP3    H166959   2.668   5.633  12.026  1.2006 -0.7687 -0.9368
15156TIP3    H266960   2.680   5.487  11.986 -1.6680 -0.8500 -1.5632
15157TIP3   OH266961   2.594   6.304  16.527  0.4128 -0.0996  0.1079
15157TIP3    H166962   2.554   6.278  16.444 -0.0416 -1.9321  0.8753
15157TIP3    H266963   2.551   6.386  16.551  0.3421  0.2848 -1.3162
15158TIP3   OH266964   4.416   1.796   6.261  0.3988  0.3105  0.4183
15158TIP3    H166965   4.386   1.836   6.342 -0.0284 -0.0152  0.4202
15158TIP3    H266966   4.419   1.867   6.197  2.0484  0.8518  1.0700
15159TIP3   OH266967   6.378   5.980   4.497 -0.1797  0.4693 -0.4410
15159TIP3    H166968   6.292   6.016   4.517  0.3809  0.1811  2.7374
15159TIP3    H266969   6.437   6.024   4.559  1.4339 -1.6521 -0.4332
15160TIP3   OH266970   2.330   4.763  14.846  0.2900 -0.2037 -0.6700
15160TIP3    H166971   2.302   4.814  14.922  0.5895 -0.2122 -0.5562
15160TIP3    H266972   2.315   4.822  14.772 -1.3731 -0.7062 -0.7655
15161TIP3   OH266973   3.655   0.038   4.343 -0.0947  0.5171 -0.5381
15161TIP3    H166974   3.584   0.081   4.294 -0.2236  0.0926 -0.7218
15161TIP3    H266975   3.676  -0.040   4.292 -0.3666 -0.0328  0.1877
15162TIP3   OH266976   3.456   1.693   2.773  0.7534  0.2687  0.6159
15162TIP3    H166977   3.492   1.654   2.693  0.1755  0.8997  0.0454
15162TIP3    H266978   3.403   1.623   2.812 -1.5405  0.9344 -1.2080
15163TIP3   OH266979   0.434   0.702  14.875 -0.3843  0.4455  0.2900
15163TIP3    H166980   0.485   0.690  14.795 -0.6405 -0.0522  0.2028
15163TIP3    H266981   0.414   0.795  14.877  1.2349  0.8092  0.7401
15164TIP3   OH266982   3.996   5.381   4.960  0.5225  0.5977  0.5392
15164TIP3    H166983   4.048   5.433   5.021  1.3179  2.1649 -1.4017
15164TIP3    H266984   4.058   5.350   4.895 -0.4315 -0.3948  0.0781
15165TIP3   OH266985   2.930   2.999  13.007 -0.0292 -0.4571  0.0644
15165TIP3    H166986   2.850   2.969  13.051 -1.1999 -0.3183 -1.9149
15165TIP3    H266987   2.962   3.071  13.063 -0.5681 -1.3405  1.5502
15166TIP3   OH266988   1.337   2.603  17.014 -0.5561  0.1446 -0.2053
15166TIP3    H166989   1.265   2.541  17.001 -0.5118 -0.1811  1.0236
15166TIP3    H266990   1.300   2.669  17.073 -0.4105  0.9698 -1.0231
15167TIP3   OH266991   2.546   5.045  16.256 -0.0854 -0.3628 -0.2754
15167TIP3    H166992   2.508   5.014  16.339  0.5371  0.4968  0.3448
15167TIP3    H266993   2.500   4.995  16.189 -2.5597  0.8802  0.4150
15168TIP3   OH266994   3.357   3.539   6.645 -0.3591 -0.2963 -0.0456
15168TIP3    H166995   3.322   3.480   6.712 -0.0712 -0.0431  0.3260
15168TIP3    H266996   3.402   3.481   6.584 -0.1182 -0.4646  0.2939
15169TIP3   OH266997   2.161   6.510   5.359  0.4882  0.3268 -0.0763
15169TIP3    H166998   2.151   6.604   5.350  0.8851  0.2657 -1.2300
15169TIP3    H266999   2.082   6.473   5.321  0.4528  0.1831  0.1336
15170TIP3   OH267000   2.022   5.263  11.328 -0.8313 -0.1630  0.4069
15170TIP3    H167001   2.091   5.198  11.335 -0.9209 -0.1953  1.0615
15170TIP3    H267002   1.942   5.212  11.312 -0.6826 -0.1146 -0.4953
15171TIP3   OH267003   5.384   5.421  12.489 -0.0234 -0.7839 -0.3836
15171TIP3    H167004   5.413   5.458  12.573 -1.0078 -1.1348  0.1117
15171TIP3    H267005   5.349   5.496  12.441 -0.2569 -0.7296 -0.1329
15172TIP3   OH267006   5.526   6.702  16.879 -0.5316  0.0242  0.2715
15172TIP3    H167007   5.499   6.622  16.835 -0.3836 -0.0667  0.3452
15172TIP3    H267008   5.605   6.678  16.926  0.5249  0.6565 -1.1383
15173TIP3   OH267009   2.547   2.802  16.714 -0.1631  0.4416  0.0782
15173TIP3    H167010   2.624   2.855  16.736  0.7713 -1.5716  1.8324
15173TIP3    H267011   2.476   2.841  16.765 -0.2744  2.0926 -1.2858
15174TIP3   OH267012   0.393   1.102   2.758  0.4954 -0.4807  0.1909
15174TIP3    H167013   0.422   1.055   2.836 -2.1919 -2.6667 -0.0882
15174TIP3    H267014   0.475   1.125   2.713  2.0007 -1.0267  2.5583
15175TIP3   OH267015   3.367   1.763   3.503  0.0343  0.4344 -0.0198
15175TIP3    H167016   3.355   1.702   3.430  2.5113 -0.2539  0.1013
15175TIP3    H267017   3.416   1.836   3.465 -0.6116  1.1306  0.4586
15176TIP3   OH267018   3.933   4.831  11.406  0.1668  0.5047  0.4785
15176TIP3    H167019   3.984   4.759  11.443 -1.1212  0.2539  1.8470
15176TIP3    H267020   3.947   4.825  11.312  1.8700 -0.1432  0.7686
15177TIP3   OH267021   0.478   1.080   3.021  0.0096 -0.0176 -0.5589
15177TIP3    H167022   0.502   1.024   3.095 -2.2426  0.9199  0.9485
15177TIP3    H267023   0.528   1.161   3.036 -0.6092  0.2504  0.0498
15178TIP3   OH267024   3.882   0.312  10.957 -0.7063  0.4139  0.2393
15178TIP3    H167025   3.939   0.341  10.886 -1.2203 -0.7092 -0.6564
15178TIP3    H267026   3.834   0.390  10.983 -1.2604  0.6468 -1.3726
15179TIP3   OH267027   2.176   2.625   4.057  0.2517 -0.3768 -0.1809
15179TIP3    H167028   2.255   2.615   4.109  0.7940 -0.1437 -0.9566
15179TIP3    H267029   2.202   2.680   3.983 -1.3112  2.0281  0.9944
15180TIP3   OH267030   4.524   6.518  14.252 -0.3183  0.4607 -0.2922
15180TIP3    H167031   4.546   6.496  14.342 -0.6101 -0.8883 -0.5316
15180TIP3    H267032   4.608   6.515  14.205 -0.0949  1.6416  0.0181
15181TIP3   OH267033   1.277   5.311   5.849  0.3794  0.0919  0.2082
15181TIP3    H167034   1.294   5.324   5.755 -0.9797  1.0344  0.0862
15181TIP3    H267035   1.364   5.300   5.887  0.9426 -0.4959 -1.1841
15182TIP3   OH267036   6.571   3.431   4.426  0.5410  0.2622  0.0409
15182TIP3    H167037   6.481   3.458   4.446  0.7384  0.5271  0.5774
15182TIP3    H267038   6.603   3.393   4.507  0.8028 -0.1356 -0.2497
15183TIP3   OH267039   0.139   5.914  15.033  0.3489 -0.8965  0.1225
15183TIP3    H167040   0.211   5.947  15.087  0.9286  2.5510 -2.5905
15183TIP3    H267041   0.176   5.840  14.986  0.9805 -1.4735  1.4943
15184TIP3   OH267042   1.815   5.842   6.062 -0.1109 -0.0261 -0.3894
15184TIP3    H167043   1.867   5.793   5.999 -1.5336 -1.9591 -0.1423
15184TIP3    H267044   1.724   5.820   6.039 -0.6846  0.5484  1.2868
15185TIP3   OH267045   0.698   2.762   1.592 -0.7304 -0.0672 -0.3929
15185TIP3    H167046   0.727   2.672   1.609  1.7398  0.9570  1.2386
15185TIP3    H267047   0.643   2.784   1.667 -0.2514  0.2059 -0.1172
15186TIP3   OH267048   1.218   3.884   5.531  0.3081  0.3173 -0.0042
15186TIP3    H167049   1.241   3.819   5.465  1.2140  0.0267  0.5987
15186TIP3    H267050   1.257   3.966   5.499 -0.9633  0.6166 -0.8406
15187TIP3   OH267051   5.864   4.744   3.191  0.8407 -0.2547  0.2201
15187TIP3    H167052   5.925   4.676   3.222  1.9574  0.5178 -0.2620
15187TIP3    H267053   5.918   4.823   3.184 -0.1255  0.3383 -0.6379
15188TIP3   OH267054   4.563   1.875   3.952  0.1679 -0.2347 -0.0560
15188TIP3    H167055   4.615   1.955   3.942  1.0896 -0.7687  0.4112
15188TIP3    H267056   4.610   1.810   3.898 -0.3345 -0.5700 -0.0885
15189TIP3   OH267057   3.870   2.338  15.709  0.3173 -0.3969  0.5372
15189TIP3    H167058   3.827   2.416  15.745 -0.6834 -1.6620  2.1449
15189TIP3    H267059   3.962   2.363  15.700 -0.1307  1.2069  0.3391
15190TIP3   OH267060   5.667   2.705   5.612 -0.0827 -0.3644  0.6508
15190TIP3    H167061   5.665   2.799   5.629  1.7518  0.1710 -1.7384
15190TIP3    H267062   5.576   2.682   5.592 -0.7061  0.6994  2.2312
15191TIP3   OH267063   3.828   3.990   0.056  0.6719 -0.1910  0.1658
15191TIP3    H167064   3.776   3.914   0.082 -1.1755  0.7293 -0.7648
15191TIP3    H267065   3.764   4.057   0.032  2.2766  1.3526  0.0519
15192TIP3   OH267066   2.346   3.426   5.680 -0.0852 -0.0322 -0.2264
15192TIP3    H167067   2.378   3.337   5.696 -1.6218 -1.2457 -3.5414
15192TIP3    H267068   2.286   3.443   5.753  0.5258 -1.5324  0.6526
15193TIP3   OH267069   4.352   0.203  10.679  0.6948  0.1729  0.1183
15193TIP3    H167070   4.378   0.200  10.771  0.8251 -2.5859  0.0113
15193TIP3    H267071   4.434   0.206  10.630  0.6425  0.2408  0.0316
15194TIP3   OH267072   1.959   1.864  16.099  0.1633  0.5369  0.4161
15194TIP3    H167073   2.026   1.815  16.052 -0.5116  1.2658 -1.3779
15194TIP3    H267074   1.952   1.821  16.184  2.2637 -0.0934  0.3010
15195TIP3   OH267075   6.449   4.269  13.199 -0.4645  0.0021  0.3757
15195TIP3    H167076   6.390   4.343  13.214 -0.5130 -0.1716  1.0698
15195TIP3    H267077   6.391   4.192  13.196 -0.4286  0.0003 -0.4671
15196TIP3   OH267078   3.513   4.814   6.145 -0.0773 -0.1354  0.1698
15196TIP3    H167079   3.540   4.906   6.155  0.3084 -0.3117  0.7552
15196TIP3    H267080   3.551   4.769   6.221 -3.2621 -0.1356  1.8451
15197TIP3   OH267081   3.321   1.843   2.587 -0.6918  0.0822  0.0633
15197TIP3    H167082   3.383   1.807   2.650 -0.8001 -1.5952 -0.7743
15197TIP3    H267083   3.253   1.776   2.578  0.6201 -0.8407 -3.7220
15198TIP3   OH267084   3.887   5.666   4.632 -0.1710 -0.0223 -0.3301
15198TIP3    H167085   3.848   5.588   4.671  1.0204 -0.1255  0.6852
15198TIP3    H267086   3.835   5.739   4.666 -0.6566 -0.2936 -0.4862
15199TIP3   OH267087   5.812   4.780   0.926 -0.0628 -0.6075 -0.3533
15199TIP3    H167088   5.743   4.718   0.903 -0.0643 -1.1805  1.1914
15199TIP3    H267089   5.835   4.759   1.016  0.5582  1.0639 -0.1085
15200TIP3   OH267090   3.117   3.421   5.155 -0.1667  0.5377  0.9019
15200TIP3    H167091   3.198   3.441   5.108 -0.2376 -2.5124 -0.6315
15200TIP3    H267092   3.134   3.448   5.245  2.9175 -0.8659  0.8072
15201TIP3   OH267093   3.789   5.213   5.032 -0.0757 -0.4278 -0.4169
15201TIP3    H167094   3.859   5.264   4.991 -1.7928  1.3954 -1.1604
15201TIP3    H267095   3.800   5.125   4.997  2.8121 -0.5776  0.7312
15202TIP3   OH267096   5.290   4.264  17.052  0.3868 -0.0843  0.1678
15202TIP3    H167097   5.354   4.194  17.056  2.0753  1.4464  0.7428
15202TIP3    H267098   5.258   4.263  16.962  0.0127 -1.8996  0.3144
15203TIP3   OH267099   1.490   1.918  13.045 -0.1629 -0.0177 -0.2240
15203TIP3    H167100   1.536   1.858  13.104 -1.2224 -0.6311 -0.0151
15203TIP3    H267101   1.485   1.871  12.962 -0.8385 -0.1444 -0.1093
15204TIP3   OH267102   0.702   1.315  13.650  0.2271  0.5250  0.5183
15204TIP3    H167103   0.652   1.310  13.569 -1.3901  0.1363  1.5133
15204TIP3    H267104   0.778   1.369  13.628 -0.8101  1.4376 -0.9334
15205TIP3   OH267105   6.772   1.396   0.939  0.3106  0.3006 -0.0758
15205TIP3    H167106   6.789   1.345   0.860 -0.7835 -1.3565  0.7260
15205TIP3    H267107   6.842   1.370   1.000 -0.0950 -0.0791  0.2387
15206TIP3   OH267108   5.312   2.372   5.182  0.0511 -0.2805  0.0171
15206TIP3    H167109   5.225   2.350   5.149  0.4274  1.1198 -2.0202
15206TIP3    H267110   5.304   2.370   5.277 -2.7490  1.9965 -0.1323
15207TIP3   OH267111   6.220   4.771  15.601  0.4824  0.5250  0.2488
15207TIP3    H167112   6.257   4.800  15.518 -0.5015 -2.4662 -1.3085
15207TIP3    H267113   6.253   4.682  15.612  0.4873  0.8312  3.0124
15208TIP3   OH267114   4.433   3.039   5.715  0.4720  0.7871 -0.6887
15208TIP3    H167115   4.431   3.090   5.634  1.2815  1.1695 -0.4787
15208TIP3    H267116   4.404   3.099   5.783 -0.7076  0.3176 -0.7562
15209TIP3   OH267117   6.613   1.598   0.472 -0.5436  0.6545 -0.2202
15209TIP3    H167118   6.682   1.659   0.448  1.5626 -1.1643  1.0186
15209TIP3    H267119   6.617   1.528   0.406  0.5113 -0.7312  1.2760
15210TIP3   OH267120   3.031   0.197  11.795  0.0327 -0.4322 -0.2319
15210TIP3    H167121   3.031   0.292  11.783  0.9208 -0.6270 -1.8705
15210TIP3    H267122   3.034   0.161  11.707 -5.7022 -2.1161  0.0761
15211TIP3   OH267123   3.672   0.955   0.561 -0.1061 -0.2681  0.6466
15211TIP3    H167124   3.674   0.866   0.527 -0.7572 -0.3780  0.8951
15211TIP3    H267125   3.764   0.980   0.570  0.0977 -1.4307  1.9225
15212TIP3   OH267126   6.059   3.285  13.471 -0.2996 -0.0889 -0.0694
15212TIP3    H167127   6.149   3.303  13.445 -0.4297 -0.4067 -0.7466
15212TIP3    H267128   6.066   3.246  13.558  0.3201 -1.6937 -0.8300
15213TIP3   OH267129   0.523   5.521  17.265 -0.0761 -0.0602  0.1668
15213TIP3    H167130   0.513   5.548  17.174 -1.3891 -0.5678  0.1451
15213TIP3    H267131   0.506   5.600  17.316  1.4273  0.4128 -0.0344
15214TIP3   OH267132   3.728   0.943   5.807 -0.6324  0.0696 -0.5634
15214TIP3    H167133   3.771   0.860   5.828 -3.0991 -1.0734  0.2319
15214TIP3    H267134   3.782   0.982   5.738  2.5894 -0.4490  1.5723
15215TIP3   OH267135   0.662   3.333  17.062 -0.5765  0.5016  0.2267
15215TIP3    H167136   0.646   3.403  17.125 -0.1552  0.2324  0.6340
15215TIP3    H267137   0.616   3.257  17.098 -1.5022  0.7120 -0.4960
15216TIP3   OH267138   2.953   3.514   2.901  0.2272 -0.4660  0.0271
15216TIP3    H167139   2.874   3.460   2.892  0.0033 -0.5059  1.9404
15216TIP3    H267140   3.004   3.496   2.822 -1.1547 -1.3086 -0.6939
15217TIP3   OH267141   3.143   6.741  16.688  1.1418 -0.0786 -0.1065
15217TIP3    H167142   3.202   6.791  16.632  1.0801 -0.4081 -0.4713
15217TIP3    H267143   3.179   6.652  16.688  0.0900 -0.5132 -1.1358
15218TIP3   OH267144   0.112   2.447   1.081  0.3561 -0.3592 -0.3194
15218TIP3    H167145   0.063   2.413   1.156 -0.7298 -0.0866 -0.8854
15218TIP3    H267146   0.050   2.441   1.008 -0.6164  4.7223 -0.0599
15219TIP3   OH267147   4.741   2.801   5.609  0.3682  0.0071  0.1499
15219TIP3    H167148   4.835   2.785   5.614  0.2479 -1.7626 -2.7720
15219TIP3    H267149   4.734   2.895   5.591  1.6452 -0.1597 -1.3114
15220TIP3   OH267150   6.663   2.085  17.219 -0.6845  0.4145 -0.2995
15220TIP3    H167151   6.703   2.088  17.132  0.7534  1.2352  0.3556
15220TIP3    H267152   6.700   2.006  17.259  0.6422  1.3853  0.4515
15221TIP3   OH267153   4.538   1.924   2.587  0.3110  0.3901  0.2670
15221TIP3    H167154   4.461   1.900   2.638  0.6070  0.4617  0.7551
15221TIP3    H267155   4.523   1.886   2.501  0.0151 -0.1227  0.5426
15222TIP3   OH267156   0.991   6.161   1.529  0.4160 -0.2714 -0.3125
15222TIP3    H167157   1.015   6.223   1.598  0.0014  0.0895 -0.4876
15222TIP3    H267158   0.896   6.171   1.520  0.2747 -1.2817 -0.0075
15223TIP3   OH267159   2.397   0.601  11.201  0.8218  0.4160  0.3844
15223TIP3    H167160   2.488   0.571  11.194  0.5105 -0.0721 -2.3200
15223TIP3    H267161   2.395   0.682  11.151 -0.4314 -0.0632 -0.3654
15224TIP3   OH267162   4.188   6.642   3.812 -0.1121  0.3323  0.2057
15224TIP3    H167163   4.237   6.649   3.730 -0.7667 -0.4467 -0.2620
15224TIP3    H267164   4.097   6.657   3.787 -0.5748 -1.8970  0.4368
15225TIP3   OH267165   2.721   2.556   1.252  0.3500 -0.2606 -0.4663
15225TIP3    H167166   2.627   2.556   1.269  0.4311 -0.3439 -0.0237
15225TIP3    H267167   2.747   2.647   1.260  0.4156 -0.3206  0.0037
15226TIP3   OH267168   5.381   3.109   4.612  0.3198 -0.3817  0.0788
15226TIP3    H167169   5.308   3.138   4.665 -1.2023 -1.4524 -1.3873
15226TIP3    H267170   5.382   3.169   4.537 -0.5459 -1.8054 -1.0965
15227TIP3   OH267171   2.648   5.000  13.231  0.1441 -0.3409 -0.6077
15227TIP3    H167172   2.601   5.082  13.249 -0.5634 -1.2091  1.8060
15227TIP3    H267173   2.613   4.970  13.148 -2.1797  0.0640  0.1741
15228TIP3   OH267174   4.717   0.711  15.249 -0.5438  0.3568  0.0380
15228TIP3    H167175   4.638   0.683  15.202 -0.8863  0.0068  0.8088
15228TIP3    H267176   4.781   0.729  15.181 -0.5862 -1.4686 -0.5219
15229TIP3   OH267177   4.186   1.869  13.372 -0.0418  0.6184  0.0123
15229TIP3    H167178   4.222   1.956  13.388  1.5507 -0.4095  2.3977
15229TIP3    H267179   4.260   1.818  13.338 -0.1365 -0.5431  1.4506
15230TIP3   OH267180   2.519   2.599   4.534 -0.1020  0.1808 -0.1193
15230TIP3    H167181   2.568   2.674   4.498  0.7775  0.0984  0.8798
15230TIP3    H267182   2.546   2.525   4.479 -0.8963  0.5665 -1.0484
15231TIP3   OH267183   1.838   3.306   2.438  0.6671  0.5291  0.5498
15231TIP3    H167184   1.763   3.358   2.468  0.8594  0.4116  1.2542
15231TIP3    H267185   1.891   3.294   2.517  1.6326  0.9476 -0.0317
15232TIP3   OH267186   0.610   1.700   3.186  0.0477 -0.4076  0.4638
15232TIP3    H167187   0.583   1.786   3.154 -0.4419 -0.5977  0.3642
15232TIP3    H267188   0.702   1.711   3.210  0.0633  0.0692  0.1856
15233TIP3   OH267189   0.070   2.919   3.715 -0.0591  0.6141 -0.3476
15233TIP3    H167190   0.036   2.941   3.629 -0.2286 -1.9585 -0.9939
15233TIP3    H267191  -0.008   2.895   3.766  0.3600 -1.4570 -0.6338
15234TIP3   OH267192   4.381   6.003  11.728  0.5195 -0.2210  0.0388
15234TIP3    H167193   4.360   5.920  11.686  1.8241 -1.1891  1.2289
15234TIP3    H267194   4.470   6.024  11.698 -0.2247  1.3409 -1.1563
15235TIP3   OH267195   3.492   3.186   1.924  0.2781  0.5903  0.8320
15235TIP3    H167196   3.493   3.179   2.020 -0.3505 -0.2640  0.7818
15235TIP3    H267197   3.428   3.254   1.906 -0.1151  0.2710  1.0009
15236TIP3   OH267198   3.053   4.701  15.284  0.8208  0.4193 -0.2208
15236TIP3    H167199   3.060   4.796  15.288  0.3191  0.4419  0.2489
15236TIP3    H267200   2.958   4.684  15.280  0.9113 -0.0497 -0.3923
15237TIP3   OH267201   6.758   0.351  13.221 -0.7491  0.0912 -0.1413
15237TIP3    H167202   6.797   0.414  13.281 -0.5486  0.9247 -1.1295
15237TIP3    H267203   6.755   0.397  13.137  1.7552 -2.1012 -1.4984
15238TIP3   OH267204   2.933   6.782  12.818  0.4203  0.2834 -0.1705
15238TIP3    H167205   2.927   6.844  12.745  1.1220  0.7191  0.1310
15238TIP3    H267206   2.853   6.797  12.869 -1.2392 -1.6771 -2.1177
15239TIP3   OH267207   1.798   4.018  10.855 -0.5199  0.5769  0.0401
15239TIP3    H167208   1.787   3.950  10.789 -0.2545  2.3889 -1.9372
15239TIP3    H267209   1.726   4.003  10.917 -0.0138 -1.9323  0.0741
15240TIP3   OH267210   5.546   0.775   3.980  0.1914 -0.0828  0.1556
15240TIP3    H167211   5.496   0.711   4.030 -0.5155  1.3037  1.2550
15240TIP3    H267212   5.582   0.835   4.046  0.9720  0.5643 -0.8321
15241TIP3   OH267213   0.979   3.661   5.373  0.1481 -0.1084  0.0238
15241TIP3    H167214   0.948   3.628   5.289  0.6640 -0.1712 -0.1452
15241TIP3    H267215   1.003   3.583   5.422 -0.1279 -0.0702  0.2176
15242TIP3   OH267216   2.180   3.593  16.828 -0.3286  0.0189  0.4242
15242TIP3    H167217   2.230   3.644  16.764  0.2429  0.1703  0.9834
15242TIP3    H267218   2.101   3.565  16.780  1.2298 -1.9267 -1.0810
15243TIP3   OH267219   3.172   2.523   4.600 -0.0323  0.5456  0.5351
15243TIP3    H167220   3.137   2.612   4.608 -0.8619  0.1372  1.5103
15243TIP3    H267221   3.235   2.515   4.672  0.4033  0.4999  0.1538
15244TIP3   OH267222   4.501   0.838  15.724 -0.2696  0.6566  0.3396
15244TIP3    H167223   4.435   0.811  15.788 -0.1938  0.5192  0.3587
15244TIP3    H267224   4.562   0.892  15.775 -0.3277  0.7260  0.3360
15245TIP3   OH267225   4.440   6.720   5.597  0.4389  0.2117 -0.0421
15245TIP3    H167226   4.471   6.630   5.589 -0.0233  0.1421 -1.2531
15245TIP3    H267227   4.496   6.759   5.663  0.3336 -1.1018  0.8454
15246TIP3   OH267228   1.677   3.890  12.742 -0.3197 -0.5525  0.0595
15246TIP3    H167229   1.584   3.873  12.730 -0.5915  0.3534  0.8750
15246TIP3    H267230   1.712   3.896  12.653 -1.3895  1.0272 -0.2663
15247TIP3   OH267231   0.819   1.676   0.125  0.3645  0.0947  0.0948
15247TIP3    H167232   0.740   1.631   0.095 -0.4806  0.8085  1.2200
15247TIP3    H267233   0.863   1.704   0.045  0.5542 -2.1111 -0.6044
15248TIP3   OH267234   1.726   6.056   6.242 -0.4629  0.1290  0.1235
15248TIP3    H167235   1.637   6.078   6.215 -0.7215 -0.5507  0.4283
15248TIP3    H267236   1.752   5.986   6.183 -0.8629 -1.0523  1.3295
15249TIP3   OH267237   2.666   5.741  15.139 -0.4253 -0.0422  0.0603
15249TIP3    H167238   2.751   5.731  15.183 -0.1842  1.1539 -0.1291
15249TIP3    H267239   2.614   5.668  15.172  0.0712  0.2798  1.6056
15250TIP3   OH267240   5.054   4.613   1.327  0.6213 -0.3789  0.3985
15250TIP3    H167241   5.023   4.608   1.237 -0.7082 -1.3837  0.8981
15250TIP3    H267242   5.149   4.624   1.319  0.3088  1.4273 -1.1249
15251TIP3   OH267243   1.361   0.008   5.939  0.6698  0.6230 -0.8798
15251TIP3    H167244   1.302  -0.064   5.918  0.7043  0.2620  0.2623
15251TIP3    H267245   1.320   0.085   5.898 -0.7099  0.4153  0.0823
15252TIP3   OH267246   2.307   4.809  17.091 -0.0950  0.0067  0.3156
15252TIP3    H167247   2.359   4.871  17.142 -1.5897  1.3349  0.2986
15252TIP3    H267248   2.228   4.795  17.144 -0.6575 -0.3324 -0.5948
15253TIP3   OH267249   4.781   0.963   3.122  0.0003 -0.4878  1.0180
15253TIP3    H167250   4.852   0.899   3.123  0.8739  0.4396 -0.0268
15253TIP3    H267251   4.795   1.013   3.041 -0.7056  0.9675  1.7783
15254TIP3   OH267252   4.095   6.732  15.076  0.7931  0.3277 -0.0417
15254TIP3    H167253   4.024   6.792  15.053  2.2655  2.2660  0.3275
15254TIP3    H267254   4.131   6.703  14.992 -0.9033 -1.2686 -0.2395
15255TIP3   OH267255   6.586   5.840  12.249  0.0768  0.2908  0.4796
15255TIP3    H167256   6.641   5.765  12.231 -0.2653 -0.0885  0.9991
15255TIP3    H267257   6.612   5.906  12.184 -0.9115 -0.9173 -1.1688
15256TIP3   OH267258   0.927   2.733   0.494  0.0453  0.1674 -0.6383
15256TIP3    H167259   1.009   2.731   0.445  1.0172 -1.1774  0.9986
15256TIP3    H267260   0.861   2.706   0.431  0.8688  1.1176 -1.9304
15257TIP3   OH267261   1.460   2.712   1.881  0.3767 -0.1041 -0.2725
15257TIP3    H167262   1.530   2.648   1.869  1.1912  0.6141  0.5710
15257TIP3    H267263   1.501   2.784   1.929 -0.9092  0.3848  0.1187
15258TIP3   OH267264   2.771   3.218  12.137  0.1192  0.5474 -0.0584
15258TIP3    H167265   2.682   3.185  12.151 -0.2825  0.9045 -1.6997
15258TIP3    H267266   2.789   3.200  12.045  2.1422 -0.4308  0.5144
15259TIP3   OH267267   2.338   5.188   0.350 -0.0456 -0.2930  0.4338
15259TIP3    H167268   2.336   5.178   0.255 -1.5944  0.1619  0.4081
15259TIP3    H267269   2.338   5.098   0.384  0.3486 -0.4539  0.0098
15260TIP3   OH267270   3.511   4.466  15.197 -0.2394 -0.0558 -0.0812
15260TIP3    H167271   3.438   4.522  15.169 -0.5822 -0.1768  0.5781
15260TIP3    H267272   3.500   4.457  15.291  1.9412  1.7922  0.3715
15261TIP3   OH267273   0.538   4.676  11.448  0.1102 -0.0741 -0.3380
15261TIP3    H167274   0.493   4.746  11.495  0.7569 -0.1281  0.3794
15261TIP3    H267275   0.471   4.609  11.435 -0.9440  1.3213 -2.4616
15262TIP3   OH267276   5.975   4.009   3.540  0.0853 -0.5699  0.2379
15262TIP3    H167277   6.007   4.025   3.451  2.1305 -2.3824  0.6135
15262TIP3    H267278   5.951   4.096   3.572  1.7354  0.4626 -1.1963
15263TIP3   OH267279   0.106   0.552  13.445  0.1019  0.7880  1.0089
15263TIP3    H167280   0.186   0.604  13.440  1.1145 -0.9320 -1.4614
15263TIP3    H267281   0.048   0.590  13.379  0.7292 -0.9528 -0.5920
15264TIP3   OH267282   4.885   2.084   5.294  0.0186 -0.1600  0.0306
15264TIP3    H167283   4.955   2.030   5.331 -0.1510 -0.0881  0.4572
15264TIP3    H267284   4.931   2.159   5.255  0.0831  0.6033  1.5560
15265TIP3   OH267285   5.874   6.007  16.041  0.0320 -0.6078 -0.3041
15265TIP3    H167286   5.909   6.096  16.033 -0.7778 -0.4471 -2.4339
15265TIP3    H267287   5.946   5.950  16.014  0.4914 -0.6106  0.8891
15266TIP3   OH267288   0.796   5.436   3.032 -0.0803  0.5313 -0.0293
15266TIP3    H167289   0.701   5.440   3.019 -0.2880  0.4077  1.3859
15266TIP3    H267290   0.807   5.402   3.121  1.3050 -0.1751 -0.4536
15267TIP3   OH267291   2.019   0.218  16.570 -0.5804  0.6929  0.4733
15267TIP3    H167292   1.984   0.306  16.578 -0.7435  0.6044  0.7733
15267TIP3    H267293   2.113   0.227  16.583 -0.5841  0.8356  0.3939
15268TIP3   OH267294   5.834   3.641   2.406  0.1826  0.2627  0.1364
15268TIP3    H167295   5.805   3.701   2.337  0.3416 -0.4220 -0.5186
15268TIP3    H267296   5.773   3.658   2.478  0.9091  2.0203  0.3760
15269TIP3   OH267297   1.056   5.446  16.189  0.3821  0.3863  0.3657
15269TIP3    H167298   1.004   5.366  16.185 -0.1290  0.6256  1.9099
15269TIP3    H267299   1.014   5.505  16.126  0.2085 -0.2432 -0.1120
15270TIP3   OH267300   5.023   1.619  11.260 -0.3491  0.0172 -0.3364
15270TIP3    H167301   5.003   1.592  11.170 -0.8109  1.4635 -0.6996
15270TIP3    H267302   5.105   1.667  11.253  0.4165 -1.1782  0.2759
15271TIP3   OH267303   0.069   5.248  14.775  0.1971  0.4566  0.2377
15271TIP3    H167304   0.032   5.181  14.718  1.2942  0.2068 -0.1845
15271TIP3    H267305   0.062   5.329  14.724 -0.1486  0.4830  0.3254
15272TIP3   OH267306   0.229   2.120   1.094  0.2230  0.2240 -0.4463
15272TIP3    H167307   0.154   2.072   1.060  0.1385  0.2923 -0.3557
15272TIP3    H267308   0.246   2.188   1.029 -1.1156  1.5441  0.5720
15273TIP3   OH267309   5.006   0.802   3.878  0.2572  0.6201  0.2371
15273TIP3    H167310   5.092   0.844   3.877  1.1257 -1.0574  1.8467
15273TIP3    H267311   5.002   0.751   3.797  1.2664 -0.2389  0.7232
15274TIP3   OH267312   3.397   3.948  14.514 -0.4929  0.6004 -0.0086
15274TIP3    H167313   3.306   3.967  14.490 -0.6358 -0.0765 -0.0056
15274TIP3    H267314   3.394   3.929  14.608 -0.6207 -1.1351 -0.3507
15275TIP3   OH267315   6.064   2.531   2.699 -0.2413  0.6706  0.1245
15275TIP3    H167316   6.008   2.519   2.776 -0.9771  0.9033 -0.3742
15275TIP3    H267317   6.007   2.513   2.624  0.5478  0.1507 -0.3644
15276TIP3   OH267318   6.487   1.756  13.767  0.3162 -0.0523  0.6220
15276TIP3    H167319   6.426   1.818  13.809 -0.1857  0.7791 -1.2845
15276TIP3    H267320   6.573   1.783  13.798 -0.0002  0.8810  0.7103
15277TIP3   OH267321   1.899   5.543   1.618  0.1584  0.5835  0.1517
15277TIP3    H167322   1.942   5.458   1.623  0.3746  0.7650  1.4320
15277TIP3    H267323   1.813   5.524   1.579  0.4975 -0.1065 -0.2642
15278TIP3   OH267324   3.628   3.077  14.673 -0.1544  0.7457 -0.0884
15278TIP3    H167325   3.563   3.078  14.603 -0.8670 -0.1167  0.5518
15278TIP3    H267326   3.577   3.090  14.753  0.5252  0.5763  0.3748
15279TIP3   OH267327   0.477   5.139  14.150  0.2043  0.4788 -0.3516
15279TIP3    H167328   0.486   5.105  14.239 -0.8360 -0.3671 -0.5624
15279TIP3    H267329   0.431   5.222  14.159 -0.9001 -0.1495 -0.2002
15280TIP3   OH267330   2.616   6.609  14.259 -0.5670  0.8522  0.1294
15280TIP3    H167331   2.622   6.702  14.238  0.2679  0.9859  0.9063
15280TIP3    H267332   2.573   6.570  14.183 -1.6206  1.9822  0.1425
15281TIP3   OH267333   3.991   0.644  12.907 -0.2577 -0.4775  0.1218
15281TIP3    H167334   3.969   0.573  12.967  1.1024 -0.5695  0.5411
15281TIP3    H267335   4.009   0.601  12.824 -1.1754 -0.4422 -0.1029
15282TIP3   OH267336   0.278   6.473  12.637  0.2729 -0.3788 -0.6801
15282TIP3    H167337   0.316   6.560  12.634  0.2727 -0.3019  1.1865
15282TIP3    H267338   0.349   6.417  12.669 -0.1379 -0.8142 -0.5184
15283TIP3   OH267339   2.340   4.741   5.673  0.2728 -0.8255  0.0601
15283TIP3    H167340   2.262   4.724   5.620  0.1278  1.7189 -0.6012
15283TIP3    H267341   2.308   4.745   5.763 -0.0558 -1.5260 -0.0219
15284TIP3   OH267342   2.011   2.767  13.272 -0.1971  0.1719 -0.1124
15284TIP3    H167343   2.076   2.740  13.207  0.2881  0.3120  0.3167
15284TIP3    H267344   2.050   2.843  13.315 -0.3894 -0.1050  0.5610
15285TIP3   OH267345   6.649   5.194  17.215  0.1726 -0.1366 -0.6813
15285TIP3    H167346   6.715   5.246  17.260  0.8995 -1.1876 -0.5062
15285TIP3    H267347   6.654   5.108  17.257  0.7988 -1.1120 -2.6954
15286TIP3   OH267348   4.236   2.422   5.897  0.6215  0.3835 -0.2946
15286TIP3    H167349   4.151   2.459   5.920  0.1792 -0.9976  0.3704
15286TIP3    H267350   4.262   2.467   5.817 -1.1131  0.2523 -0.9385
15287TIP3   OH267351   6.255   4.889  10.964  0.1988 -0.6592  0.4233
15287TIP3    H167352   6.314   4.963  10.958 -0.5281 -0.0086  1.2180
15287TIP3    H267353   6.280   4.832  10.891 -1.0710  1.6772 -1.8985
15288TIP3   OH267354   2.743   5.386  13.778 -0.2551  0.2635  0.0001
15288TIP3    H167355   2.663   5.381  13.831 -1.4981  0.4768 -1.7949
15288TIP3    H267356   2.808   5.423  13.837 -2.2327  2.7950  0.7084
15289TIP3   OH267357   3.798   4.895   2.389 -0.0817  0.4594 -0.0911
15289TIP3    H167358   3.803   4.945   2.308  1.2296 -1.5305 -1.2892
15289TIP3    H267359   3.887   4.864   2.403 -0.7967 -1.2344  0.8143
15290TIP3   OH267360   6.172   6.287   0.677 -0.1027  0.1897  0.0402
15290TIP3    H167361   6.258   6.317   0.708  0.1962 -0.7496  0.1324
15290TIP3    H267362   6.171   6.312   0.584  0.2306  0.2932  0.0608
15291TIP3   OH267363   5.902   6.704   2.251  0.4615  0.4546 -0.1800
15291TIP3    H167364   5.935   6.633   2.307  0.5038  1.4215  1.0399
15291TIP3    H267365   5.901   6.666   2.163  1.4700 -0.7303  0.2982
15292TIP3   OH267366   0.129   3.816   2.583  0.3546 -0.3597  0.3739
15292TIP3    H167367   0.047   3.770   2.567 -0.6367  0.4081  2.9641
15292TIP3    H267368   0.111   3.907   2.559  0.7760 -0.3856 -0.0422
15293TIP3   OH267369   5.885   5.839   1.971  0.0604  0.3759  0.2219
15293TIP3    H167370   5.894   5.892   1.891  1.5638  0.7648  0.6227
15293TIP3    H267371   5.962   5.862   2.023 -0.6905 -0.1935  1.6042
15294TIP3   OH267372   4.251   0.712   1.695  0.4563  0.1509  0.3356
15294TIP3    H167373   4.340   0.715   1.728 -0.1150  0.6437  1.8826
15294TIP3    H267374   4.197   0.747   1.767 -1.1486 -1.6964  0.0891
15295TIP3   OH267375   5.573   4.579  14.408 -0.1351  0.5848 -0.0158
15295TIP3    H167376   5.659   4.545  14.434  0.5316  2.3592  0.1459
15295TIP3    H267377   5.554   4.535  14.326  0.6558 -0.2791  0.2529
15296TIP3   OH267378   0.093   4.591  16.243  0.0777  0.1614  0.4472
15296TIP3    H167379   0.069   4.523  16.180 -1.8460 -1.3718  2.7578
15296TIP3    H267380   0.023   4.656  16.234 -0.0476  0.0750  0.8217
15297TIP3   OH267381   2.140   2.472   1.471  0.1666  0.2032  0.1065
15297TIP3    H167382   2.078   2.536   1.436 -0.2307 -0.2494 -0.0219
15297TIP3    H267383   2.215   2.524   1.498  0.2646  0.6228 -0.9387
15298TIP3   OH267384   2.549   2.250   5.179  0.8701  0.0867  0.0834
15298TIP3    H167385   2.506   2.295   5.106  0.7394 -0.3023 -0.0819
15298TIP3    H267386   2.528   2.157   5.166  2.3959 -0.2022 -0.4156
15299TIP3   OH267387   3.212   1.505   0.230  0.3994 -0.4431 -0.5474
15299TIP3    H167388   3.203   1.420   0.187  0.8276  0.3207 -2.2040
15299TIP3    H267389   3.147   1.505   0.299  0.2867 -2.0593 -0.6551
15300TIP3   OH267390   4.491   4.918   1.237 -0.4527 -0.7293  0.3575
15300TIP3    H167391   4.488   4.999   1.186  0.2743 -2.1430 -1.9909
15300TIP3    H267392   4.403   4.909   1.272 -1.0489  0.1084 -0.8942
15301TIP3   OH267393   2.358   5.751  14.907  0.0519  0.5397  0.1559
15301TIP3    H167394   2.315   5.810  14.969  1.6144  2.1106 -0.2094
15301TIP3    H267395   2.385   5.807  14.835  0.2827 -0.8816 -0.8873
15302TIP3   OH267396   5.823   4.216   0.288  0.6466 -0.0267 -0.4936
15302TIP3    H167397   5.827   4.155   0.215  1.8857 -0.8355  0.2256
15302TIP3    H267398   5.730   4.225   0.307  0.4098 -1.0276 -1.1551
15303TIP3   OH267399   2.303   2.081  15.587 -0.7725  0.2424  0.1573
15303TIP3    H167400   2.363   2.086  15.513  0.3679  2.2711  1.1746
15303TIP3    H267401   2.336   2.008  15.639 -2.2252 -1.9140 -1.8169
15304TIP3   OH267402   2.052   5.539  11.788 -0.2711 -0.3134  0.1335
15304TIP3    H167403   2.083   5.620  11.747  1.7631 -1.3138 -0.4026
15304TIP3    H267404   1.987   5.504  11.727  1.8883 -1.1944 -1.7811
15305TIP3   OH267405   1.428   1.092  13.276  0.1234 -0.5056  0.5188
15305TIP3    H167406   1.362   1.038  13.232  0.5024 -0.8831  0.4075
15305TIP3    H267407   1.378   1.152  13.330 -0.3929  0.6000 -1.1554
15306TIP3   OH267408   2.572   0.405  12.084  0.5326 -0.0621  0.0227
15306TIP3    H167409   2.526   0.474  12.132 -0.1353 -1.0106  0.7607
15306TIP3    H267410   2.582   0.334  12.147  3.2336  0.2005 -0.0499
15307TIP3   OH267411   4.696   5.567  15.463  0.6849  0.0937 -0.2717
15307TIP3    H167412   4.679   5.647  15.413 -0.1858 -0.0069 -0.1468
15307TIP3    H267413   4.609   5.537  15.491  0.9463 -1.2597 -0.8741
15308TIP3   OH267414   2.878   5.550  13.468  0.1973  0.1933  0.4460
15308TIP3    H167415   2.912   5.486  13.405 -1.9370 -2.0206  1.4595
15308TIP3    H267416   2.939   5.546  13.542  1.8436  1.6804 -0.7886
15309TIP3   OH267417   6.060   0.337   3.899 -0.2460 -0.4737  0.9925
15309TIP3    H167418   6.002   0.408   3.873 -0.1394 -0.9883 -0.7650
15309TIP3    H267419   6.140   0.381   3.928 -0.3400  0.1519  0.3313
15310TIP3   OH267420   2.066   4.838   5.104  0.8682 -0.6232  0.0155
15310TIP3    H167421   2.015   4.847   5.184 -0.7981 -1.1476 -0.9397
15310TIP3    H267422   2.044   4.916   5.053  0.0725 -1.4153 -0.8916
15311TIP3   OH267423   3.379   6.575  13.205  0.0415  0.5935 -0.1934
15311TIP3    H167424   3.296   6.528  13.208 -0.1945  0.9447 -1.1925
15311TIP3    H267425   3.360   6.653  13.152  0.6206  1.4223  0.8051
15312TIP3   OH267426   5.187   2.754   4.812  0.2302  0.1332  0.4279
15312TIP3    H167427   5.139   2.702   4.747 -1.2476  0.4533  1.2429
15312TIP3    H267428   5.212   2.692   4.880  0.4186  0.0870  0.3173
15313TIP3   OH267429   6.790   1.240  13.198 -0.4718 -0.5031  0.1912
15313TIP3    H167430   6.765   1.160  13.153 -0.9328 -0.7052  0.8082
15313TIP3    H267431   6.718   1.258  13.258 -0.2776  0.2604  0.1987
15314TIP3   OH267432   1.001   1.627  16.931 -0.6998 -0.3423  0.0062
15314TIP3    H167433   0.992   1.557  16.995 -0.7028 -0.8411 -0.5314
15314TIP3    H267434   1.094   1.627  16.908 -0.5764  0.2645  0.4881
15315TIP3   OH267435   0.198   1.305   1.983  0.3029  0.0456  0.3984
15315TIP3    H167436   0.287   1.317   1.950  0.8234 -1.6256  1.1366
15315TIP3    H267437   0.207   1.312   2.078 -0.7059  1.8875  0.3817
15316TIP3   OH267438   3.525   5.337   6.363 -0.5709 -0.0431  0.0163
15316TIP3    H167439   3.521   5.373   6.274  1.2686  0.4255  0.0994
15316TIP3    H267440   3.434   5.327   6.389 -1.1602 -1.3000 -2.3770
15317TIP3   OH267441   2.029   0.608   2.269 -0.1110  0.1965 -0.4017
15317TIP3    H167442   2.095   0.551   2.229 -0.4268  0.2291 -0.9744
15317TIP3    H267443   2.079   0.677   2.311  0.2518 -0.1935 -0.1933
15318TIP3   OH267444   4.639   3.566  13.250 -0.4504  0.5512 -0.2095
15318TIP3    H167445   4.644   3.571  13.155 -0.6435  0.1391 -0.2414
15318TIP3    H267446   4.595   3.483  13.267 -0.1219  0.4710  0.2461
15319TIP3   OH267447   2.131   3.935  10.653  0.8598  0.2239  0.5634
15319TIP3    H167448   2.062   3.979  10.701 -0.9461 -1.8596 -0.0542
15319TIP3    H267449   2.186   4.006  10.619 -1.2081  1.9169  0.6745
15320TIP3   OH267450   0.977   0.025  14.200  0.0851  0.5328 -0.9835
15320TIP3    H167451   0.928  -0.056  14.190  1.8259 -0.3214 -3.2708
15320TIP3    H267452   1.045   0.005  14.264 -0.0615  0.4420 -0.8591
15321TIP3   OH267453   3.521   4.916   4.671 -0.5281 -0.3218 -0.4322
15321TIP3    H167454   3.605   4.879   4.697  0.1763  1.6775  0.1674
15321TIP3    H267455   3.517   5.002   4.713 -2.9094 -0.4103 -0.3781
15322TIP3   OH267456   4.245   5.191  16.600  0.3388 -0.0532  0.3925
15322TIP3    H167457   4.152   5.216  16.599  0.5060  0.5963  0.9339
15322TIP3    H267458   4.292   5.273  16.588  0.8424 -0.4020 -0.0001
15323TIP3   OH267459   5.924   6.362  14.306  0.5359 -0.0578  0.0317
15323TIP3    H167460   5.840   6.316  14.300  0.5488 -0.0363 -0.3101
15323TIP3    H267461   5.939   6.396  14.218  0.8238  0.0801  0.1344
15324TIP3   OH267462   5.833   5.351  13.989 -0.1572 -0.0445  0.0744
15324TIP3    H167463   5.754   5.303  13.962  0.5467 -2.3164  1.9226
15324TIP3    H267464   5.803   5.441  14.003 -1.9720 -0.4117 -1.3243
15325TIP3   OH267465   2.735   0.039   5.657  0.6191 -0.1195 -0.0820
15325TIP3    H167466   2.687  -0.037   5.624  0.6829  0.0507 -0.5769
15325TIP3    H267467   2.787   0.068   5.582  1.0827  0.0244  0.2970
15326TIP3   OH267468   2.719   1.057  12.048 -0.8006 -0.1158  0.5788
15326TIP3    H167469   2.725   0.961  12.039 -2.0054 -0.0919 -0.6245
15326TIP3    H267470   2.787   1.079  12.112  0.3447 -1.6392 -0.0781
15327TIP3   OH267471   1.946   3.071  16.210  0.7133 -0.7609  0.0165
15327TIP3    H167472   1.925   2.985  16.247 -1.1602 -0.7839 -1.0094
15327TIP3    H267473   2.028   3.096  16.252  0.4288 -2.3196  1.5659
15328TIP3   OH267474   4.617   1.217   0.520 -0.5795 -0.5869 -0.5460
15328TIP3    H167475   4.548   1.221   0.586 -2.2853  0.5917 -2.3356
15328TIP3    H267476   4.698   1.226   0.569 -1.9031  2.9135  1.1598
15329TIP3   OH267477   6.485   5.422   4.478 -0.0075  0.2086 -0.5583
15329TIP3    H167478   6.445   5.352   4.531  0.4618  0.9774  0.8402
15329TIP3    H267479   6.573   5.389   4.458  0.8509  1.0878  1.5704
15330TIP3   OH267480   3.640   0.900  15.364  0.1706  0.2802 -0.2502
15330TIP3    H167481   3.614   0.958  15.436  1.6160 -0.0346  0.5331
15330TIP3    H267482   3.716   0.853  15.397  0.0871 -0.7858 -1.5363
15331TIP3   OH267483   0.912   2.937  13.102 -0.4419 -0.2949  0.1990
15331TIP3    H167484   0.838   2.997  13.115  0.8564  1.1588  1.1021
15331TIP3    H267485   0.983   2.975  13.154  1.0824 -1.4113 -1.0087
15332TIP3   OH267486   2.140   6.412   6.417 -0.1840  0.4533  0.3914
15332TIP3    H167487   2.086   6.457   6.352 -0.2525  0.1740  0.2536
15332TIP3    H267488   2.078   6.364   6.471 -0.0963  0.3654  0.4148
15333TIP3   OH267489   0.414   0.800   1.952  0.0423 -0.0600 -0.1255
15333TIP3    H167490   0.384   0.890   1.956  0.4512  0.0495  0.6366
15333TIP3    H267491   0.450   0.783   2.039  0.9444 -0.6127 -0.5964
15334TIP3   OH267492   3.405   3.443   1.903 -0.4452 -0.3734 -0.4031
15334TIP3    H167493   3.323   3.449   1.952 -1.0207  2.0544 -1.5731
15334TIP3    H267494   3.460   3.511   1.940  0.1342 -0.3822 -1.2340
15335TIP3   OH267495   4.536   0.545  15.429  0.5546  0.4945 -0.1786
15335TIP3    H167496   4.466   0.549  15.494  0.6530  0.7968 -0.0906
15335TIP3    H267497   4.551   0.636  15.405  2.2641  0.5941  1.2406
15336TIP3   OH267498   1.048   2.579  12.136  0.2358  0.0621 -0.4193
15336TIP3    H167499   1.129   2.616  12.102  0.5700  1.1998  1.5419
15336TIP3    H267500   1.070   2.489  12.160 -0.2293 -1.0724 -3.9145
15337TIP3   OH267501   5.911   6.466   2.867  0.0262  0.4049 -0.1441
15337TIP3    H167502   5.957   6.499   2.944 -0.5697 -1.0194  0.8293
15337TIP3    H267503   5.820   6.492   2.879  0.0923  1.0140 -0.8542
15338TIP3   OH267504   1.934   2.745   2.156 -0.7945  0.1961  0.2344
15338TIP3    H167505   1.919   2.702   2.241  0.1335 -1.2463 -0.3207
15338TIP3    H267506   2.011   2.702   2.121 -0.0770  2.0615 -0.5381
15339TIP3   OH267507   2.137   1.605  11.194  0.5202  0.6876 -0.2846
15339TIP3    H167508   2.146   1.512  11.173 -0.7659  0.5168 -0.1044
15339TIP3    H267509   2.088   1.642  11.121  1.5748  1.3532 -0.6576
15340TIP3   OH267510   3.105   4.219   4.479 -0.0053  0.0154  0.4178
15340TIP3    H167511   3.071   4.144   4.528  2.3749 -0.7984  0.8647
15340TIP3    H267512   3.076   4.295   4.530  0.8652 -0.7548  2.1047
15341TIP3   OH267513   0.448   6.584  15.672 -0.1682  0.3165 -0.2960
15341TIP3    H167514   0.451   6.537  15.755 -0.1595 -1.3292 -1.2098
15341TIP3    H267515   0.426   6.674  15.696  1.0316  0.1235  1.5744
15342TIP3   OH267516   3.110   4.500  12.740 -0.4506 -0.1853  0.0046
15342TIP3    H167517   3.112   4.455  12.655 -2.9315  1.2444 -0.8795
15342TIP3    H267518   3.017   4.504  12.762  0.2319 -1.2979  3.2473
15343TIP3   OH267519   0.904   2.733  14.178 -1.0334 -0.2944 -0.4533
15343TIP3    H167520   0.821   2.690  14.199 -2.3003  2.8381  1.3470
15343TIP3    H267521   0.939   2.761  14.263 -0.6453  2.7626 -1.5265
15344TIP3   OH267522   1.020   2.728   4.310 -0.8190  0.3965  0.0382
15344TIP3    H167523   1.015   2.743   4.404 -0.8594 -1.4521  0.3570
15344TIP3    H267524   1.104   2.683   4.298 -2.0117 -1.7321 -0.4632
15345TIP3   OH267525   5.766   4.935  14.633 -0.4067 -0.1565  0.1676
15345TIP3    H167526   5.824   4.863  14.657 -1.8026 -1.7341 -1.1074
15345TIP3    H267527   5.741   4.975  14.716 -0.6820 -1.9709  0.9710
15346TIP3   OH267528   3.684   5.286  13.427 -0.2494  0.1250 -0.4907
15346TIP3    H167529   3.733   5.321  13.353 -0.4288 -0.9867 -1.1427
15346TIP3    H267530   3.729   5.205  13.450 -0.7855 -0.0448 -0.0119
15347TIP3   OH267531   4.512   3.391  15.651  0.3012  0.2342  0.2180
15347TIP3    H167532   4.566   3.462  15.617  0.6967  0.2866  0.9638
15347TIP3    H267533   4.539   3.314  15.600  0.5970  0.3993  0.1284
15348TIP3   OH267534   6.170   5.975  13.076 -0.1697  0.3289 -0.3616
15348TIP3    H167535   6.262   5.994  13.091 -0.1838  0.3707 -0.3268
15348TIP3    H267536   6.155   5.998  12.985 -0.0542 -0.0392 -0.4748
15349TIP3   OH267537   0.336   3.071   2.210 -0.1909  0.5912 -0.0994
15349TIP3    H167538   0.369   3.079   2.121  0.1627  1.9773  0.1436
15349TIP3    H267539   0.301   3.157   2.231 -1.9615 -0.2408  0.4628
15350TIP3   OH267540   2.891   6.239   0.841  0.2612 -0.0924 -0.3864
15350TIP3    H167541   2.801   6.209   0.834  0.7541 -1.8847  0.4207
15350TIP3    H267542   2.937   6.192   0.772  0.3361  1.8315 -1.6539
15351TIP3   OH267543   5.841   5.398   1.147 -0.1090  0.1131 -0.1854
15351TIP3    H167544   5.823   5.367   1.236  0.5065 -0.8238 -0.3853
15351TIP3    H267545   5.935   5.382   1.135 -0.6625 -2.0037 -1.8818
15352TIP3   OH267546   0.388   2.003   0.068  0.1624 -0.4677  0.7484
15352TIP3    H167547   0.342   2.022  -0.014 -0.0787 -0.8305  0.8009
15352TIP3    H267548   0.479   2.026   0.050  0.1555 -0.7902  0.2955
15353TIP3   OH267549   4.177   0.970   2.513 -0.1140  0.0080 -0.3240
15353TIP3    H167550   4.133   0.905   2.457 -0.1811 -1.0178  0.8926
15353TIP3    H267551   4.270   0.951   2.503 -0.1426 -0.4117  0.1832
15354TIP3   OH267552   3.706   6.743   2.165 -0.4292  0.4963 -0.2466
15354TIP3    H167553   3.708   6.696   2.248  1.7831 -0.9610 -1.0861
15354TIP3    H267554   3.731   6.677   2.100  0.3190  2.2515 -1.7576
15355TIP3   OH267555   0.701   2.657  14.862 -0.1803  0.0875  0.2770
15355TIP3    H167556   0.637   2.726  14.876  0.3686  0.8626 -0.9671
15355TIP3    H267557   0.649   2.577  14.853 -1.0492  0.8191 -1.5255
15356TIP3   OH267558   5.525   0.889   5.607 -0.3022  0.0347  1.0986
15356TIP3    H167559   5.499   0.981   5.618  2.3933  0.8764  0.7905
15356TIP3    H267560   5.612   0.884   5.647 -0.1408 -2.2528  0.5334
15357TIP3   OH267561   4.721   1.160  14.326 -0.3415 -0.3624 -0.7174
15357TIP3    H167562   4.653   1.102  14.293  0.2455 -1.0075 -0.8063
15357TIP3    H267563   4.701   1.245  14.286 -1.1727 -0.5060 -0.6251
15358TIP3   OH267564   2.499   6.083  14.904  0.5677 -0.1781 -0.0729
15358TIP3    H167565   2.408   6.110  14.912  1.3288  2.3948  0.2427
15358TIP3    H267566   2.532   6.081  14.994  1.4385  1.1368 -0.3532
15359TIP3   OH267567   3.056   3.332   2.252 -0.4082  0.3441  0.0136
15359TIP3    H167568   3.094   3.388   2.319 -0.8126  0.3133  0.2677
15359TIP3    H267569   3.124   3.266   2.234 -0.4238  0.1629  0.6154
15360TIP3   OH267570   4.433   0.437   1.831 -0.1004 -1.1287  0.8704
15360TIP3    H167571   4.519   0.450   1.791 -1.3526 -1.0753 -1.9499
15360TIP3    H267572   4.437   0.349   1.867  0.7417 -1.5974 -0.3254
15361TIP3   OH267573   1.908   4.257  17.067  0.4302 -0.5590 -0.0214
15361TIP3    H167574   1.914   4.189  17.135  0.3525  0.1351  0.6842
15361TIP3    H267575   1.814   4.273  17.058  0.4080 -1.0037 -0.6615
15362TIP3   OH267576   3.263   6.673  12.588  0.1956  0.1203  0.4742
15362TIP3    H167577   3.326   6.739  12.558  2.1534 -1.3907  1.1782
15362TIP3    H267578   3.220   6.643  12.508  0.6862  0.8348 -0.0684
15363TIP3   OH267579   5.105   0.356   0.653  0.4537 -0.1535  0.3469
15363TIP3    H167580   5.155   0.354   0.734  0.3259 -1.4060  0.3964
15363TIP3    H267581   5.016   0.377   0.680 -0.0910 -2.8645  0.8115
15364TIP3   OH267582   3.905   2.624   4.023  0.1199  0.0083  0.1448
15364TIP3    H167583   3.822   2.582   3.998  0.2105 -0.2818  0.3295
15364TIP3    H267584   3.972   2.558   4.003  0.1629 -0.3571  1.4692
15365TIP3   OH267585   0.322   0.850  11.637 -0.0693  0.6936  0.0270
15365TIP3    H167586   0.392   0.915  11.633  1.6106 -1.1542 -1.4344
15365TIP3    H267587   0.365   0.770  11.669 -1.4564 -0.5266 -1.1030
15366TIP3   OH267588   4.204   6.518  15.241  0.7071 -0.9123 -0.1211
15366TIP3    H167589   4.164   6.559  15.318 -0.3142 -1.6764 -0.2239
15366TIP3    H267590   4.176   6.571  15.167  1.1760 -0.5385 -0.0312
15367TIP3   OH267591   0.946   6.728   0.960  0.3494  0.0044  0.4078
15367TIP3    H167592   0.939   6.691   0.873  1.0052 -0.8361  0.7098
15367TIP3    H267593   0.987   6.659   1.013 -0.8731  0.1556  1.5899
15368TIP3   OH267594   1.872   0.248   2.020  0.0874 -0.1205  0.3389
15368TIP3    H167595   1.961   0.282   2.015 -0.1152  0.4483  0.6760
15368TIP3    H267596   1.878   0.173   2.079  0.4028 -0.2908  0.0959
15369TIP3   OH267597   0.091   1.887   1.888  0.5039  0.7771  0.4464
15369TIP3    H167598   0.129   1.800   1.900 -0.1037  0.4649  0.1325
15369TIP3    H267599   0.060   1.912   1.975 -1.3124 -0.2639  0.1201
15370TIP3   OH267600   1.049   3.903  16.337 -0.2241  0.0065 -0.3334
15370TIP3    H167601   1.104   3.922  16.261  1.3529 -0.5542  0.6424
15370TIP3    H267602   1.104   3.850  16.394 -2.2399 -1.7088  0.0859
15371TIP3   OH267603   4.200   1.539   1.119 -0.2398 -0.0755 -0.5307
15371TIP3    H167604   4.291   1.525   1.095 -0.3411  1.1582 -1.7227
15371TIP3    H267605   4.151   1.478   1.063 -0.2581  0.5312 -1.1842
15372TIP3   OH267606   6.401   3.093  13.224 -0.9059  0.6173  0.4076
15372TIP3    H167607   6.335   3.152  13.261 -2.2526  0.6572 -1.9444
15372TIP3    H267608   6.351   3.026  13.178  0.6741  0.5434 -1.2754
15373TIP3   OH267609   3.003   5.913  14.342  0.1171 -0.2023  0.7785
15373TIP3    H167610   3.088   5.939  14.308 -0.0307  1.3238  1.5605
15373TIP3    H267611   3.005   5.938  14.434 -1.9376  1.7364  0.3250
15374TIP3   OH267612   5.866   1.738  15.313 -0.3534 -0.0357 -0.3667
15374TIP3    H167613   5.955   1.742  15.348 -0.5862 -0.8314  0.3514
15374TIP3    H267614   5.851   1.824  15.275 -0.0774  0.8762  1.5016
15375TIP3   OH267615   3.956   0.344   0.245 -0.3567  0.1640 -0.4241
15375TIP3    H167616   3.936   0.361   0.337  1.4913  2.2455 -0.3676
15375TIP3    H267617   3.921   0.420   0.198  1.2789  0.5351 -1.0811
15376TIP3   OH267618   2.446   5.855  14.348 -0.0775 -0.3048 -0.0654
15376TIP3    H167619   2.477   5.814  14.267  0.0303 -1.9699  0.7899
15376TIP3    H267620   2.522   5.853  14.406 -0.0548  1.1943 -0.0321
15377TIP3   OH267621   1.229   2.247  17.160  0.3968  0.1474 -0.4196
15377TIP3    H167622   1.233   2.270  17.252 -1.1215 -3.4564  0.6368
15377TIP3    H267623   1.309   2.198  17.143 -0.9340 -2.2577 -0.0338
15378TIP3   OH267624   5.019   1.568  13.939 -0.9036  0.2290 -0.3690
15378TIP3    H167625   5.002   1.522  13.857 -0.0179 -0.3381 -0.2349
15378TIP3    H267626   5.041   1.499  14.002  1.2005  0.8586 -0.3600
15379TIP3   OH267627   4.723   3.366   0.824 -0.1844  0.1059  0.7221
15379TIP3    H167628   4.681   3.305   0.885 -1.5995 -0.2260 -0.5846
15379TIP3    H267629   4.812   3.376   0.859 -1.4236  1.1554  3.7750
15380TIP3   OH267630   4.959   0.308   4.995  0.4826 -0.3461  0.0386
15380TIP3    H167631   4.981   0.400   5.009  0.1249  0.0419 -1.7799
15380TIP3    H267632   4.896   0.287   5.064 -0.6588  1.2399 -0.5023
15381TIP3   OH267633   3.499   5.212   1.202  0.3417  0.6680  0.4645
15381TIP3    H167634   3.460   5.245   1.121 -0.0564  1.5475  1.0055
15381TIP3    H267635   3.580   5.169   1.174  1.0249  2.3592 -0.2440
15382TIP3   OH267636   2.417   3.794  11.139 -0.1205 -0.1646  0.3394
15382TIP3    H167637   2.462   3.710  11.129  0.0655 -0.1079  0.6944
15382TIP3    H267638   2.398   3.800  11.233  3.4246  2.0125  0.9856
15383TIP3   OH267639   1.732   0.922  16.800  0.4259  0.2702 -0.1909
15383TIP3    H167640   1.660   0.869  16.766  1.1014 -1.2994  0.7483
15383TIP3    H267641   1.801   0.914  16.733  0.0103  1.1491 -0.7299
15384TIP3   OH267642   3.831   3.117  15.697 -0.5979 -0.1311  0.2149
15384TIP3    H167643   3.863   3.045  15.752 -2.7989 -1.8764 -0.7377
15384TIP3    H267644   3.845   3.196  15.750  0.8483 -1.3635  1.7061
15385TIP3   OH267645   2.653   2.363   2.200 -0.5393  0.3392 -0.1996
15385TIP3    H167646   2.568   2.393   2.168 -0.8987  0.7404  1.0889
15385TIP3    H267647   2.633   2.293   2.261  0.1358 -0.3865 -0.7932
15386TIP3   OH267648   3.716   1.703   2.275 -0.0558  0.1124  0.1249
15386TIP3    H167649   3.764   1.743   2.348  0.6105 -0.0837 -0.2016
15386TIP3    H267650   3.725   1.609   2.289 -0.5719  0.0743  0.2085
15387TIP3   OH267651   2.326   4.714   5.273  0.0871 -0.4211 -0.0108
15387TIP3    H167652   2.299   4.636   5.322  1.6266 -1.7073 -1.1527
15387TIP3    H267653   2.269   4.715   5.196 -1.0520  0.5408  0.8211
15388TIP3   OH267654   1.246   2.721  13.176  0.4403  0.2275  0.2790
15388TIP3    H167655   1.238   2.632  13.142 -0.0201  0.3212  0.1379
15388TIP3    H267656   1.232   2.712  13.270  0.7148  0.1101  0.3105
15389TIP3   OH267657   3.526   5.955   4.965 -0.5857 -0.0912 -0.5715
15389TIP3    H167658   3.593   6.013   4.931 -0.1592 -0.6901 -0.7626
15389TIP3    H267659   3.513   5.890   4.896 -1.5377  0.1666 -0.6375
15390TIP3   OH267660   2.137   1.949  11.971  0.2302 -0.1223  0.0163
15390TIP3    H167661   2.108   1.862  11.946 -0.2238 -1.1040  3.6374
15390TIP3    H267662   2.060   2.005  11.959  0.0829 -0.5109 -0.8761
15391TIP3   OH267663   3.681   2.166  16.231 -0.0389  0.0649  0.7060
15391TIP3    H167664   3.652   2.151  16.321 -1.0054  3.0385  0.9571
15391TIP3    H267665   3.662   2.258  16.215  2.5817  0.2737 -1.6586
15392TIP3   OH267666   2.118   6.252   4.198  0.2600 -0.1534 -0.1867
15392TIP3    H167667   2.186   6.190   4.169  1.0318  0.8146 -0.4923
15392TIP3    H267668   2.110   6.237   4.292  3.0216  1.7216  0.4064
15393TIP3   OH267669   2.918   4.190   3.956  1.0031  0.8395 -0.0578
15393TIP3    H167670   2.834   4.145   3.963  1.5548 -0.1522  0.3899
15393TIP3    H267671   2.915   4.235   3.872  0.5733 -0.3458 -0.6876
15394TIP3   OH267672   3.188   6.250  12.944  0.0465 -0.7013 -0.2983
15394TIP3    H167673   3.182   6.173  12.887  0.7808 -1.6030  0.8289
15394TIP3    H267674   3.209   6.323  12.884  1.3893 -1.7268 -1.0963
15395TIP3   OH267675   3.869   2.109  14.009  0.2605 -0.8258 -0.3257
15395TIP3    H167676   3.915   2.058  13.942  0.8262  2.4105 -2.5351
15395TIP3    H267677   3.778   2.111  13.978  0.9413  2.5675 -2.3260
15396TIP3   OH267678   0.754   0.140  15.356  0.0864  0.2255 -0.1299
15396TIP3    H167679   0.770   0.160  15.264  0.0560  0.4873 -0.0779
15396TIP3    H267680   0.718   0.221  15.392 -1.5190 -0.3930 -0.2868
15397TIP3   OH267681   2.245   0.143   4.991  0.2733  0.2724  0.0965
15397TIP3    H167682   2.158   0.121   5.025 -0.5004  2.1329 -0.5985
15397TIP3    H267683   2.243   0.239   4.982  2.0379  0.2249 -0.9016
15398TIP3   OH267684   3.952   3.545  14.330 -0.0055  0.0121 -0.4614
15398TIP3    H167685   4.016   3.504  14.273 -1.4827 -1.9432 -0.7730
15398TIP3    H267686   3.882   3.573  14.272 -0.9562 -0.8904  0.2196
15399TIP3   OH267687   1.779   1.388   0.888 -0.3130 -0.0318  0.5908
15399TIP3    H167688   1.716   1.460   0.884  0.7467  0.8654 -0.1993
15399TIP3    H267689   1.742   1.320   0.831 -1.1896 -0.0293  1.1466
15400TIP3   OH267690   3.586   1.493  16.584  0.1583  0.3206 -0.0203
15400TIP3    H167691   3.638   1.552  16.530 -1.2674  1.2371 -0.3917
15400TIP3    H267692   3.542   1.435  16.522  1.8143 -1.3977  0.3499
15401TIP3   OH267693   4.362   6.656   4.025 -0.2260  0.2135 -0.4698
15401TIP3    H167694   4.292   6.629   3.966 -0.5905  2.2516 -1.0036
15401TIP3    H267695   4.410   6.575   4.044 -2.1968 -1.0575 -0.7747
15402TIP3   OH267696   3.490   4.980  12.550  0.8084 -0.4372 -0.1919
15402TIP3    H167697   3.482   5.063  12.502 -1.9355 -1.3274 -1.3618
15402TIP3    H267698   3.442   4.995  12.632  1.2855 -0.5070  0.0997
15403TIP3   OH267699   6.312   1.568  11.110 -0.6291 -0.0075 -0.4287
15403TIP3    H167700   6.302   1.532  11.198  0.0961  2.4370  0.6909
15403TIP3    H267701   6.388   1.626  11.116 -0.5126  0.1020 -2.6910
15404TIP3   OH267702   2.417   1.625   2.094  0.2393  0.3520  0.2655
15404TIP3    H167703   2.507   1.636   2.127 -0.3480 -0.4855  2.2127
15404TIP3    H267704   2.399   1.531   2.105 -0.3642  0.2379 -1.5154
15405TIP3   OH267705   1.151   4.664   0.492 -0.4241  0.1742  0.5077
15405TIP3    H167706   1.170   4.606   0.566  0.5519  0.0930  0.2071
15405TIP3    H267707   1.212   4.635   0.424 -0.9797  0.5696 -0.1614
15406TIP3   OH267708   6.635   1.327  12.786  0.0029  0.0670  0.4731
15406TIP3    H167709   6.600   1.322  12.875  0.1911  2.1303  0.6922
15406TIP3    H267710   6.663   1.418  12.777 -1.0489  0.1685 -2.0948
15407TIP3   OH267711   1.808   2.392  16.673 -0.2069  0.4568 -0.0447
15407TIP3    H167712   1.783   2.310  16.715 -0.1807  0.4222 -0.0934
15407TIP3    H267713   1.876   2.366  16.609  0.2380  0.6033  0.3669
15408TIP3   OH267714   1.630   5.431  12.935  0.3788 -0.4103  0.0476
15408TIP3    H167715   1.564   5.398  12.996  0.6130 -1.8010 -0.4307
15408TIP3    H267716   1.592   5.417  12.849  1.9621 -2.7478 -0.3016
15409TIP3   OH267717   2.416   1.475  15.467 -0.0195  0.2546  0.0166
15409TIP3    H167718   2.402   1.442  15.556  1.6217 -1.1068 -0.1793
15409TIP3    H267719   2.329   1.479  15.429 -0.4990 -2.0287  0.7379
15410TIP3   OH267720   4.068   1.247   5.885  0.2057  0.2430  0.0769
15410TIP3    H167721   4.118   1.309   5.938 -0.8758  0.7035  0.5623
15410TIP3    H267722   3.980   1.248   5.923 -0.6423  0.7214 -1.8258
15411TIP3   OH267723   4.418   0.207   5.501  0.1063  0.0986  0.0875
15411TIP3    H167724   4.335   0.190   5.456  0.1850  0.0824 -0.0499
15411TIP3    H267725   4.437   0.126   5.548  1.2624 -0.7280 -1.7822
15412TIP3   OH267726   0.775   2.102  12.332 -0.3056  0.2006  0.0168
15412TIP3    H167727   0.834   2.029  12.315 -1.4438 -0.8404  0.4909
15412TIP3    H267728   0.796   2.165  12.263  0.3229 -0.7956 -0.7249
15413TIP3   OH267729   3.391   3.530   1.531 -0.1409 -0.3712  0.5471
15413TIP3    H167730   3.456   3.466   1.504  0.6092 -0.2455  1.9720
15413TIP3    H267731   3.328   3.480   1.583  0.9271  0.1582  2.4179
15414TIP3   OH267732   3.875   2.421   5.767  0.0949  0.4688 -0.4130
15414TIP3    H167733   3.807   2.359   5.793  0.2217  0.5811  0.1900
15414TIP3    H267734   3.931   2.371   5.708  0.1352  0.0386 -0.0107
15415TIP3   OH267735   6.135   5.865   2.122  0.1484 -0.0492  0.3459
15415TIP3    H167736   6.162   5.785   2.168  1.3343  0.7792  1.0933
15415TIP3    H267737   6.161   5.936   2.180 -2.2053  0.8457  0.3484
15416TIP3   OH267738   1.235   1.694   1.510 -0.4247  0.1552 -0.2455
15416TIP3    H167739   1.310   1.700   1.451  0.4783  1.5773  0.9852
15416TIP3    H267740   1.243   1.607   1.550 -1.0529 -0.8121 -2.1994
15417TIP3   OH267741   2.516   1.795   3.656 -0.2520  0.3704  0.4769
15417TIP3    H167742   2.500   1.842   3.574  0.2576 -1.0134 -0.4277
15417TIP3    H267743   2.573   1.853   3.706  0.8416  0.4662 -0.8681
15418TIP3   OH267744   2.087   1.011   6.459 -0.4504 -0.1842  0.3272
15418TIP3    H167745   2.001   1.025   6.420 -0.7374 -1.7351  0.3790
15418TIP3    H267746   2.135   0.961   6.393  0.3268  0.4125  0.4236
15419TIP3   OH267747   0.228   4.487   3.024  0.4348 -0.2233 -0.2732
15419TIP3    H167748   0.237   4.574   3.063  1.0606 -1.0266  1.4393
15419TIP3    H267749   0.154   4.496   2.963  1.9544  2.0732 -1.8556
15420TIP3   OH267750   1.746   4.373  14.590 -0.1127  0.1659 -0.2029
15420TIP3    H167751   1.661   4.411  14.569  0.6812  0.9894 -2.0438
15420TIP3    H267752   1.744   4.286  14.552 -0.0747  0.2598 -0.4242
15421TIP3   OH267753   6.625   0.171   5.950 -0.2116  0.2647 -0.2460
15421TIP3    H167754   6.637   0.251   5.899  3.4239 -0.6306 -0.9249
15421TIP3    H267755   6.595   0.106   5.886  0.7443  0.0749 -0.5017
15422TIP3   OH267756   1.751   1.329  11.165  0.5168  0.0315  0.3893
15422TIP3    H167757   1.764   1.240  11.133  2.3309  0.2229  0.5439
15422TIP3    H267758   1.657   1.333  11.186  0.1567 -1.4278 -0.8048
15423TIP3   OH267759   4.349   5.444  12.247  0.2151  0.4784  0.6502
15423TIP3    H167760   4.264   5.486  12.260  0.4155  0.7948  0.9550
15423TIP3    H267761   4.410   5.517  12.235  0.3158  0.2328 -0.3692
15424TIP3   OH267762   4.654   6.580   3.199  0.2017  0.6447  0.4691
15424TIP3    H167763   4.718   6.649   3.187  0.4238  0.4410  0.4733
15424TIP3    H267764   4.644   6.540   3.113  0.9673 -0.0923  0.7201
15425TIP3   OH267765   1.973   2.514  12.393 -0.0695  0.5913 -0.2844
15425TIP3    H167766   2.051   2.557  12.358  0.4400 -0.1115 -0.0194
15425TIP3    H267767   1.903   2.537  12.331  0.3326  1.2561 -0.4964
15426TIP3   OH267768   0.557   4.045  16.881  0.3453  0.0761 -0.1078
15426TIP3    H167769   0.548   4.104  16.806  0.4522  0.8058  0.4400
15426TIP3    H267770   0.546   4.102  16.957 -0.7407 -0.8189  0.4226
15427TIP3   OH267771   4.029   0.905   3.841  0.3146  0.1896 -0.1844
15427TIP3    H167772   3.963   0.835   3.839 -2.5262  2.7127  1.7920
15427TIP3    H267773   4.023   0.946   3.754  1.1648 -1.2336 -0.9346
15428TIP3   OH267774   0.086   0.876  12.269  0.0426  0.5212  0.2947
15428TIP3    H167775   0.042   0.923  12.339 -1.2508 -0.2918  0.0381
15428TIP3    H267776   0.044   0.907  12.189  1.0483  0.9370 -0.0898
15429TIP3   OH267777   2.284   5.363   2.519 -0.2708 -0.5546 -0.2736
15429TIP3    H167778   2.354   5.413   2.562 -0.2941 -0.8918  0.1617
15429TIP3    H267779   2.320   5.340   2.433 -0.0554 -0.2578 -0.2644
15430TIP3   OH267780   5.263   4.906   1.305 -0.9650  0.6854  0.1492
15430TIP3    H167781   5.237   4.891   1.214  0.3950  0.4372 -0.2041
15430TIP3    H267782   5.294   4.996   1.307  0.7934  0.0963 -0.0595
15431TIP3   OH267783   1.115   4.101  14.861 -0.6689 -0.0405 -0.0739
15431TIP3    H167784   1.151   4.188  14.844  1.8006 -1.1148 -0.6128
15431TIP3    H267785   1.136   4.084  14.953  0.2766 -0.6954 -0.4049
15432TIP3   OH267786   3.727   4.068   4.521 -0.5787  0.5814  0.5944
15432TIP3    H167787   3.731   3.973   4.510 -0.1430  0.6291  0.3337
15432TIP3    H267788   3.817   4.094   4.537 -0.4869  1.1094 -0.7078
15433TIP3   OH267789   4.112   5.932  15.722 -0.6692  0.2484  0.2682
15433TIP3    H167790   4.189   5.876  15.730 -0.4201  0.7039  1.0991
15433TIP3    H267791   4.068   5.924  15.806 -0.9360  0.8543  0.1842
15434TIP3   OH267792   3.649   1.596  12.113  0.3031 -0.0754 -0.1261
15434TIP3    H167793   3.588   1.668  12.127  1.1035  0.2602  1.7969
15434TIP3    H267794   3.722   1.634  12.065 -0.1810 -0.0810 -0.8823
15435TIP3   OH267795   0.008   2.350   2.695 -0.0930 -0.3092  0.3844
15435TIP3    H167796   0.015   2.444   2.712 -0.5467 -0.2626  0.3243
15435TIP3    H267797   0.079   2.332   2.633 -0.1262  0.0354  0.2403
15436TIP3   OH267798   5.611   5.695  14.597 -0.2721  0.2033 -0.1678
15436TIP3    H167799   5.550   5.762  14.626 -1.2492 -0.4599 -0.6449
15436TIP3    H267800   5.670   5.681  14.671 -0.4660  1.1210  0.1560
15437TIP3   OH267801   1.349   6.465   0.143  0.4415 -1.0175 -0.6844
15437TIP3    H167802   1.348   6.544   0.088  1.3382 -0.2384  0.4194
15437TIP3    H267803   1.437   6.431   0.134  1.7670  1.1024  3.0453
15438TIP3   OH267804   2.929   5.030  11.926  0.5525  0.3022 -0.2459
15438TIP3    H167805   2.950   5.085  11.851 -0.9667 -1.3089 -1.9302
15438TIP3    H267806   3.013   4.997  11.957  1.2800  1.8596 -0.5268
15439TIP3   OH267807   1.336   2.740   1.625 -0.4533  0.5029  0.0249
15439TIP3    H167808   1.370   2.825   1.652  0.8032 -0.7795  2.7724
15439TIP3    H267809   1.410   2.680   1.639 -1.6775 -1.2261 -0.7123
15440TIP3   OH267810   0.851   1.034  14.233 -0.4394 -0.1468  0.1121
15440TIP3    H167811   0.759   1.027  14.257 -0.8653 -1.7208 -1.7717
15440TIP3    H267812   0.860   0.975  14.158  2.0684  0.1086  0.1710
15441TIP3   OH267813   6.032   4.401   2.546 -0.1983 -0.2210  0.3920
15441TIP3    H167814   6.024   4.341   2.620  1.9609  0.4127  1.1648
15441TIP3    H267815   6.069   4.347   2.476  1.9721  0.2352  1.1604
15442TIP3   OH267816   6.302   6.715  15.184 -0.1981  0.0497 -0.3130
15442TIP3    H167817   6.331   6.775  15.115 -0.4136 -0.7092 -1.0706
15442TIP3    H267818   6.306   6.629  15.143  0.1540 -0.4590  0.7836
15443TIP3   OH267819   1.662   5.549   5.893 -0.0380  0.1221 -0.1186
15443TIP3    H167820   1.606   5.620   5.925  1.2344  0.8689  0.4584
15443TIP3    H267821   1.719   5.590   5.828  1.0058 -0.2728  0.5411
15444TIP3   OH267822   2.411   3.892  16.320 -0.5338  0.1079  0.7437
15444TIP3    H167823   2.503   3.882  16.298 -1.0623 -2.5591 -0.5049
15444TIP3    H267824   2.381   3.967  16.269  1.4474  2.4935  2.9525
15445TIP3   OH267825   2.504   0.713  13.333  0.1021  0.5466 -0.1405
15445TIP3    H167826   2.527   0.761  13.254 -0.1447  2.9190  1.1809
15445TIP3    H267827   2.516   0.621  13.310 -0.6184  1.1621 -3.1224
15446TIP3   OH267828   5.133   4.449   6.118 -0.1419 -0.5260 -0.1082
15446TIP3    H167829   5.206   4.482   6.065  0.6373  0.2777  1.4247
15446TIP3    H267830   5.083   4.527   6.141 -0.4102 -0.8575  0.4404
15447TIP3   OH267831   0.518   2.763  16.270  0.1670  0.8984  0.5612
15447TIP3    H167832   0.432   2.741  16.233  0.7946 -0.0289 -0.3716
15447TIP3    H267833   0.498   2.820  16.344 -1.1399  2.2259 -0.7830
15448TIP3   OH267834   3.677   0.458   0.058 -0.2741 -0.2979 -0.0873
15448TIP3    H167835   3.682   0.519   0.132 -1.2419 -0.4065  0.0729
15448TIP3    H267836   3.613   0.498  -0.001  0.8184  0.0104 -1.0754
15449TIP3   OH267837   5.118   4.804  16.134  0.6129 -0.3645 -0.3168
15449TIP3    H167838   5.090   4.892  16.111 -2.8494 -0.9898  1.0627
15449TIP3    H267839   5.072   4.747  16.072 -1.8821 -1.4803  2.3788
15450TIP3   OH267840   6.425   5.849   3.612  0.4655 -0.3985  0.4335
15450TIP3    H167841   6.519   5.850   3.628  0.8514 -1.9579 -1.5104
15450TIP3    H267842   6.396   5.764   3.646 -0.1552 -0.1579  0.5173
15451TIP3   OH267843   0.746   4.507  12.589  0.6287  0.5717  0.0582
15451TIP3    H167844   0.753   4.602  12.599  1.8813  0.2924  2.1879
15451TIP3    H267845   0.748   4.492  12.494 -0.2859  2.7069 -0.3167
15452TIP3   OH267846   2.766   1.069   3.733 -0.1590  0.3156 -0.3638
15452TIP3    H167847   2.728   1.122   3.803  0.5058  0.5635 -0.1877
15452TIP3    H267848   2.857   1.097   3.729  0.8559 -2.4976  1.3695
15453TIP3   OH267849   1.914   1.390  14.395  0.1221 -0.7013  0.2349
15453TIP3    H167850   1.994   1.342  14.373  2.4723  3.2578 -0.2306
15453TIP3    H267851   1.912   1.464  14.335 -2.6104  0.6751  1.9049
15454TIP3   OH267852   3.207   3.171   3.216  0.7509 -0.5368 -0.1979
15454TIP3    H167853   3.242   3.235   3.153 -0.1442 -1.8775 -2.1016
15454TIP3    H267854   3.152   3.223   3.274 -0.1590  0.3978 -1.8579
15455TIP3   OH267855   0.023   6.441  11.718 -0.6749  0.6598 -0.5127
15455TIP3    H167856  -0.024   6.387  11.653 -0.0854  0.6660 -0.9532
15455TIP3    H267857   0.009   6.531  11.689  0.5431  0.6050 -1.2910
15456TIP3   OH267858   0.037   0.509   1.306 -0.4331  0.1067  0.1233
15456TIP3    H167859   0.085   0.556   1.375 -2.5357  2.9361 -0.2654
15456TIP3    H267860   0.094   0.434   1.285  1.0795  0.1464  3.6488
15457TIP3   OH267861   3.081   1.862   5.332 -0.7269  0.1524  0.1799
15457TIP3    H167862   3.031   1.781   5.340 -1.5164  0.7587  1.6124
15457TIP3    H267863   3.017   1.928   5.305  0.0420  0.1799 -1.6527
15458TIP3   OH267864   2.287   2.818   0.718 -0.0379  0.5470  0.0829
15458TIP3    H167865   2.229   2.787   0.787 -0.1348 -0.6797 -0.5378
15458TIP3    H267866   2.237   2.887   0.674 -1.0317 -0.4974 -0.4446
15459TIP3   OH267867   4.010   4.912   0.789 -0.2545  1.2898 -0.7904
15459TIP3    H167868   4.071   4.875   0.725 -0.2688 -0.4249  0.1714
15459TIP3    H267869   4.026   5.006   0.785  0.0159  1.1839 -3.0348
15460TIP3   OH267870   0.094   5.298  13.699 -0.2628 -0.0811 -0.4513
15460TIP3    H167871   0.112   5.352  13.776 -0.8164 -0.9216  0.2699
15460TIP3    H267872   0.003   5.317  13.676 -0.2837 -0.2824 -0.5395
15461TIP3   OH267873   6.722   1.724   3.282 -0.5538 -0.2900 -0.1295
15461TIP3    H167874   6.751   1.793   3.341  1.4789 -2.0536  0.9842
15461TIP3    H267875   6.744   1.755   3.194  0.3054  0.4680  0.3582
15462TIP3   OH267876   2.351   2.412  16.406  0.5625  0.3086 -0.1554
15462TIP3    H167877   2.387   2.390  16.321  0.6838  0.0365 -0.0337
15462TIP3    H267878   2.287   2.481  16.388 -1.5704 -1.7549 -0.8687
15463TIP3   OH267879   4.725   0.648  16.383 -0.1176  0.5575  0.0289
15463TIP3    H167880   4.819   0.630  16.391 -0.2961 -1.7492 -2.3700
15463TIP3    H267881   4.683   0.585  16.441 -0.2399  0.6643  0.0550
15464TIP3   OH267882   0.038   0.794  16.797  0.1992 -0.1912 -0.1833
15464TIP3    H167883   0.048   0.706  16.759 -1.5256  0.1028 -1.3856
15464TIP3    H267884   0.010   0.779  16.887 -0.4780 -0.8737 -0.5068
15465TIP3   OH267885   6.032   1.468   0.532  0.0124 -0.0525  0.1627
15465TIP3    H167886   5.961   1.454   0.595  0.2485  0.1029  0.4625
15465TIP3    H267887   6.017   1.401   0.465  0.0130 -0.4987  0.6003
15466TIP3   OH267888   0.233   1.258  16.720 -0.1020  0.2392  0.8694
15466TIP3    H167889   0.219   1.312  16.642  0.0560 -0.3937  0.3948
15466TIP3    H267890   0.294   1.308  16.774  1.4533 -0.2376 -0.3778
15467TIP3   OH267891   1.131   2.139   0.829  0.2896  0.4978  0.6358
15467TIP3    H167892   1.036   2.145   0.823  0.3648  1.4713  0.2050
15467TIP3    H267893   1.160   2.121   0.739  0.5588  1.1165  0.5907
15468TIP3   OH267894   1.124   6.715  13.065  0.6136 -0.1387 -0.0011
15468TIP3    H167895   1.050   6.769  13.040  0.4459 -0.6593 -0.6308
15468TIP3    H267896   1.172   6.700  12.983  0.6917 -0.8874  0.1746
15469TIP3   OH267897   4.531   3.984   0.843  0.4598 -0.2053  0.2300
15469TIP3    H167898   4.572   4.053   0.896  0.4997 -1.4406  1.8386
15469TIP3    H267899   4.569   3.996   0.756 -0.7338  2.8064  0.0595
15470TIP3   OH267900   4.981   5.588   3.491  0.1836  0.2093 -0.0072
15470TIP3    H167901   4.892   5.596   3.526  0.1061  0.9508 -0.3537
15470TIP3    H267902   4.974   5.622   3.401  0.2403 -2.2683 -0.9766
15471TIP3   OH267903   1.378   3.480  11.506 -0.3225 -0.0172 -0.2553
15471TIP3    H167904   1.356   3.487  11.599 -1.4717 -0.0692 -0.5124
15471TIP3    H267905   1.320   3.543  11.464  0.0293 -0.1686 -0.9620
15472TIP3   OH267906   4.370   4.264  11.319 -0.3057  0.2223  0.4819
15472TIP3    H167907   4.319   4.266  11.400 -0.3079  0.1747  0.4817
15472TIP3    H267908   4.448   4.213  11.341 -1.0680 -1.1830  0.0063
15473TIP3   OH267909   0.763   4.550  16.391  0.5260  0.0239 -0.2957
15473TIP3    H167910   0.711   4.614  16.440  2.5481  0.8467  0.8203
15473TIP3    H267911   0.742   4.567  16.299 -0.6168  0.8258  0.1071
15474TIP3   OH267912   3.599   1.978  11.888  0.3725  0.7585  0.4489
15474TIP3    H167913   3.511   1.953  11.918 -0.3875  3.6012  0.7801
15474TIP3    H267914   3.656   1.907  11.917 -1.8666 -1.2995 -0.0898
15475TIP3   OH267915   6.119   2.711  17.037  0.3815  0.2486  0.1444
15475TIP3    H167916   6.175   2.749  16.969 -0.8783  0.9075 -0.5491
15475TIP3    H267917   6.142   2.759  17.117 -0.9058  2.2492 -0.6396
15476TIP3   OH267918   0.179   5.350   6.666 -0.1277 -0.4972  0.3339
15476TIP3    H167919   0.149   5.332   6.755 -2.4408 -1.4895 -0.6169
15476TIP3    H267920   0.121   5.420   6.635 -0.0375 -0.9065 -0.7785
15477TIP3   OH267921   3.252   1.144  16.981 -0.2546  0.5825  0.0637
15477TIP3    H167922   3.177   1.089  17.004  0.6629  0.2096  2.2496
15477TIP3    H267923   3.251   1.215  17.044 -1.3694  3.1149 -2.6994
15478TIP3   OH267924   5.520   6.538   1.333  0.1608 -0.4758  0.6387
15478TIP3    H167925   5.603   6.542   1.285 -0.0631  0.6712  0.3229
15478TIP3    H267926   5.456   6.512   1.267 -0.0396  0.4629  0.4647
15479TIP3   OH267927   5.296   0.266  14.991  0.2798  0.2045 -0.1234
15479TIP3    H167928   5.233   0.326  14.953  0.4601  0.4669 -0.0085
15479TIP3    H267929   5.364   0.257  14.925  0.7205  0.8579  0.2355
15480TIP3   OH267930   3.643   1.913  14.560 -0.2708 -0.3740  0.0224
15480TIP3    H167931   3.586   1.984  14.529  1.1807  1.4169  1.3900
15480TIP3    H267932   3.655   1.931  14.653  1.4721 -1.4874  0.0221
15481TIP3   OH267933   2.987   0.471  11.816  0.2108 -0.8398  0.1627
15481TIP3    H167934   2.933   0.515  11.882 -0.5008 -1.2540 -0.1370
15481TIP3    H267935   3.050   0.537  11.789 -1.5346  0.3479 -1.0781
15482TIP3   OH267936   2.846   4.264  14.267 -0.1713 -0.8220  0.3901
15482TIP3    H167937   2.940   4.264  14.289 -0.0293  0.6452 -0.1647
15482TIP3    H267938   2.809   4.333  14.321 -0.4599  0.3946 -1.3459
15483TIP3   OH267939   4.411   2.842  13.599  0.0421 -0.0462  0.7929
15483TIP3    H167940   4.474   2.771  13.607  0.4069  0.2493  0.6044
15483TIP3    H267941   4.425   2.895  13.677 -0.1334 -0.1085  0.8666
15484TIP3   OH267942   0.629   6.206   0.443 -0.0296 -0.1916 -0.2011
15484TIP3    H167943   0.548   6.250   0.420  0.5788 -0.7816 -3.7154
15484TIP3    H267944   0.648   6.149   0.369  2.7006 -1.3606  1.2977
15485TIP3   OH267945   5.943   3.778   2.838 -0.1875 -0.5054 -0.0523
15485TIP3    H167946   5.936   3.821   2.923  1.5089 -1.0663  0.3723
15485TIP3    H267947   5.857   3.736   2.825  0.2597 -2.2153  2.3473
15486TIP3   OH267948   1.168   4.867   1.472  0.0754  0.2283 -0.1824
15486TIP3    H167949   1.108   4.797   1.499  0.0733 -0.8443 -2.7322
15486TIP3    H267950   1.228   4.877   1.545 -1.4471 -0.7268  1.2346
15487TIP3   OH267951   0.541   2.278  11.639  0.5526 -0.4978 -0.4968
15487TIP3    H167952   0.455   2.240  11.653  1.0018 -1.3931 -0.0983
15487TIP3    H267953   0.534   2.368  11.671  0.3182 -1.1591  1.3856
15488TIP3   OH267954   3.109   4.502   4.578  0.0725  0.1734  0.8869
15488TIP3    H167955   3.014   4.511   4.587  0.0857  0.7051  0.4965
15488TIP3    H267956   3.125   4.506   4.484  0.1749 -3.0801  0.7063
15489TIP3   OH267957   0.220   2.808  12.483  0.4711  0.7616 -0.2374
15489TIP3    H167958   0.255   2.745  12.545 -0.5049 -0.1541 -0.6026
15489TIP3    H267959   0.247   2.775  12.397  0.5441  1.2223 -0.3975
15490TIP3   OH267960   2.873   6.443   2.838  0.4078  0.0683 -0.3835
15490TIP3    H167961   2.785   6.454   2.803  0.2355 -2.3183 -0.7507
15490TIP3    H267962   2.906   6.532   2.848 -1.3665  0.9246 -1.9605
15491TIP3   OH267963   0.795   0.201  11.864 -0.4378 -0.0283 -0.3620
15491TIP3    H167964   0.716   0.172  11.908 -0.6577 -1.4783 -1.6502
15491TIP3    H267965   0.865   0.190  11.929 -1.2806  1.3040  0.7877
15492TIP3   OH267966   2.730   0.998   5.088 -0.2033  0.1993  0.8401
15492TIP3    H167967   2.798   0.989   5.155 -0.6018 -0.0648  1.2149
15492TIP3    H267968   2.671   1.065   5.124  1.5040  2.7353 -0.8884
15493TIP3   OH267969   5.603   2.506   0.287  0.3794  0.1520 -0.0105
15493TIP3    H167970   5.602   2.595   0.251 -2.6010  0.8817  1.6403
15493TIP3    H267971   5.624   2.519   0.380 -2.2892 -0.5665  0.7500
15494TIP3   OH267972   2.683   3.641   0.216  0.5005  0.2638  0.0533
15494TIP3    H167973   2.639   3.724   0.236 -0.9168 -0.3853 -0.2706
15494TIP3    H267974   2.749   3.632   0.285 -1.3362  0.2109  1.8557
15495TIP3   OH267975   4.307   5.017  13.028  0.3938  0.3126 -0.0925
15495TIP3    H167976   4.260   4.970  13.097  0.3239  1.2031  0.4782
15495TIP3    H267977   4.296   4.963  12.950  0.1366 -0.5062  0.5066
15496TIP3   OH267978   5.555   0.617  16.939 -0.1501  0.1364 -0.0343
15496TIP3    H167979   5.566   0.526  16.912 -1.0970 -0.1033  0.3623
15496TIP3    H267980   5.479   0.648  16.890 -2.4235 -0.5568  2.8922
15497TIP3   OH267981   1.436   3.434  14.026 -0.1852  0.4543 -0.2685
15497TIP3    H167982   1.497   3.407  14.095 -0.7949 -1.5379 -0.5029
15497TIP3    H267983   1.437   3.362  13.963 -0.7232  1.6258 -1.6464
15498TIP3   OH267984   6.495   3.519  10.547  0.1385  0.8356 -0.6289
15498TIP3    H167985   6.413   3.565  10.563 -1.2607 -1.4660 -0.8851
15498TIP3    H267986   6.528   3.497  10.634 -1.1067 -0.8670 -0.5526
15499TIP3   OH267987   5.110   3.550  14.060  0.0735  0.1706  0.8088
15499TIP3    H167988   5.092   3.644  14.050 -2.2327 -0.5372 -2.1308
15499TIP3    H267989   5.197   3.538  14.021  0.7927  1.2280  2.0612
15500TIP3   OH267990   4.957   4.504   4.682  0.5264  0.4242  0.1730
15500TIP3    H167991   4.871   4.523   4.720  0.8327  2.3876 -0.0655
15500TIP3    H267992   4.937   4.454   4.603 -0.3900  0.6235  0.2706
15501TIP3   OH267993   4.710   0.489  10.527  0.8481 -0.1245 -0.2685
15501TIP3    H167994   4.740   0.574  10.561 -0.3810  0.3768 -0.4205
15501TIP3    H267995   4.669   0.447  10.603  0.5384 -0.1422 -0.4450
15502TIP3   OH267996   1.263   2.898   0.151  0.2388 -0.0640 -0.4607
15502TIP3    H167997   1.345   2.871   0.193 -0.4035 -1.9458 -0.3615
15502TIP3    H267998   1.261   2.993   0.161  1.7357 -0.1436  0.7622
15503TIP3   OH267999   4.888   6.600   1.522 -0.3504 -0.0378  0.4486
15503TIP3    H168000   4.933   6.538   1.464 -0.7802 -0.7266  0.8353
15503TIP3    H268001   4.956   6.658   1.555 -0.2000  0.7809 -1.2693
15504TIP3   OH268002   2.294   5.937  10.721  0.3569  0.3214 -0.1975
15504TIP3    H168003   2.273   6.025  10.689  0.2506  0.5507  0.5033
15504TIP3    H268004   2.283   5.881  10.644  0.6347  0.9490 -0.7002
15505TIP3   OH268005   4.742   4.264   3.220 -0.1244  0.3348 -0.1931
15505TIP3    H168006   4.793   4.198   3.173 -0.3003  0.6607 -0.8588
15505TIP3    H268007   4.730   4.334   3.156 -0.7986  0.5699  0.1866
15506TIP3   OH268008   5.071   6.608   1.844 -0.1608  0.1948  0.0481
15506TIP3    H168009   5.086   6.532   1.901 -2.1604  0.1708  0.5875
15506TIP3    H268010   5.098   6.579   1.757  0.4981 -0.6299  0.5185
15507TIP3   OH268011   1.186   2.223  13.552  0.1789  0.0364 -0.1810
15507TIP3    H168012   1.096   2.255  13.550  0.4030  0.6615 -0.3581
15507TIP3    H268013   1.196   2.173  13.471  0.7380  2.0391 -1.3813
15508TIP3   OH268014   1.386   1.255  16.467  0.4266 -0.1511 -0.1045
15508TIP3    H168015   1.427   1.183  16.419  0.5166  0.4821 -0.9790
15508TIP3    H268016   1.449   1.277  16.536  0.8086 -0.2989 -0.4064
15509TIP3   OH268017   0.026   4.705   3.548  0.2437 -0.3305 -0.0296
15509TIP3    H168018  -0.000   4.703   3.456  0.3270 -1.7633 -0.0370
15509TIP3    H268019   0.121   4.696   3.546  0.4111  1.2651  0.1425
15510TIP3   OH268020   1.720   2.921   5.051 -0.1830  0.0649  0.1386
15510TIP3    H168021   1.634   2.880   5.043  0.8625 -2.2840  0.4644
15510TIP3    H268022   1.750   2.931   4.960  0.4114 -1.8066  0.1196
15511TIP3   OH268023   3.140   1.389  14.041  0.2850 -0.5699  0.3861
15511TIP3    H168024   3.125   1.478  14.009 -0.6990 -0.8724 -0.0245
15511TIP3    H268025   3.178   1.343  13.966 -1.8123 -1.2198 -0.3192
15512TIP3   OH268026   6.128   1.686  11.544 -0.3130  0.3393 -0.6474
15512TIP3    H168027   6.200   1.642  11.498  0.2107  2.1902 -1.6831
15512TIP3    H268028   6.049   1.650  11.505  0.0596 -0.8802 -0.3036
15513TIP3   OH268029   3.623   3.373   1.510 -0.7042  0.4986  0.5535
15513TIP3    H168030   3.619   3.283   1.477  1.0853  0.4968  0.2507
15513TIP3    H268031   3.670   3.366   1.593 -1.0388  1.0893  0.7960
15514TIP3   OH268032   5.701   4.865  12.567 -0.2997  0.1048  0.2789
15514TIP3    H168033   5.768   4.871  12.635 -2.3711 -0.2536  2.3853
15514TIP3    H268034   5.618   4.864  12.614 -1.8834  1.6654 -2.3238
15515TIP3   OH268035   0.297   1.125   1.008  0.3042 -0.1658  0.3910
15515TIP3    H168036   0.352   1.053   0.978 -0.4449 -0.0188 -1.3892
15515TIP3    H268037   0.207   1.096   0.991 -0.0812  0.4934  1.2339
15516TIP3   OH268038   2.339   4.106   2.113  0.2574  0.0481 -0.4925
15516TIP3    H168039   2.410   4.140   2.168  1.0642 -0.1497 -1.3947
15516TIP3    H268040   2.357   4.140   2.026 -0.9208  0.2189 -0.6775
15517TIP3   OH268041   6.361   5.719  14.947 -0.1724 -0.0956  0.5617
15517TIP3    H168042   6.385   5.778  14.875 -0.2773 -0.1012  0.5220
15517TIP3    H268043   6.365   5.774  15.025 -0.3524 -0.0143  0.5146
15518TIP3   OH268044   0.031   1.665   5.099 -0.1765 -0.6048  0.1428
15518TIP3    H168045   0.117   1.693   5.129 -0.4354  0.1537  0.1891
15518TIP3    H268046  -0.020   1.745   5.095 -0.0852 -0.6425 -2.5812
15519TIP3   OH268047   1.821   2.345   4.485  0.1050 -0.3166  0.1010
15519TIP3    H168048   1.831   2.346   4.580 -0.5833  1.7855  0.1931
15519TIP3    H268049   1.903   2.381   4.452  0.9250 -2.4155 -0.1883
15520TIP3   OH268050   1.131   4.905   3.021  0.2501  0.7816 -0.1055
15520TIP3    H168051   1.193   4.841   3.057 -0.9252  0.1167  0.7607
15520TIP3    H268052   1.186   4.979   2.996  1.4791 -0.0586  0.0540
15521TIP3   OH268053   4.739   6.000  17.195  0.2252  0.4535  0.1397
15521TIP3    H168054   4.775   5.992  17.107  0.3690 -0.8988  0.3154
15521TIP3    H268055   4.815   5.988  17.253 -0.3428 -1.6030  0.4943
15522TIP3   OH268056   1.280   0.197   5.757  0.3481  0.4793  0.6268
15522TIP3    H168057   1.339   0.154   5.695 -0.6070  0.0818 -0.0221
15522TIP3    H268058   1.323   0.280   5.777  0.3201  0.9465 -1.1337
15523TIP3   OH268059   6.182   5.594  14.379 -0.0182 -0.1715  0.2473
15523TIP3    H168060   6.156   5.542  14.455 -1.9475  1.5391  0.7986
15523TIP3    H268061   6.179   5.685  14.409 -1.4866  0.5795 -1.9987
15524TIP3   OH268062   1.855   6.614   6.683  0.5492 -0.5005 -0.0008
15524TIP3    H168063   1.811   6.542   6.638  0.9416 -1.4770  1.1301
15524TIP3    H268064   1.795   6.688   6.676 -0.4622 -1.3229 -0.0259
15525TIP3   OH268065   5.188   3.189  13.574 -0.2480 -0.0747  0.6117
15525TIP3    H168066   5.263   3.199  13.515  1.2231 -1.2405  2.2441
15525TIP3    H268067   5.159   3.099  13.559 -1.8141  0.5930 -0.5381
15526TIP3   OH268068   0.826   5.542  17.054 -0.2361  0.4294 -0.4232
15526TIP3    H168069   0.865   5.541  17.141  1.2738 -1.0849 -1.0847
15526TIP3    H268070   0.897   5.517  16.995 -1.8646 -1.1689 -1.8058
15527TIP3   OH268071   6.610   3.061  15.862 -0.6634  0.0780  0.2545
15527TIP3    H168072   6.514   3.062  15.860 -0.6408  2.4624 -0.3119
15527TIP3    H268073   6.637   3.058  15.771 -0.1722 -0.9502  0.4193
15528TIP3   OH268074   6.660   6.320  14.046  0.2378 -0.2539 -0.6773
15528TIP3    H168075   6.570   6.350  14.062 -0.3139 -3.4884  2.9285
15528TIP3    H268076   6.713   6.399  14.053 -1.9563  1.1454  0.9407
15529TIP3   OH268077   5.115   6.182   1.346 -0.6027 -0.3066 -0.0158
15529TIP3    H168078   5.178   6.113   1.324  0.7331  0.2113  2.0316
15529TIP3    H268079   5.040   6.136   1.382  0.3950 -0.7100  1.6034
15530TIP3   OH268080   3.922   4.410   2.064  0.6085  0.5131 -0.3609
15530TIP3    H168081   3.873   4.428   2.145  1.7725 -2.1149  0.9975
15530TIP3    H268082   4.000   4.465   2.070  0.7818  0.1859  0.4003
15531TIP3   OH268083   4.864   4.508   4.261 -0.5306  0.1833  0.3718
15531TIP3    H168084   4.911   4.470   4.336 -0.2294  1.1899  0.7006
15531TIP3    H268085   4.914   4.479   4.185 -0.5650 -0.4536  0.5864
15532TIP3   OH268086   3.710   4.951   4.296  0.4873 -0.8030  0.1448
15532TIP3    H168087   3.672   4.880   4.246 -0.3611  1.4814 -2.5588
15532TIP3    H268088   3.792   4.915   4.331 -1.8879 -4.3595  2.3860
15533TIP3   OH268089   0.571   3.878  12.338  0.4066  0.0769 -0.2113
15533TIP3    H168090   0.517   3.868  12.416  0.0215 -1.1540 -0.6130
15533TIP3    H268091   0.524   3.940  12.283  0.4267  0.5611  0.3180
15534TIP3   OH268092   5.277   5.416   2.004  0.2511  0.0355  0.7664
15534TIP3    H168093   5.304   5.467   1.928  2.6250 -0.4969  1.2167
15534TIP3    H268094   5.190   5.381   1.981  0.2960  1.1055 -1.0629
15535TIP3   OH268095   5.698   5.885  11.520 -0.1523  0.1645  0.3850
15535TIP3    H168096   5.766   5.893  11.453 -0.1841 -1.5412  0.1206
15535TIP3    H268097   5.645   5.964  11.511  1.0101  0.8754 -0.2908
15536TIP3   OH268098   1.318   2.422   3.290 -0.1500 -0.3013 -0.6356
15536TIP3    H168099   1.407   2.442   3.318 -0.8792  2.0639  0.1076
15536TIP3    H268100   1.304   2.331   3.316  1.8673 -0.5348 -0.3152
15537TIP3   OH268101   6.350   0.891  12.723 -0.2618  0.3162  0.0093
15537TIP3    H168102   6.417   0.889  12.791  1.0616 -0.5413 -1.3072
15537TIP3    H268103   6.369   0.970  12.673 -0.3532  0.1745 -0.2493
15538TIP3   OH268104   4.773   0.114   1.613  0.4022  0.6113 -0.5987
15538TIP3    H168105   4.765   0.048   1.682 -0.1962  1.7183  0.4251
15538TIP3    H268106   4.844   0.083   1.558 -0.0777 -1.0329 -0.3083
15539TIP3   OH268107   3.941   6.322   2.714 -0.1307  0.2489 -0.0856
15539TIP3    H168108   3.893   6.303   2.633 -2.1228  0.1287  1.0804
15539TIP3    H268109   4.003   6.249   2.722 -1.3829 -0.8798 -0.4177
15540TIP3   OH268110   0.027   5.364  14.249 -0.1612 -0.1340  0.1011
15540TIP3    H168111   0.049   5.400  14.335 -0.6069 -0.7665  0.4844
15540TIP3    H268112  -0.034   5.426  14.212  0.8983  0.7222 -0.2308
15541TIP3   OH268113   2.362   2.184   5.697  0.5729  0.0766  0.1010
15541TIP3    H168114   2.288   2.129   5.722 -0.1888  0.2858 -1.6284
15541TIP3    H268115   2.412   2.195   5.777 -1.4638  0.2265  1.3895
15542TIP3   OH268116   1.152   2.857   4.099 -0.6559 -0.5046 -0.1388
15542TIP3    H168117   1.118   2.946   4.097 -0.2684 -0.1905  3.7246
15542TIP3    H268118   1.079   2.805   4.134  0.0667 -1.2090  0.3301
15543TIP3   OH268119   4.908   0.180  13.050  0.0343  0.5850  0.2020
15543TIP3    H168120   4.976   0.237  13.013  0.8935 -1.2146 -1.0855
15543TIP3    H268121   4.946   0.092  13.046 -1.8966 -0.2971  0.6346
15544TIP3   OH268122   4.840   6.372  12.698  0.0303  0.1105 -0.6730
15544TIP3    H168123   4.755   6.409  12.724  0.0020 -0.1773 -0.3553
15544TIP3    H268124   4.843   6.384  12.603 -0.4910 -0.1370 -0.7230
15545TIP3   OH268125   5.343   5.001   2.314  0.2407  0.0153  0.1337
15545TIP3    H168126   5.389   5.071   2.267 -0.5991  0.8133  0.4711
15545TIP3    H268127   5.252   5.031   2.318  0.2860 -0.0706  2.2281
15546TIP3   OH268128   0.239   0.791   6.059  0.6774 -0.2169 -0.0907
15546TIP3    H168129   0.230   0.750   5.973  0.7338  0.2533 -0.3231
15546TIP3    H268130   0.302   0.736   6.105 -0.7958 -1.5941  0.3416
15547TIP3   OH268131   0.562   4.514   1.623 -0.2686  0.0758 -0.1785
15547TIP3    H168132   0.574   4.516   1.718  0.8101  1.5991 -0.3281
15547TIP3    H268133   0.496   4.580   1.605  1.4802  1.7466 -0.7144
15548TIP3   OH268134   6.457   3.035  13.937  0.5909 -0.1412  0.0399
15548TIP3    H168135   6.474   3.105  13.875 -0.9085  0.7340  0.5893
15548TIP3    H268136   6.430   2.960  13.883 -0.3638  0.5072 -0.3893
15549TIP3   OH268137   6.011   5.469   5.771  0.3122 -0.4341  0.3491
15549TIP3    H168138   5.924   5.507   5.783  0.5887 -0.0007  1.0077
15549TIP3    H268139   5.998   5.375   5.786 -0.9060 -1.0667 -3.9454
15550TIP3   OH268140   1.042   1.863   1.448  0.3316  0.6375 -0.0200
15550TIP3    H168141   1.101   1.790   1.468 -1.6297 -0.7572  0.8094
15550TIP3    H268142   1.034   1.910   1.532 -0.6570  0.1306  0.1743
15551TIP3   OH268143   4.261   6.113   1.794  0.0934 -0.0667 -0.1494
15551TIP3    H168144   4.341   6.165   1.784  1.0788 -1.6921 -0.9255
15551TIP3    H268145   4.198   6.156   1.736  0.6384  0.7524 -0.1576
15552TIP3   OH268146   2.170   4.609  15.184 -0.0495  0.7711  0.0765
15552TIP3    H168147   2.167   4.548  15.110  0.0969  0.9155 -0.0491
15552TIP3    H268148   2.100   4.578  15.242  0.3381  0.1978  0.2400
15553TIP3   OH268149   1.682   1.336   2.698  0.1435  0.3979 -0.0711
15553TIP3    H168150   1.718   1.272   2.637 -1.3167  0.4522 -1.0193
15553TIP3    H268151   1.649   1.285   2.771  1.7150  0.3139  0.5879
15554TIP3   OH268152   4.454   3.767  12.609  0.1879 -0.3964 -0.5284
15554TIP3    H168153   4.484   3.812  12.688 -0.0099 -0.6606 -0.3020
15554TIP3    H268154   4.475   3.675  12.624 -0.5550 -0.5559 -0.4601
15555TIP3   OH268155   3.056   4.416   1.101 -0.5009  0.7328  0.0994
15555TIP3    H168156   3.133   4.361   1.090 -0.2211  1.1785 -0.1695
15555TIP3    H268157   3.090   4.505   1.104 -0.9768  0.9125  0.2866
15556TIP3   OH268158   0.027   4.251   4.417  0.2630 -0.0003  1.1069
15556TIP3    H168159   0.082   4.173   4.421 -1.8238 -1.5158  0.9088
15556TIP3    H268160  -0.023   4.250   4.499  0.0463  1.0146  0.9994
15557TIP3   OH268161   2.374   1.902  11.707  0.2116  0.7623  0.4772
15557TIP3    H168162   2.453   1.955  11.701  0.4525  0.2935 -0.6633
15557TIP3    H268163   2.302   1.963  11.690  0.4584  0.8259 -0.3611
15558TIP3   OH268164   3.179   1.209   4.647 -0.7083  0.0432 -0.5347
15558TIP3    H168165   3.184   1.139   4.582  0.1364 -0.9487  0.5735
15558TIP3    H268166   3.093   1.198   4.688 -1.2727  0.7194 -1.5446
15559TIP3   OH268167   5.599   1.724  16.299  0.9282 -1.0405  0.2261
15559TIP3    H168168   5.532   1.748  16.235  0.3493 -2.1833  0.3824
15559TIP3    H268169   5.681   1.755  16.260  0.5023 -1.0965 -0.7461
15560TIP3   OH268170   6.425   6.047  13.136 -0.8777  0.3432  0.2425
15560TIP3    H168171   6.450   6.140  13.139 -1.2777  0.5240 -1.6887
15560TIP3    H268172   6.493   6.006  13.082 -0.2378 -0.6638  1.7726
15561TIP3   OH268173   1.471   1.058  12.965 -0.5121  0.2876 -0.2061
15561TIP3    H168174   1.564   1.040  12.971 -0.6440 -0.5227 -0.5037
15561TIP3    H268175   1.459   1.141  13.012  0.1413 -0.3125  1.0528
15562TIP3   OH268176   5.448   5.583   0.745 -0.1339 -0.4158  0.0158
15562TIP3    H168177   5.390   5.633   0.688  0.5101  0.2757 -0.0498
15562TIP3    H268178   5.389   5.533   0.802 -0.7904  0.2116 -0.1021
15563TIP3   OH268179   6.720   0.274  12.717  0.7350 -0.0237  0.8695
15563TIP3    H168180   6.627   0.290  12.703  0.5741 -0.1236  1.8039
15563TIP3    H268181   6.764   0.350  12.679  0.1815  0.8471  1.9445
15564TIP3   OH268182   1.817   5.551   1.173  0.5512  0.4896 -0.7493
15564TIP3    H168183   1.723   5.539   1.175  0.4702  1.1970  0.8770
15564TIP3    H268184   1.842   5.538   1.082 -0.9118 -1.2207 -0.9238
15565TIP3   OH268185   2.183   2.809  14.124 -0.2588  0.3694  0.5346
15565TIP3    H168186   2.158   2.809  14.031  1.6219  1.0513 -0.0002
15565TIP3    H268187   2.203   2.901  14.142  0.3745  0.0738  1.3329
15566TIP3   OH268188   6.532   6.614   0.655 -0.0549 -0.4429  0.6876
15566TIP3    H168189   6.444   6.637   0.627  0.6745  0.8926 -0.6392
15566TIP3    H268190   6.575   6.584   0.575  0.3123 -2.3570  1.5794
15567TIP3   OH268191   4.064   0.740   1.212 -0.7499 -0.3723  0.0643
15567TIP3    H168192   3.975   0.770   1.230 -0.3783  0.2940  0.8252
15567TIP3    H268193   4.092   0.696   1.292  0.9639  2.7343  1.2759
15568TIP3   OH268194   0.091   6.685  15.104 -0.3049  1.4145 -0.0451
15568TIP3    H168195   0.178   6.724  15.111  0.3636  0.6223 -3.0523
15568TIP3    H268196   0.034   6.758  15.079 -0.2057  1.6438  0.4054
15569TIP3   OH268197   4.537   3.827   2.573  0.5543 -0.2799 -0.0582
15569TIP3    H168198   4.513   3.919   2.563 -0.1918 -0.2722  1.5666
15569TIP3    H268199   4.486   3.797   2.648  1.1627 -1.8897 -0.2664
15570TIP3   OH268200   6.723   5.036  14.029  0.5784 -0.2483 -0.0105
15570TIP3    H168201   6.653   4.972  14.042  0.0176  0.2495 -0.5521
15570TIP3    H268202   6.781   4.994  13.965  0.2331 -0.2357 -0.3341
15571TIP3   OH268203   2.406   3.031   1.387 -0.1634 -0.0172  0.1093
15571TIP3    H168204   2.390   2.955   1.332 -1.9821 -0.9977  1.9012
15571TIP3    H268205   2.486   3.070   1.353  0.8432 -2.7802 -0.7991
15572TIP3   OH268206   6.586   4.346   6.244 -0.4380  0.3194 -0.1201
15572TIP3    H168207   6.627   4.330   6.329  1.3604  2.9251 -0.4372
15572TIP3    H268208   6.538   4.428   6.256 -1.2967 -0.0092 -1.2526
15573TIP3   OH268209   3.186   4.352   3.003 -0.2415 -0.0287 -0.0276
15573TIP3    H168210   3.175   4.332   2.910 -1.9731  0.7210 -0.0067
15573TIP3    H268211   3.202   4.267   3.044 -0.9280 -0.5565 -0.8232
15574TIP3   OH268212   5.492   4.923   3.848 -0.3004 -0.0166 -0.1434
15574TIP3    H168213   5.543   4.934   3.929  0.2577  1.6895 -0.6981
15574TIP3    H268214   5.537   4.853   3.801  1.9071  1.8209 -0.8741
15575TIP3   OH268215   3.870   2.978  15.088  0.5473  0.1343 -0.5469
15575TIP3    H168216   3.785   3.015  15.110  0.6864  0.2559 -0.2191
15575TIP3    H268217   3.860   2.946  14.998 -0.3840 -1.4201  0.0966
15576TIP3   OH268218   6.484   0.795  16.678  0.0612  0.4373  0.4554
15576TIP3    H168219   6.568   0.763  16.645 -0.8675  0.3667 -1.9444
15576TIP3    H268220   6.503   0.882  16.713  1.6051 -0.5946  2.2658
15577TIP3   OH268221   1.566   3.507  17.210 -0.5592  0.4111 -0.9219
15577TIP3    H168222   1.654   3.543  17.196  0.7919 -1.5327  2.0101
15577TIP3    H268223   1.566   3.425  17.160  0.1624 -0.7340  0.8966
15578TIP3   OH268224   2.990   3.290  14.788  0.2636 -0.1410  0.1646
15578TIP3    H168225   2.983   3.371  14.739 -2.0641 -0.4222 -0.0566
15578TIP3    H268226   2.929   3.230  14.744 -0.6636 -0.9013  2.3759
15579TIP3   OH268227   3.236   2.848  12.292 -0.0666 -0.0430  0.1849
15579TIP3    H168228   3.191   2.905  12.229  1.8189  0.2149 -0.9809
15579TIP3    H268229   3.193   2.764  12.282 -1.2554  0.5630  0.1378
15580TIP3   OH268230   5.511   1.519   3.726 -0.0276 -0.1781 -0.6535
15580TIP3    H168231   5.518   1.432   3.688  0.6190 -0.8674  0.9646
15580TIP3    H268232   5.432   1.515   3.781  0.4407 -0.0125  0.0429
15581TIP3   OH268233   2.646   3.203   4.799  0.4876 -0.7316  0.0121
15581TIP3    H168234   2.733   3.220   4.834  0.2949 -0.0871  0.1946
15581TIP3    H268235   2.596   3.282   4.821 -0.3017 -1.3428  0.4433
15582TIP3   OH268236   1.943   2.868   4.508 -0.3624  0.2989 -0.7204
15582TIP3    H168237   1.948   2.798   4.573  2.4041  0.4957 -0.6407
15582TIP3    H268238   1.943   2.822   4.424 -0.6046  0.1408 -0.6342
15583TIP3   OH268239   3.155   1.442  12.908 -0.0940  0.6433 -0.6133
15583TIP3    H168240   3.110   1.476  12.986  1.5370  0.5674  0.3878
15583TIP3    H268241   3.113   1.358  12.891 -1.5158  1.3552 -0.7667
15584TIP3   OH268242   6.098   4.452   4.055  0.4530  0.2063  0.6902
15584TIP3    H168243   6.007   4.469   4.032  0.3111 -0.4560  0.7318
15584TIP3    H268244   6.123   4.525   4.111 -0.3478 -0.0904  1.4467
15585TIP3   OH268245   2.596   1.521  15.166  0.6831 -0.0858 -0.1451
15585TIP3    H168246   2.530   1.563  15.222  0.2657 -0.1741 -0.5663
15585TIP3    H268247   2.548   1.496  15.087  1.5972  1.4447 -1.2049
15586TIP3   OH268248   0.718   0.273  14.838 -0.1864 -0.4658  0.2296
15586TIP3    H168249   0.802   0.234  14.814 -0.8645 -1.7629 -0.0674
15586TIP3    H268250   0.687   0.316  14.758  0.7050  0.9801  0.6399
15587TIP3   OH268251   6.476   1.161  14.358  0.1304 -0.6142 -0.0060
15587TIP3    H168252   6.475   1.072  14.322 -1.1496  0.4006 -2.6038
15587TIP3    H268253   6.472   1.149  14.453 -0.9533 -3.3056 -0.3589
15588TIP3   OH268254   2.964   1.894  14.609 -0.4793 -0.0381 -0.1705
15588TIP3    H168255   2.901   1.842  14.559  1.1041 -0.6153 -1.6120
15588TIP3    H268256   3.007   1.830  14.667 -1.0896  0.3264  0.6998
15589TIP3   OH268257   2.503   1.832   2.971  0.3283 -0.2615 -0.1233
15589TIP3    H168258   2.466   1.913   3.007  0.7066  0.3084 -0.9948
15589TIP3    H268259   2.441   1.764   2.996 -0.1361  0.3429  0.3902
15590TIP3   OH268260   1.274   3.146  11.538 -0.5425 -0.5673  0.3804
15590TIP3    H168261   1.218   3.204  11.590 -0.0803 -0.3681  0.6535
15590TIP3    H268262   1.361   3.185  11.543 -0.5407 -0.4062 -0.7506
15591TIP3   OH268263   2.006   6.168  16.899 -0.2676 -0.2942  0.2220
15591TIP3    H168264   1.950   6.232  16.857  0.6508 -0.3447 -1.0829
15591TIP3    H268265   1.971   6.161  16.988 -1.8390  0.2432 -0.3417
15592TIP3   OH268266   5.068   6.758  13.019  0.3948 -0.1616  0.0439
15592TIP3    H168267   5.159   6.749  13.049  0.4324 -3.4740 -0.8364
15592TIP3    H268268   5.016   6.742  13.098  0.5798 -2.4488 -0.2507
15593TIP3   OH268269   5.376   2.151  13.929  0.8736 -0.2919  0.1610
15593TIP3    H168270   5.377   2.242  13.958 -1.0745 -0.0755 -0.3566
15593TIP3    H268271   5.464   2.119  13.946  1.6602  1.7743  0.0993
15594TIP3   OH268272   5.451   1.249   2.712  0.3614  0.0706 -0.2461
15594TIP3    H168273   5.376   1.274   2.658  1.0387  0.3020 -1.0989
15594TIP3    H268274   5.414   1.195   2.782 -0.6403  0.4792 -0.4584
15595TIP3   OH268275   4.701   3.198  13.489 -0.2964  0.0926 -0.2407
15595TIP3    H168276   4.609   3.181  13.471  0.1423 -0.5189 -1.9932
15595TIP3    H268277   4.746   3.117  13.464  0.7723  0.5411  0.1703
15596TIP3   OH268278   4.703   1.093   0.005  0.0481  0.4485  0.8436
15596TIP3    H168279   4.714   1.114  -0.088  1.0728 -1.8118  0.4010
15596TIP3    H268280   4.773   1.030   0.023 -1.7263 -1.0944  2.4871
15597TIP3   OH268281   0.520   5.902  13.771  0.8287  0.7173  0.4911
15597TIP3    H168282   0.518   5.811  13.742  0.4931  0.8949 -0.0404
15597TIP3    H268283   0.584   5.944  13.714  0.2679  1.0361  0.1034
15598TIP3   OH268284   0.802   4.295   4.781  0.3587  0.1057  0.1981
15598TIP3    H168285   0.794   4.354   4.706  0.9567  0.7930  0.6760
15598TIP3    H268286   0.856   4.223   4.748  1.7087  1.0457  0.3549
15599TIP3   OH268287   5.256   1.157  13.252 -0.6964 -0.0730  0.0996
15599TIP3    H168288   5.278   1.097  13.323  3.5891 -0.3936 -1.3355
15599TIP3    H268289   5.276   1.244  13.287  3.5181 -0.3772 -1.2649
15600TIP3   OH268290   5.873   2.080  14.532 -0.3449 -0.0084  0.0700
15600TIP3    H168291   5.925   2.007  14.496 -0.0724  0.0842  0.2705
15600TIP3    H268292   5.884   2.072  14.627 -0.3991  0.2334  0.0960
15601TIP3   OH268293   6.290   2.877  17.228 -0.0440 -0.0758  0.1122
15601TIP3    H168294   6.370   2.825  17.237  0.1673 -0.1819 -2.1083
15601TIP3    H268295   6.321   2.966  17.214 -0.2466 -0.3830 -2.4689
15602TIP3   OH268296   1.754   6.621   0.591 -0.1932  0.1146 -0.0208
15602TIP3    H168297   1.798   6.557   0.648  0.0804 -0.5261 -0.9517
15602TIP3    H268298   1.766   6.705   0.636  3.2808  0.1849 -0.9966
15603TIP3   OH268299   5.341   5.668   2.839 -0.6472  0.1681 -0.1267
15603TIP3    H168300   5.316   5.733   2.773  0.6293  1.9235  1.0440
15603TIP3    H268301   5.430   5.694   2.864 -0.2810 -1.8108  0.6736
15604TIP3   OH268302   2.774   5.473  14.263  0.3252 -0.1721  0.3032
15604TIP3    H168303   2.678   5.476  14.259  0.2403 -0.1300  1.9331
15604TIP3    H268304   2.795   5.379  14.261  0.2820 -0.1608 -0.6664
15605TIP3   OH268305   1.393   1.497   6.367 -0.3566 -0.1493 -0.0840
15605TIP3    H168306   1.447   1.523   6.441 -0.0319  0.0798 -0.3988
15605TIP3    H268307   1.414   1.404   6.354  0.1300 -0.0067 -0.3423
15606TIP3   OH268308   2.768   2.950   5.570  0.1986  0.3632  0.2934
15606TIP3    H168309   2.730   2.864   5.554  1.3856 -0.2017  0.4789
15606TIP3    H268310   2.748   3.000   5.490 -0.9194  0.0883  0.3874
15607TIP3   OH268311   2.895   1.815   1.970  0.5085  0.5242 -0.2242
15607TIP3    H168312   2.967   1.775   2.018  0.6992 -0.4824 -1.3259
15607TIP3    H268313   2.862   1.745   1.914 -2.0165  0.6519  1.0252
15608TIP3   OH268314   3.954   3.396  15.499 -0.2303  0.3540 -0.1091
15608TIP3    H168315   3.972   3.489  15.513 -0.3290  0.3405  0.1084
15608TIP3    H268316   3.976   3.354  15.582  0.8195  0.0352 -0.5372
15609TIP3   OH268317   5.106   0.485   6.195 -0.2378  0.4067 -0.1154
15609TIP3    H168318   5.186   0.534   6.213 -0.4650  0.4899  0.6723
15609TIP3    H268319   5.042   0.553   6.173 -0.6293  0.5020  1.2559
15610TIP3   OH268320   3.939   6.717  16.499 -0.0388 -0.3120 -0.5201
15610TIP3    H168321   3.878   6.790  16.506 -0.7068 -0.9223  0.1008
15610TIP3    H268322   4.020   6.756  16.468 -0.4741  0.6541 -0.4408
15611TIP3   OH268323   3.169   2.024  14.523  0.0508  0.1075  0.4142
15611TIP3    H168324   3.098   1.969  14.553  1.3333 -1.9092 -0.1183
15611TIP3    H268325   3.131   2.076  14.452 -1.0031 -0.6130  0.4422
15612TIP3   OH268326   3.124   5.143  13.648 -0.1117  0.2517 -0.0424
15612TIP3    H168327   3.078   5.141  13.732 -0.1041 -0.3016 -0.0506
15612TIP3    H268328   3.092   5.066  13.602  2.2302 -1.1967  0.7067
15613TIP3   OH268329   4.360   5.694   1.825 -0.3553  0.1906 -0.0092
15613TIP3    H168330   4.341   5.604   1.850  0.4618 -0.0220 -0.1262
15613TIP3    H268331   4.389   5.688   1.734  1.2621  0.3557  0.4830
15614TIP3   OH268332   1.675   6.026  15.815 -0.0585 -0.0625  0.1729
15614TIP3    H168333   1.739   5.973  15.766  0.1393  0.5726 -0.2706
15614TIP3    H268334   1.590   6.001  15.779  0.3365  3.3655 -3.4780
15615TIP3   OH268335   0.136   3.430   5.657 -0.4003  0.3353  0.3693
15615TIP3    H168336   0.071   3.363   5.679 -0.4834  0.6717  1.1483
15615TIP3    H268337   0.083   3.508   5.637 -0.3065  0.1593 -0.5829
15616TIP3   OH268338   2.250   3.173   3.021  0.1079  0.0172 -0.5752
15616TIP3    H168339   2.318   3.232   3.053 -0.0199 -0.9803  1.6449
15616TIP3    H268340   2.180   3.230   2.990 -0.1789  1.0318  1.8954
15617TIP3   OH268341   4.910   1.551   5.466  0.1554  0.3282  1.1014
15617TIP3    H168342   5.000   1.582   5.474 -1.1368  4.6496  0.6896
15617TIP3    H268343   4.864   1.593   5.538 -2.2730  1.4615 -1.0180
15618TIP3   OH268344   1.060   1.810   5.185 -0.4323  0.0665 -0.2669
15618TIP3    H168345   1.120   1.808   5.260 -0.0350 -0.8784 -0.6029
15618TIP3    H268346   1.049   1.903   5.166  0.7048  0.2573 -0.0220
15619TIP3   OH268347   4.048   6.280   0.207 -0.1920  0.4960  0.2695
15619TIP3    H168348   4.001   6.211   0.254 -0.6686  0.7326  0.1457
15619TIP3    H268349   3.979   6.331   0.165  0.1809  0.8358  0.0712
15620TIP3   OH268350   1.922   4.653   4.749 -0.4457 -0.0749 -0.1056
15620TIP3    H168351   1.956   4.600   4.821  0.0699 -1.0027 -1.0334
15620TIP3    H268352   1.845   4.605   4.718 -0.1786 -0.1025 -0.7256
15621TIP3   OH268353   3.459   0.836  14.829 -0.3341 -0.0745 -0.0901
15621TIP3    H168354   3.371   0.799  14.834 -0.2725 -0.2695 -0.4336
15621TIP3    H268355   3.495   0.823  14.917 -0.4622 -0.4607 -0.0912
15622TIP3   OH268356   1.375   5.384   1.394  0.0717 -0.7539 -0.5435
15622TIP3    H168357   1.360   5.320   1.463  0.9354 -0.3961 -0.0132
15622TIP3    H268358   1.323   5.460   1.419 -0.8955 -1.2094 -1.1351
15623TIP3   OH268359   4.026   3.748  15.044  0.3218 -0.4611 -0.1332
15623TIP3    H168360   4.041   3.758  15.138 -0.6821 -1.5542  0.1618
15623TIP3    H268361   3.971   3.823  15.020  3.0609  1.4789 -0.4809
15624TIP3   OH268362   3.146   0.693  15.514 -0.0656  0.1289  0.2531
15624TIP3    H168363   3.213   0.727  15.574 -0.4034  0.6549  0.3301
15624TIP3    H268364   3.185   0.614  15.477  0.2255 -0.0895  1.0237
15625TIP3   OH268365   4.213   2.734   2.354 -0.0865 -0.0407 -0.3068
15625TIP3    H168366   4.179   2.644   2.352  0.7639 -0.3509 -2.8915
15625TIP3    H268367   4.147   2.786   2.308 -0.5605  0.6612  1.1525
15626TIP3   OH268368   5.517   5.645   5.179  0.1729  0.5516 -0.5260
15626TIP3    H168369   5.514   5.565   5.231 -1.1511 -0.6023 -2.3312
15626TIP3    H268370   5.525   5.615   5.088  2.4672  2.5162 -1.0457
15627TIP3   OH268371   1.043   5.937  13.014 -0.0464 -0.5114  0.2148
15627TIP3    H168372   1.111   5.878  12.982  0.4188 -1.0428  2.1548
15627TIP3    H268373   1.013   5.983  12.935  3.0700  0.2851 -0.6013
15628TIP3   OH268374   2.796   5.423   4.169 -0.4770  0.3094 -0.6101
15628TIP3    H168375   2.785   5.328   4.167  0.4277  0.2226 -2.0221
15628TIP3    H268376   2.889   5.436   4.186 -0.6637  0.9446 -0.0719
15629TIP3   OH268377   3.632   3.107   1.366 -0.0194  0.3472  0.4591
15629TIP3    H168378   3.617   3.022   1.407  2.5280  0.2525  1.2660
15629TIP3    H268379   3.647   3.086   1.274  0.9737 -0.1487  0.7190
15630TIP3   OH268380   3.627   1.875  13.869  0.4969 -0.4746  0.3938
15630TIP3    H168381   3.647   1.813  13.939  0.7949 -2.1664 -1.1520
15630TIP3    H268382   3.532   1.876  13.863  0.4740 -0.3755  0.7711
15631TIP3   OH268383   6.344   1.145   2.235 -0.5589  0.0676 -0.1312
15631TIP3    H168384   6.299   1.221   2.198 -2.8853 -0.9996  0.4139
15631TIP3    H268385   6.369   1.173   2.323  0.0603  0.7268 -0.5028
15632TIP3   OH268386   1.465   1.390   0.001  0.0569  0.0679  0.0905
15632TIP3    H168387   1.542   1.374  -0.052 -0.2190  2.6090 -1.1292
15632TIP3    H268388   1.392   1.356  -0.051  0.1315 -0.4923  0.3464
15633TIP3   OH268389   0.270   3.600   2.628  0.4666  0.4990  0.4513
15633TIP3    H168390   0.270   3.692   2.599  0.2070  0.9404  1.8535
15633TIP3    H268391   0.235   3.602   2.717 -0.2686 -1.0607  0.2146
15634TIP3   OH268392   2.870   2.311   5.202 -0.3034  0.5664  0.7555
15634TIP3    H168393   2.855   2.349   5.115  1.8087 -0.9522 -0.3268
15634TIP3    H268394   2.786   2.320   5.247 -1.9452 -0.1323 -2.0473
15635TIP3   OH268395   4.008   4.328   1.811  0.2581  0.2550 -0.6606
15635TIP3    H168396   3.971   4.368   1.889 -1.0822  0.4697 -1.3900
15635TIP3    H268397   4.096   4.301   1.837 -0.2372  0.1648  0.9624
15636TIP3   OH268398   4.237   2.693  10.241  0.3762  0.0987 -0.0527
15636TIP3    H168399   4.203   2.631  10.306  1.0988  0.3151  0.5370
15636TIP3    H268400   4.164   2.752  10.224  0.5633  0.8124  1.5153
15637TIP3   OH268401   6.657   5.306   4.170 -0.4000 -0.1885  0.3855
15637TIP3    H168402   6.689   5.377   4.226  1.7208 -1.1670  0.4665
15637TIP3    H268403   6.734   5.278   4.121 -1.4171 -1.8134 -0.3125
15638TIP3   OH268404   2.303   3.319   4.347 -0.4897 -0.3323 -0.2882
15638TIP3    H168405   2.232   3.327   4.283  1.0098 -0.5722 -2.0269
15638TIP3    H268406   2.378   3.292   4.295  0.3207 -2.3359  1.8860
15639TIP3   OH268407   2.473   4.772   0.045 -0.1213 -0.7154 -0.8728
15639TIP3    H168408   2.534   4.846   0.048 -0.2626 -0.6338  0.1256
15639TIP3    H268409   2.526   4.697   0.074 -0.3666 -0.7359 -0.4828
15640TIP3   OH268410   5.369   1.302   0.915  0.1925 -1.4196 -0.4478
15640TIP3    H168411   5.318   1.378   0.943  1.0819 -0.9141 -0.1861
15640TIP3    H268412   5.319   1.265   0.842  0.1802 -0.0962 -1.1272
15641TIP3   OH268413   5.157   4.294  11.544 -0.0267 -0.1334 -0.4569
15641TIP3    H168414   5.200   4.245  11.474  0.9277  0.1870 -0.1048
15641TIP3    H268415   5.227   4.346  11.583 -0.5094 -0.4741  0.8805
15642TIP3   OH268416   6.020   4.681   2.638  0.3712  0.6146 -0.3787
15642TIP3    H168417   5.954   4.744   2.609 -1.8918 -0.6695  1.7153
15642TIP3    H268418   6.004   4.604   2.584 -1.0032 -0.2736  1.2364
15643TIP3   OH268419   5.861   5.925   3.362 -0.2285 -0.1999  0.0809
15643TIP3    H168420   5.927   5.906   3.429  1.2390 -0.6173 -1.4633
15643TIP3    H268421   5.793   5.859   3.377 -0.5961  0.5786  2.0337
15644TIP3   OH268422   6.335   3.299  13.407 -0.5512  0.0754 -0.3747
15644TIP3    H168423   6.367   3.383  13.373 -1.0479  0.2780 -0.3456
15644TIP3    H268424   6.398   3.275  13.474 -1.3139  1.2577  0.8025
15645TIP3   OH268425   0.854   1.688   1.096 -0.2801  0.2129 -0.9877
15645TIP3    H168426   0.766   1.652   1.083  0.0008 -0.1847 -1.8325
15645TIP3    H268427   0.912   1.623   1.055  0.4349  0.2521 -0.0353
15646TIP3   OH268428   1.885   1.357   2.181 -0.1307 -0.2923 -0.1739
15646TIP3    H168429   1.930   1.272   2.186 -0.0077 -0.3961 -2.6669
15646TIP3    H268430   1.798   1.337   2.149 -0.0005  0.5466 -1.0861
15647TIP3   OH268431   3.396   1.524   4.260 -0.6050  0.3052  0.5964
15647TIP3    H168432   3.325   1.469   4.295 -1.2639  0.6554 -0.1752
15647TIP3    H268433   3.401   1.500   4.168 -0.6682  1.2964  0.3373
15648TIP3   OH268434   0.685   5.733   0.677  0.3796 -0.3537 -0.9087
15648TIP3    H168435   0.595   5.702   0.680  0.4075 -0.3356  3.1147
15648TIP3    H268436   0.736   5.656   0.652 -0.3833 -1.3805  0.6366
15649TIP3   OH268437   5.494   5.109   1.970  0.1683 -0.4539  0.4446
15649TIP3    H168438   5.508   5.185   1.915  1.8434  0.8684  2.6199
15649TIP3    H268439   5.557   5.044   1.939  1.1922  0.3296  0.8885
15650TIP3   OH268440   1.616   1.592   5.896 -0.4224 -0.1446 -0.0395
15650TIP3    H168441   1.548   1.586   5.963  0.1359 -0.0916  0.5402
15650TIP3    H268442   1.616   1.684   5.869 -0.5273 -0.1306  0.0095
15651TIP3   OH268443   3.630   5.217  14.622 -0.1118 -0.2920  0.2785
15651TIP3    H168444   3.670   5.168  14.550  0.0057 -2.6744  1.8793
15651TIP3    H268445   3.689   5.201  14.696  0.6511  3.4571  0.5372
15652TIP3   OH268446   0.410   1.685  16.426 -0.2693  0.8747  0.1573
15652TIP3    H168447   0.374   1.608  16.382 -0.9317  0.7920  0.8351
15652TIP3    H268448   0.462   1.730  16.358  0.4939 -0.4007 -0.1120
15653TIP3   OH268449   0.070   1.260  14.598 -0.4981  0.1491 -0.5280
15653TIP3    H168450   0.114   1.225  14.675 -3.2426 -0.3000  0.9105
15653TIP3    H268451   0.111   1.345  14.583  0.2705  0.1214  1.2568
15654TIP3   OH268452   5.734   2.626   5.919 -0.1723  0.2860 -0.2362
15654TIP3    H168453   5.678   2.704   5.919 -2.5114 -1.3437 -2.2780
15654TIP3    H268454   5.788   2.635   5.840  0.2294  0.2805  0.0341
15655TIP3   OH268455   5.150   5.160   0.028 -0.0095 -0.1729  0.1645
15655TIP3    H168456   5.214   5.222  -0.008  0.5566 -0.3760  0.8021
15655TIP3    H268457   5.083   5.153  -0.040  0.5374  0.2090 -0.4300
15656TIP3   OH268458   1.213   4.359  16.436 -0.2176 -0.3946 -0.6286
15656TIP3    H168459   1.176   4.332  16.352  0.4401  0.8652 -1.3403
15656TIP3    H268460   1.307   4.369  16.418  0.0282 -0.8071  0.4380
15657TIP3   OH268461   2.231   3.043  11.376  0.1650 -0.1782  0.6675
15657TIP3    H168462   2.260   2.982  11.308 -1.7555  0.5003 -0.8145
15657TIP3    H268463   2.218   2.989  11.453  1.6489 -1.0870  0.3087
15658TIP3   OH268464   0.466   1.020   5.665  0.0694  0.7643  0.1982
15658TIP3    H168465   0.473   1.103   5.618 -2.1701  1.3400  0.8150
15658TIP3    H268466   0.510   0.956   5.609  0.6187  2.1086 -0.9296
15659TIP3   OH268467   1.220   1.233  11.666  0.2980  0.0449  0.0230
15659TIP3    H168468   1.284   1.272  11.726 -0.2441 -0.8039  1.1921
15659TIP3    H268469   1.136   1.251  11.708 -0.1566  0.2934 -1.0030
15660TIP3   OH268470   3.332   4.938  16.890  0.0794  0.1274  0.4458
15660TIP3    H168471   3.375   4.884  16.823 -0.9600 -0.5978  0.3462
15660TIP3    H268472   3.343   5.028  16.859 -1.2307 -0.2528 -1.2120
15661TIP3   OH268473   4.939   5.758  11.422 -0.6144  0.5891 -0.8674
15661TIP3    H168474   4.942   5.848  11.455 -1.7226  0.3004  0.0553
15661TIP3    H268475   4.911   5.706  11.497  1.0281 -0.6932 -1.1012
15662TIP3   OH268476   0.485   6.163  13.386 -0.6552 -0.2685  0.7563
15662TIP3    H168477   0.502   6.162  13.480 -1.3833  0.2202  0.8947
15662TIP3    H268478   0.570   6.183  13.346 -0.3504 -0.4629  1.3039
15663TIP3   OH268479   4.389   1.195   6.189  0.0207  0.0204  0.6240
15663TIP3    H168480   4.409   1.101   6.181 -2.9103 -0.6572  0.5660
15663TIP3    H268481   4.392   1.212   6.283 -1.0614 -0.5641  0.7806
15664TIP3   OH268482   1.710   6.017   2.884  0.2045  0.1526  0.3332
15664TIP3    H168483   1.624   6.058   2.879  0.4537  0.6143 -0.2714
15664TIP3    H268484   1.740   6.015   2.793  0.1985 -1.3697  0.3465
15665TIP3   OH268485   0.588   3.713   5.984  0.0605  0.3828 -0.3147
15665TIP3    H168486   0.608   3.783   5.923  2.9866 -1.1756 -1.2614
15665TIP3    H268487   0.622   3.744   6.068  1.9569 -0.0878 -0.8665
15666TIP3   OH268488   0.503   0.584   0.446  0.2349  0.2403  0.2097
15666TIP3    H168489   0.528   0.523   0.516 -0.6380  1.2546  1.4371
15666TIP3    H268490   0.441   0.535   0.392 -1.5512  0.4386  1.9922
15667TIP3   OH268491   0.238   3.377   1.700 -0.5700  0.1959  0.6249
15667TIP3    H168492   0.167   3.359   1.762 -0.2003  0.9854  1.2925
15667TIP3    H268493   0.194   3.408   1.621 -0.9312  1.6163  1.3657
15668TIP3   OH268494   0.133   0.501  14.460  0.2302  0.3199  0.0434
15668TIP3    H168495   0.125   0.475  14.552 -1.2497  0.0660 -0.1402
15668TIP3    H268496   0.077   0.439  14.413  2.2103 -0.5601 -1.2350
15669TIP3   OH268497   3.910   2.051  11.892  0.3797  0.0145 -0.5033
15669TIP3    H168498   3.869   2.115  11.834  0.5738  0.6602  0.0678
15669TIP3    H268499   3.981   2.099  11.935 -0.3178 -0.1915  0.9293
15670TIP3   OH268500   3.868   5.703   1.010  0.0448  0.5455  0.2911
15670TIP3    H168501   3.882   5.728   1.101  0.8018  2.1577 -0.2374
15670TIP3    H268502   3.834   5.783   0.968 -1.8613 -0.6346 -0.4961
15671TIP3   OH268503   6.524   2.832  11.427  0.3288 -0.4471 -0.5328
15671TIP3    H168504   6.562   2.902  11.373  0.7174 -0.7889 -0.7029
15671TIP3    H268505   6.432   2.829  11.400  0.5841 -0.8162 -1.4054
15672TIP3   OH268506   4.310   1.884   2.731  0.2926  0.8956  0.8550
15672TIP3    H168507   4.247   1.852   2.795 -1.0725  3.0759  0.6328
15672TIP3    H268508   4.341   1.967   2.767 -1.1082  2.5732 -1.6501
15673TIP3   OH268509   1.784   0.762   5.765  0.1470  0.4146 -0.7071
15673TIP3    H168510   1.770   0.854   5.741 -0.9897  0.2169 -0.8008
15673TIP3    H268511   1.707   0.738   5.816  1.7974  0.3667  1.8664
15674TIP3   OH268512   2.349   3.695  11.527  0.0723 -0.7609  0.1181
15674TIP3    H168513   2.396   3.650  11.597  0.8507 -0.4402 -0.1922
15674TIP3    H268514   2.375   3.787  11.536 -0.5995 -0.5652  0.0298
15675TIP3   OH268515   4.575   5.496   4.883  0.5715  0.1331  0.7034
15675TIP3    H168516   4.597   5.425   4.822  0.6477  1.7123 -1.1651
15675TIP3    H268517   4.624   5.476   4.962  2.2047 -0.8188 -0.5187
15676TIP3   OH268518   4.048   1.402  12.728 -0.0741  0.0780 -0.1424
15676TIP3    H168519   4.057   1.497  12.725 -1.2221  0.2224  0.7706
15676TIP3    H268520   4.020   1.383  12.818 -2.3454 -0.8850 -1.0133
15677TIP3   OH268521   5.329   1.631   4.458 -0.0957  0.0352 -0.2948
15677TIP3    H168522   5.391   1.704   4.459 -0.9294  0.7711 -0.9618
15677TIP3    H268523   5.245   1.672   4.438 -0.8360 -0.9159  0.7862
15678TIP3   OH268524   0.090   2.834   4.956  0.2196  0.5237 -0.1214
15678TIP3    H168525   0.038   2.755   4.970 -0.0361  0.4462 -1.4530
15678TIP3    H268526   0.181   2.803   4.957  0.1631  0.3758  0.4161
15679TIP3   OH268527   3.207   3.793  17.158 -0.0918 -0.2871 -0.7009
15679TIP3    H168528   3.130   3.807  17.214  0.5313  1.6375 -0.3060
15679TIP3    H268529   3.279   3.780  17.220  0.2981  0.1340 -1.0644
15680TIP3   OH268530   3.010   6.078  15.349 -0.1668  0.4086 -0.4866
15680TIP3    H168531   3.104   6.059  15.343  0.3682  2.5532  0.4866
15680TIP3    H268532   2.992   6.136  15.275 -0.5292  0.7634 -0.1238
15681TIP3   OH268533   0.327   4.343   3.555 -0.1904 -0.5257  0.2726
15681TIP3    H168534   0.414   4.325   3.519  0.2290  1.6643  0.0934
15681TIP3    H268535   0.267   4.301   3.494  0.5874  1.6851 -2.0991
15682TIP3   OH268536   4.095   1.203   3.239  0.4322  0.7381 -0.0873
15682TIP3    H168537   4.186   1.232   3.246  1.2200 -1.2978 -1.3237
15682TIP3    H268538   4.086   1.137   3.309 -0.4037  1.6730  0.6921
15683TIP3   OH268539   3.725   5.172   2.902 -0.0808 -0.8184 -0.1894
15683TIP3    H168540   3.818   5.148   2.901  0.3049  0.6618  0.3637
15683TIP3    H268541   3.716   5.233   2.975 -1.7685 -2.0101  0.6181
15684TIP3   OH268542   4.728   1.261   3.128 -0.2054  0.0005 -0.3462
15684TIP3    H168543   4.709   1.184   3.182 -0.3328  0.9777  1.0215
15684TIP3    H268544   4.781   1.227   3.055  1.6554 -1.0366  1.4298
15685TIP3   OH268545   3.040   5.848  12.024  0.6363 -0.2955  0.4794
15685TIP3    H168546   3.028   5.816  12.114 -0.3550 -2.3976 -0.3865
15685TIP3    H268547   3.049   5.769  11.971 -0.5849  0.8654 -1.5284
15686TIP3   OH268548   6.084   0.935  12.005  0.5201 -0.7216  0.0054
15686TIP3    H168549   5.991   0.918  12.021  0.3269  0.1481 -0.1788
15686TIP3    H268550   6.129   0.862  12.048 -0.2957 -1.7722 -0.8819
15687TIP3   OH268551   3.081   6.646  15.696 -0.0886 -0.2558  0.0700
15687TIP3    H168552   3.015   6.590  15.655 -0.7538  0.5086  0.0715
15687TIP3    H268553   3.162   6.626  15.649 -0.2673 -1.3777  0.2354
15688TIP3   OH268554   0.921   0.344   6.654 -0.4050  0.1026 -1.2032
15688TIP3    H168555   0.905   0.438   6.652  0.0465  0.1604 -2.4033
15688TIP3    H268556   1.009   0.335   6.692 -0.6225  0.1425 -0.6924
15689TIP3   OH268557   1.781   2.934   2.974  0.8864 -0.1301 -0.0101
15689TIP3    H168558   1.865   2.915   3.017  0.0992 -1.1885  1.1077
15689TIP3    H268559   1.757   3.021   3.006  1.2050 -0.1399  0.2664
15690TIP3   OH268560   6.676   3.771   0.312  0.1723 -0.9384  0.2975
15690TIP3    H168561   6.625   3.832   0.366 -0.6183 -0.0429 -1.4170
15690TIP3    H268562   6.757   3.758   0.361  0.1831  1.1970  0.8967
15691TIP3   OH268563   6.353   3.858   0.260 -0.4261 -0.3307  0.4034
15691TIP3    H168564   6.400   3.913   0.322 -0.5789  3.1148 -2.3728
15691TIP3    H268565   6.370   3.768   0.289  2.2329  1.0704  3.4080
15692TIP3   OH268566   3.701   6.157  11.791  0.0317 -0.6044 -0.4678
15692TIP3    H168567   3.635   6.089  11.779 -1.0104  0.0926  1.0924
15692TIP3    H268568   3.652   6.239  11.784  0.4696 -0.0959  2.0118
15693TIP3   OH268569   4.841   0.852  14.781 -0.5491 -0.2200  0.0974
15693TIP3    H168570   4.857   0.760  14.760  0.5157 -0.1338  0.4929
15693TIP3    H268571   4.836   0.896  14.696 -1.5830 -0.7246 -0.1049
15694TIP3   OH268572   4.841   0.065  16.794  0.6041 -0.3302 -0.0675
15694TIP3    H168573   4.845   0.152  16.755 -0.2411  0.5560  1.7504
15694TIP3    H268574   4.911   0.016  16.751  1.0582  1.2272 -1.1414
15695TIP3   OH268575   1.899   5.243   4.711 -0.1148  0.4088  0.1404
15695TIP3    H168576   1.883   5.283   4.797 -0.4257  0.4565  0.0623
15695TIP3    H268577   1.829   5.179   4.702 -1.3276  1.8692 -0.9825
15696TIP3   OH268578   5.828   3.369   2.462  0.6565  0.0320 -0.5803
15696TIP3    H168579   5.866   3.311   2.396  0.2315 -0.9123 -0.0009
15696TIP3    H268580   5.862   3.456   2.440  0.8323 -0.3370 -1.8086
15697TIP3   OH268581   6.723   1.833  13.915 -0.3789  0.1537  0.6008
15697TIP3    H168582   6.685   1.873  13.994  0.0464  2.1303 -0.1864
15697TIP3    H268583   6.809   1.872  13.907 -0.0463 -0.7554 -0.3349
15698TIP3   OH268584   6.629   4.681   1.690  0.2596 -0.8431 -0.1204
15698TIP3    H168585   6.613   4.674   1.784 -0.2781 -1.3819 -0.2480
15698TIP3    H268586   6.580   4.759   1.664 -1.5871 -2.0404 -0.3665
15699TIP3   OH268587   1.093   2.902  11.717  0.0251 -0.4162  0.4485
15699TIP3    H168588   1.160   2.839  11.689  0.2035 -0.5935  1.2637
15699TIP3    H268589   1.064   2.943  11.635 -1.8622 -3.2687 -0.4201
15700TIP3   OH268590   5.728   6.263   2.075  0.1023 -0.0410  0.4359
15700TIP3    H168591   5.709   6.172   2.100  1.0964 -0.6894 -1.0726
15700TIP3    H268592   5.822   6.263   2.057 -0.5275  0.3491 -3.2147
15701TIP3   OH268593   3.613   1.121  16.222 -0.0621 -0.4628 -0.5087
15701TIP3    H168594   3.628   1.135  16.316 -0.7749  1.0685 -0.6046
15701TIP3    H268595   3.529   1.164  16.205 -0.2230 -1.2491 -1.7327
15702TIP3   OH268596   1.001   1.217   1.662 -1.1748 -0.0820  0.5497
15702TIP3    H168597   0.923   1.207   1.717 -1.3238 -2.6121 -0.0590
15702TIP3    H268598   1.014   1.131   1.623  3.0034 -0.2337  2.0669
15703TIP3   OH268599   2.861   3.485   2.361  0.2521 -0.2359  0.2362
15703TIP3    H168600   2.885   3.397   2.329 -1.7942 -1.2766  1.4691
15703TIP3    H268601   2.941   3.536   2.351  1.4079 -2.1656 -0.7998
15704TIP3   OH268602   3.985   4.095  11.672  0.0933  0.2491  0.3773
15704TIP3    H168603   3.930   4.089  11.750  0.2793 -0.3438  0.4665
15704TIP3    H268604   4.024   4.182  11.676  0.7327 -0.0710  1.3633
15705TIP3   OH268605   0.100   5.476  14.475  0.2372  0.4054  0.3652
15705TIP3    H168606   0.185   5.499  14.513 -0.6762  0.3261  2.5367
15705TIP3    H268607   0.037   5.502  14.542 -1.4475  0.3382 -1.1745
15706TIP3   OH268608   5.056   5.850  13.862  0.3206  0.0592  0.1838
15706TIP3    H168609   5.137   5.815  13.900  0.0935  0.3055  0.9092
15706TIP3    H268610   5.016   5.899  13.934 -2.8497 -3.8971  1.2959
15707TIP3   OH268611   0.472   1.641   0.669 -0.7833 -0.3538  0.0209
15707TIP3    H168612   0.377   1.643   0.658 -0.7540  1.2638 -0.0871
15707TIP3    H268613   0.489   1.701   0.741  0.1741 -0.5005 -0.0786
15708TIP3   OH268614   0.937   0.223   3.800 -0.3903 -0.1771  0.0023
15708TIP3    H168615   0.853   0.253   3.835 -0.4662 -0.0481 -0.2874
15708TIP3    H268616   0.960   0.287   3.733 -0.4850 -0.6778 -0.5179
15709TIP3   OH268617   1.511   4.544   2.685  0.5880  0.1656  0.5001
15709TIP3    H168618   1.506   4.483   2.759  0.0728 -0.9502 -0.4382
15709TIP3    H268619   1.434   4.600   2.695 -0.2394 -0.8656  0.0631
15710TIP3   OH268620   4.343   2.239  17.111 -0.3215  0.0245 -0.3740
15710TIP3    H168621   4.329   2.147  17.091 -0.3386 -0.0250 -0.1326
15710TIP3    H268622   4.257   2.280  17.101 -0.4810 -0.1345  0.3245
15711TIP3   OH268623   5.686   5.784   0.588 -0.1428 -0.1467 -0.1643
15711TIP3    H168624   5.615   5.844   0.564 -1.1934 -1.2789  0.0116
15711TIP3    H268625   5.656   5.698   0.557  0.8560 -0.7551  0.5093
15712TIP3   OH268626   3.818   6.553   4.515 -0.5412 -0.2932  0.3157
15712TIP3    H168627   3.853   6.565   4.603  0.7080  0.7578 -0.2962
15712TIP3    H268628   3.884   6.593   4.458 -1.9414  0.2115 -0.9936
15713TIP3   OH268629   4.849   4.111  12.536 -0.1565 -0.1818 -0.2004
15713TIP3    H168630   4.822   4.121  12.445  1.9983  0.8099 -0.7588
15713TIP3    H268631   4.789   4.167  12.585 -0.7277  0.0186 -1.1054
15714TIP3   OH268632   6.493   1.770  12.796  0.0420 -0.2701 -0.0896
15714TIP3    H168633   6.408   1.754  12.754  0.1677 -1.8497  0.2472
15714TIP3    H268634   6.552   1.705  12.757  2.0193  3.0600 -2.9439
15715TIP3   OH268635   1.774   2.273   1.633  0.8254  0.0520  0.0774
15715TIP3    H168636   1.769   2.179   1.647  2.0321  0.0607  0.6338
15715TIP3    H268637   1.790   2.283   1.539  1.2090 -0.3143  0.1052
15716TIP3   OH268638   5.616   1.514   4.257 -0.1276  0.3143  0.2248
15716TIP3    H168639   5.596   1.603   4.229 -0.0638  0.5291  0.8476
15716TIP3    H268640   5.669   1.525   4.336 -0.7235 -0.2805  0.7146
15717TIP3   OH268641   3.053   6.213  14.060 -0.2789  0.4294 -0.8192
15717TIP3    H168642   3.074   6.134  14.010 -0.4912  0.0500 -0.3151
15717TIP3    H268643   3.136   6.261  14.064 -0.1324  0.1995 -1.0737
15718TIP3   OH268644   2.147   2.835  15.064 -0.5112 -0.2867 -0.2792
15718TIP3    H168645   2.181   2.749  15.087 -1.2439 -0.5996 -0.3274
15718TIP3    H268646   2.204   2.897  15.109 -0.6745 -0.8279  0.6756
15719TIP3   OH268647   3.448   3.029  12.293  0.4821 -0.5927 -0.4583
15719TIP3    H168648   3.371   2.983  12.262  0.1122  0.3041 -0.8910
15719TIP3    H268649   3.430   3.122  12.275  0.9214 -0.2050  0.9968
15720TIP3   OH268650   2.384   0.500   0.875  0.5091  0.1677 -0.1507
15720TIP3    H168651   2.313   0.503   0.939  1.8020 -1.5137  1.4132
15720TIP3    H268652   2.342   0.470   0.794 -0.9121  1.1269  0.2163
15721TIP3   OH268653   1.787   6.739   3.022  0.1661 -0.0611 -0.6575
15721TIP3    H168654   1.857   6.799   3.047  0.3120 -0.5349  0.0858
15721TIP3    H268655   1.707   6.793   3.024  0.4826  0.4520 -1.4073
15722TIP3   OH268656   6.708   4.553   4.769 -0.0325 -0.6823 -0.0395
15722TIP3    H168657   6.746   4.618   4.710  0.2741 -1.2354 -0.4575
15722TIP3    H268658   6.655   4.497   4.712 -0.8294 -0.4013  0.4167
15723TIP3   OH268659   4.829   1.684  16.659  0.2117  0.2000  0.2286
15723TIP3    H168660   4.862   1.773  16.644 -2.0911  0.7113 -2.2309
15723TIP3    H268661   4.751   1.697  16.713 -0.0952 -0.3134 -0.0938
15724TIP3   OH268662   1.321   3.231  12.377  0.5804 -0.3661  0.4823
15724TIP3    H168663   1.295   3.316  12.412  2.7568  0.6189 -0.2356
15724TIP3    H268664   1.246   3.202  12.326 -0.4033  0.8371  1.2161
15725TIP3   OH268665   3.901   2.784  13.249 -0.6818 -0.8058  0.0964
15725TIP3    H168666   3.825   2.767  13.193  0.5902 -0.1926 -1.8781
15725TIP3    H268667   3.923   2.875  13.230  1.9780 -1.6804 -1.1551
15726TIP3   OH268668   6.443   0.633   2.851  0.2430 -0.2034 -0.6132
15726TIP3    H168669   6.511   0.566   2.861  1.4570  1.0681 -0.2677
15726TIP3    H268670   6.453   0.665   2.762 -0.3282 -0.4569 -0.7730
15727TIP3   OH268671   0.810   4.573   3.241 -0.1888 -0.8341 -0.5613
15727TIP3    H168672   0.715   4.575   3.251 -0.2910 -2.0649 -1.1881
15727TIP3    H268673   0.827   4.628   3.164 -0.2827  0.2689  0.1868
15728TIP3   OH268674   5.167   4.331  12.945 -0.1671 -0.4253 -0.4229
15728TIP3    H168675   5.168   4.334  13.041  1.8572 -0.2798 -0.4340
15728TIP3    H268676   5.150   4.422  12.919 -0.8615 -0.4891 -0.2196
15729TIP3   OH268677   6.366   3.604   4.152 -0.0599  0.1099 -0.0597
15729TIP3    H168678   6.409   3.682   4.116  1.8353 -0.6675  0.4401
15729TIP3    H268679   6.399   3.598   4.242  0.1250 -1.4605 -0.2132
15730TIP3   OH268680   1.183   3.284   1.832  0.2691 -0.5265 -0.6577
15730TIP3    H168681   1.241   3.276   1.908  0.3901  0.2245 -0.6689
15730TIP3    H268682   1.172   3.194   1.801 -1.2232 -1.0725  1.3349
15731TIP3   OH268683   2.353   3.852  16.927 -0.7215 -0.2408  0.3631
15731TIP3    H168684   2.319   3.833  16.839 -1.0544  0.9593  0.2268
15731TIP3    H268685   2.319   3.781  16.982 -3.0565  0.6683  0.1466
15732TIP3   OH268686   4.244   1.866   6.468 -0.2245 -0.2314 -0.3936
15732TIP3    H168687   4.263   1.872   6.561  0.2965  1.8139 -0.5918
15732TIP3    H268688   4.154   1.898   6.460  0.3123  1.2384 -0.7616
15733TIP3   OH268689   4.735   5.820  14.471 -0.1219  0.1881 -0.1496
15733TIP3    H168690   4.775   5.737  14.447  0.5609 -0.0304  1.6361
15733TIP3    H268691   4.774   5.842  14.556  0.9375  3.1628 -1.3491
15734TIP3   OH268692   4.274   5.206  13.304 -0.0414  0.3753 -0.7399
15734TIP3    H168693   4.313   5.278  13.354 -0.3238  0.1153 -0.1419
15734TIP3    H268694   4.339   5.185  13.237  0.3113  0.7675 -0.5216
15735TIP3   OH268695   3.876   3.418  13.898  0.3183  0.3731  0.0406
15735TIP3    H168696   3.824   3.481  13.849 -0.1780 -1.3629 -1.7373
15735TIP3    H268697   3.837   3.418  13.986 -0.8399  1.2052 -0.4661
15736TIP3   OH268698   4.375   0.254   4.960  0.2075 -0.2637 -0.6457
15736TIP3    H168699   4.332   0.170   4.978 -0.3541  0.2365  0.3337
15736TIP3    H268700   4.304   0.312   4.933  0.4771  0.1569 -0.4443
15737TIP3   OH268701   0.612   0.973  12.018  0.1732  0.0510 -0.1403
15737TIP3    H168702   0.673   1.047  12.020 -0.3713  0.5586 -1.4581
15737TIP3    H268703   0.657   0.903  12.066 -0.2355  1.9103  3.0516
15738TIP3   OH268704   2.966   1.518   5.778 -0.2285  0.3674 -0.0942
15738TIP3    H168705   2.874   1.535   5.800 -0.2469  0.9594 -0.6287
15738TIP3    H268706   2.963   1.456   5.705 -0.1943  0.0935  0.1347
15739TIP3   OH268707   1.913   0.943  15.285  0.0840 -0.0409 -0.0208
15739TIP3    H168708   1.985   0.927  15.224 -0.3378 -0.6913 -0.3597
15739TIP3    H268709   1.851   0.872  15.267 -0.7835  0.6939  0.0525
15740TIP3   OH268710   1.630   0.259   0.665  0.1129 -0.5160  0.0590
15740TIP3    H168711   1.705   0.279   0.608 -1.6284  0.7226 -1.8789
15740TIP3    H268712   1.566   0.328   0.646 -0.6531 -0.2074  3.3561
15741TIP3   OH268713   1.251   4.487  12.182 -0.2923  0.2601  0.2632
15741TIP3    H168714   1.321   4.507  12.244  1.0282  2.0794 -1.7372
15741TIP3    H268715   1.296   4.476  12.098 -2.3201  0.7632 -0.9253
15742TIP3   OH268716   6.198   5.779   0.192  0.0941  0.1734 -0.3318
15742TIP3    H168717   6.258   5.825   0.134  0.5401  0.0645  0.0311
15742TIP3    H268718   6.192   5.835   0.270 -0.7130  0.4512 -0.5956
15743TIP3   OH268719   0.111   5.154   0.096 -0.1320  0.7816 -0.6297
15743TIP3    H168720   0.062   5.114   0.167  2.1430  0.8268  1.0435
15743TIP3    H268721   0.154   5.080   0.052 -0.4636  0.8744 -1.1086
15744TIP3   OH268722   2.742   1.531  16.116  0.0683  0.1464  0.1448
15744TIP3    H168723   2.690   1.591  16.170 -0.7605  0.3253 -0.8189
15744TIP3    H268724   2.821   1.514  16.167 -1.5489 -1.2312  2.2893
15745TIP3   OH268725   2.443   3.863   1.560 -0.0367 -0.3656  0.1643
15745TIP3    H168726   2.378   3.848   1.629  0.3089 -2.4587  0.0797
15745TIP3    H268727   2.402   3.828   1.481 -0.2830  1.6997 -0.6559
15746TIP3   OH268728   6.387   6.699   4.385 -0.1630 -0.3704  0.2048
15746TIP3    H168729   6.463   6.756   4.396 -1.2704  0.8620  1.7744
15746TIP3    H268730   6.382   6.649   4.467  2.1712 -4.5464 -2.0167
15747TIP3   OH268731   4.059   4.354  16.161  0.1589  0.6238 -0.0205
15747TIP3    H168732   4.097   4.308  16.086 -0.8744 -0.7022  0.2568
15747TIP3    H268733   4.018   4.432  16.124 -0.4011 -0.0544 -0.8490
15748TIP3   OH268734   2.881   1.172  16.175  0.2763  0.1051 -0.3159
15748TIP3    H168735   2.946   1.221  16.124 -0.9667  1.0274 -1.0351
15748TIP3    H268736   2.858   1.097  16.120  0.3645  0.0519 -0.2800
15749TIP3   OH268737   3.422   3.345  11.773  0.3586 -0.5623 -0.7513
15749TIP3    H168738   3.487   3.278  11.751 -1.8079 -4.0618  2.8695
15749TIP3    H268739   3.461   3.392  11.847  0.4022 -0.0599 -1.0913
15750TIP3   OH268740   4.873   6.366  12.416 -0.1316  0.6338 -1.0062
15750TIP3    H168741   4.961   6.399  12.395 -0.2348  1.6202  0.0838
15750TIP3    H268742   4.823   6.379  12.336  0.8204 -0.3136 -1.7744
15751TIP3   OH268743   1.282   0.726   1.375  0.0905  0.0277 -0.0365
15751TIP3    H168744   1.330   0.714   1.293  2.2304  0.4255  1.1015
15751TIP3    H268745   1.318   0.807   1.412 -0.4629 -0.4198  1.5342
15752TIP3   OH268746   2.771   5.390   1.470  0.6424 -0.0821 -0.2557
15752TIP3    H168747   2.838   5.358   1.530  0.6230  1.9493  0.8903
15752TIP3    H268748   2.700   5.420   1.527 -0.9287 -1.4556 -1.4280
15753TIP3   OH268749   0.347   6.754   1.710  0.5681 -0.3494 -0.2447
15753TIP3    H168750   0.342   6.666   1.747 -0.5469 -1.1256 -2.1649
15753TIP3    H268751   0.264   6.795   1.735  1.4500  0.4971  1.3987
15754TIP3   OH268752   6.638   4.902   4.163 -0.0320  1.0744  0.0514
15754TIP3    H168753   6.664   4.986   4.202  5.1006  0.7828 -2.2405
15754TIP3    H268754   6.609   4.925   4.074  1.3244  0.5046 -0.5580
15755TIP3   OH268755   2.166   2.809  12.565  0.5338  0.8514 -0.2623
15755TIP3    H168756   2.176   2.717  12.540  2.0444  1.0528 -0.4495
15755TIP3    H268757   2.098   2.843  12.507  1.0274  0.2293 -1.2218
15756TIP3   OH268758   5.524   4.264   3.775 -0.2564  0.1573 -0.1954
15756TIP3    H168759   5.515   4.329   3.706 -2.3493 -0.8328 -0.8739
15756TIP3    H268760   5.561   4.187   3.731  1.9346  0.7225  0.5493
15757TIP3   OH268761   0.361   5.228  11.634 -0.5414 -0.4051 -0.2777
15757TIP3    H168762   0.349   5.319  11.608 -2.0845 -0.4290  0.3367
15757TIP3    H268763   0.358   5.229  11.730  2.2187 -0.7254 -0.1493
15758TIP3   OH268764   6.669   1.445   0.254 -0.0374  0.6356  0.1703
15758TIP3    H168765   6.735   1.381   0.280  0.5275  0.7070 -1.0520
15758TIP3    H268766   6.711   1.496   0.185 -0.3027  2.6675  1.4908
15759TIP3   OH268767   3.534   6.521  15.847  0.3222 -0.2694  0.1783
15759TIP3    H168768   3.474   6.507  15.773  0.6298 -0.3008 -0.0626
15759TIP3    H268769   3.522   6.613  15.870  1.1517  0.0620 -0.7142
15760TIP3   OH268770   6.442   1.308  16.427  0.3445 -0.3030 -0.7519
15760TIP3    H168771   6.516   1.250  16.446  2.2027  2.0017 -0.7862
15760TIP3    H268772   6.436   1.308  16.332 -0.4920 -1.4503 -0.7027
15761TIP3   OH268773   0.624   3.045   3.145  0.0634  0.2333  0.0448
15761TIP3    H168774   0.593   3.062   3.234 -0.0501  1.3371 -0.2044
15761TIP3    H268775   0.698   2.984   3.157 -0.0691  0.2271  0.8747
15762TIP3   OH268776   0.029   1.140  12.776 -0.8365 -0.6917  0.1588
15762TIP3    H168777   0.089   1.156  12.848  0.0774  1.9402 -1.1252
15762TIP3    H268778  -0.037   1.209  12.782 -1.1952 -0.9042 -1.0371
15763TIP3   OH268779   2.309   3.013  13.235  0.0068 -0.3194 -0.0023
15763TIP3    H168780   2.251   2.973  13.300  0.9721 -0.1966  0.9575
15763TIP3    H268781   2.290   3.107  13.241  0.7606 -0.2065  0.7949
15764TIP3   OH268782   5.803   4.710   1.228  0.6989 -0.2453 -0.3531
15764TIP3    H168783   5.890   4.710   1.268  0.7885 -0.3455 -0.5492
15764TIP3    H268784   5.773   4.619   1.235  0.3971 -0.1078  0.1744
15765TIP3   OH268785   0.886   4.963   1.438  0.4278  0.0991  0.1664
15765TIP3    H168786   0.980   4.950   1.455 -0.0681 -0.0514  3.1013
15765TIP3    H268787   0.858   5.026   1.504 -2.0771 -1.8703  1.0684
15766TIP3   OH268788   3.108   0.756  11.109  0.2712  0.2313  0.2729
15766TIP3    H168789   3.074   0.845  11.105 -0.9447 -0.1912  0.8450
15766TIP3    H268790   3.144   0.740  11.022 -1.9005  0.3557 -0.6819
15767TIP3   OH268791   6.299   1.584  17.035  0.1326 -0.1711 -0.1793
15767TIP3    H168792   6.349   1.666  17.044  2.5067 -1.5477 -0.4820
15767TIP3    H268793   6.286   1.574  16.941  2.1663 -1.4720 -0.3450
15768TIP3   OH268794   4.830   4.624   3.266 -0.0023  0.7989 -0.1589
15768TIP3    H168795   4.764   4.662   3.208  1.2897  4.6624  0.7740
15768TIP3    H268796   4.804   4.652   3.354  1.1524 -0.3482  0.5726
15769TIP3   OH268797   5.279   4.266  13.597 -0.2605 -0.0287 -0.2468
15769TIP3    H168798   5.285   4.180  13.638 -1.5801  1.3079  2.9189
15769TIP3    H268799   5.186   4.281  13.584 -0.0310  0.8155 -0.9728
15770TIP3   OH268800   6.624   2.761  16.974  0.2547  0.8980  0.2412
15770TIP3    H168801   6.616   2.845  17.021 -2.3951  1.7379 -1.5797
15770TIP3    H268802   6.662   2.785  16.890  1.2858 -0.0369  0.4310
15771TIP3   OH268803   1.555   1.840   5.901 -0.3559  0.3548 -0.3726
15771TIP3    H168804   1.495   1.911   5.927  0.7290  0.8299  0.8661
15771TIP3    H268805   1.627   1.885   5.856 -0.2298 -0.0828 -0.6112
15772TIP3   OH268806   3.136   3.998   1.521  0.2330 -0.5333  0.4163
15772TIP3    H168807   3.160   3.910   1.492 -1.1889 -0.8587  0.1779
15772TIP3    H268808   3.099   4.039   1.443  0.7320  0.2298  0.5738
15773TIP3   OH268809   5.969   3.050   6.556  0.0740  0.1096  0.3742
15773TIP3    H168810   5.885   3.094   6.538 -0.4485  0.1352  2.7270
15773TIP3    H268811   5.954   2.959   6.531 -0.3093  0.3277 -0.2061
15774TIP3   OH268812   5.618   1.899   5.776  0.4280 -0.1029  0.6488
15774TIP3    H168813   5.546   1.918   5.837 -1.6704 -1.5609 -1.3043
15774TIP3    H268814   5.645   1.810   5.798  0.7238 -0.0553  0.4802
15775TIP3   OH268815   5.988   6.381   6.223  0.3381 -0.4203  0.1357
15775TIP3    H168816   6.042   6.320   6.173  0.8171 -0.6301  0.9057
15775TIP3    H268817   6.029   6.384   6.310 -1.4836 -1.3949  1.0646
15776TIP3   OH268818   0.332   2.187  13.003 -0.2288  0.1248 -0.0999
15776TIP3    H168819   0.426   2.183  12.988 -0.3664 -1.3578 -0.7368
15776TIP3    H268820   0.313   2.106  13.051 -1.4335 -0.5061 -1.5985
15777TIP3   OH268821   6.695   5.874  16.186 -0.4657 -0.0664  0.2821
15777TIP3    H168822   6.669   5.846  16.273  1.2609  1.1136  1.1858
15777TIP3    H268823   6.743   5.955  16.199 -1.0986  0.7161 -1.8659
15778TIP3   OH268824   0.624   2.425   2.266  0.0380  0.0796  0.4837
15778TIP3    H168825   0.637   2.508   2.313 -0.8576 -0.8468  2.4481
15778TIP3    H268826   0.713   2.394   2.247  0.4157  0.6478  1.2916
15779TIP3   OH268827   0.653   5.790   4.825  0.4374 -0.1306 -0.3500
15779TIP3    H168828   0.738   5.823   4.796  0.9524 -1.4600 -0.4041
15779TIP3    H268829   0.590   5.857   4.799  1.6458  1.5886  1.0373
15780TIP3   OH268830   2.134   1.397   0.616 -0.2382  0.0590  0.3649
15780TIP3    H168831   2.109   1.423   0.705 -0.2831 -1.4628  0.8228
15780TIP3    H268832   2.227   1.375   0.622  0.1286  1.3677 -0.3158
15781TIP3   OH268833   5.918   5.376  16.016  0.0953 -0.5950  0.5114
15781TIP3    H168834   5.839   5.430  16.009  0.7653  0.4288  0.6496
15781TIP3    H268835   5.896   5.296  15.969 -0.5143  0.2806 -0.7348
15782TIP3   OH268836   6.694   1.606  14.752 -0.7194 -0.0204 -0.4221
15782TIP3    H168837   6.660   1.549  14.683 -0.3282  0.8339 -1.3453
15782TIP3    H268838   6.789   1.595  14.748 -0.7203 -0.2978  0.2776
15783TIP3   OH268839   4.493   6.004  16.149  0.1131 -0.2334 -0.5255
15783TIP3    H168840   4.573   5.956  16.168  0.7874  0.6222 -1.1720
15783TIP3    H268841   4.481   5.996  16.055 -1.0279 -1.0619 -0.3323
15784TIP3   OH268842   0.046   1.263   0.282 -0.6242  0.1295  0.2008
15784TIP3    H168843   0.024   1.269   0.190  1.6308  1.8177 -0.2710
15784TIP3    H268844   0.093   1.180   0.291 -0.0449  0.3883 -0.3772
15785TIP3   OH268845   4.409   3.126  16.010  0.0519 -0.0824  0.3387
15785TIP3    H168846   4.409   3.085  16.096 -1.9907 -0.7463  0.0488
15785TIP3    H268847   4.492   3.100  15.971 -0.2445 -2.1381  1.0167
15786TIP3   OH268848   0.188   0.655  15.140 -0.0964  0.0892  0.6873
15786TIP3    H168849   0.177   0.739  15.095  2.1135 -1.0045 -2.0832
15786TIP3    H268850   0.283   0.646  15.150 -0.3373 -1.8018  1.5052
15787TIP3   OH268851   2.377   3.935  10.906 -0.2996 -0.1197  0.2051
15787TIP3    H168852   2.286   3.935  10.876  0.1408 -0.2687 -1.1670
15787TIP3    H268853   2.373   3.895  10.993 -1.4417 -0.9156 -0.1903
15788TIP3   OH268854   6.213   3.964  14.183  0.1971  0.5091 -0.6460
15788TIP3    H168855   6.234   3.874  14.207  1.4999  1.1333  0.6398
15788TIP3    H268856   6.122   3.961  14.155  0.5006 -1.3751 -1.5421
15789TIP3   OH268857   3.867   5.314  12.842  0.3752 -0.2142 -0.5003
15789TIP3    H168858   3.880   5.407  12.863  0.1378 -0.6693  1.7753
15789TIP3    H268859   3.783   5.311  12.797  0.2357  0.6537 -0.3086
15790TIP3   OH268860   5.191   3.067  15.645  0.4911 -0.3188 -0.0657
15790TIP3    H168861   5.187   2.972  15.636  0.9628 -0.2482 -1.1068
15790TIP3    H268862   5.109   3.091  15.687 -0.6513 -0.9657 -1.8642
15791TIP3   OH268863   0.606   0.926  11.408  0.5689 -0.1610 -0.5592
15791TIP3    H168864   0.689   0.958  11.374 -0.0502  0.2852 -1.7063
15791TIP3    H268865   0.598   0.965  11.495  2.6420 -2.0907  0.5503
15792TIP3   OH268866   0.989   5.528  14.509  0.5368  0.1951  0.4060
15792TIP3    H168867   1.013   5.493  14.423  0.1879  2.5116 -0.6802
15792TIP3    H268868   0.894   5.516  14.513  0.7868 -1.5592  1.2462
15793TIP3   OH268869   0.906   6.341   5.292  0.1229 -0.8864  0.2747
15793TIP3    H168870   0.913   6.432   5.318  2.4675 -1.2982  1.1363
15793TIP3    H268871   0.917   6.291   5.373 -2.5523 -1.9447  0.0597
15794TIP3   OH268872   6.020   0.162  12.192 -0.3913  0.0691  0.2454
15794TIP3    H168873   5.962   0.111  12.136 -1.5087 -0.4236  1.8352
15794TIP3    H268874   6.058   0.098  12.252 -1.1511  0.9457  1.6965
15795TIP3   OH268875   0.320   0.572  16.730  0.2566 -0.3365 -0.4501
15795TIP3    H168876   0.402   0.525  16.720  0.7004  0.3667 -0.1063
15795TIP3    H268877   0.306   0.614  16.645  0.7342  0.3248 -0.2012
15796TIP3   OH268878   3.739   5.365  16.741  0.5243 -0.0045  0.5781
15796TIP3    H168879   3.694   5.333  16.819  0.9752 -0.0189  0.8323
15796TIP3    H268880   3.774   5.450  16.767  0.8417 -0.0976  0.4505
15797TIP3   OH268881   6.237   4.531  15.805  0.4267 -0.6652  0.1125
15797TIP3    H168882   6.221   4.503  15.714  3.1723 -0.2097 -0.5518
15797TIP3    H268883   6.173   4.601  15.820 -1.1590 -1.8484 -0.8818
15798TIP3   OH268884   6.201   6.667   4.185 -0.0212  0.3313  0.1318
15798TIP3    H168885   6.275   6.653   4.245  0.9440  1.3543 -0.7826
15798TIP3    H268886   6.210   6.599   4.119 -1.1595 -0.8754  1.2067
15799TIP3   OH268887   4.528   2.402  14.157 -0.1193 -0.1419  0.2170
15799TIP3    H168888   4.459   2.446  14.207 -0.5321  0.0299 -0.5001
15799TIP3    H268889   4.596   2.384  14.221 -1.2630 -1.2304  1.1486
15800TIP3   OH268890   0.804   5.133   6.308  0.0084  0.0636  0.6606
15800TIP3    H168891   0.805   5.132   6.404  1.9119  0.7051  0.6753
15800TIP3    H268892   0.801   5.041   6.283 -1.2436 -0.0853  1.3324
15801TIP3   OH268893   0.020   1.954   3.420  0.1158  0.4868 -0.0056
15801TIP3    H168894   0.061   1.974   3.504  0.2316 -1.0664  0.3335
15801TIP3    H268895   0.092   1.926   3.364 -0.2105 -0.4713  0.0298
15802TIP3   OH268896   6.327   2.603   5.942  0.0364  0.1082 -0.0820
15802TIP3    H168897   6.405   2.559   5.978  1.8423  1.5289 -2.1303
15802TIP3    H268898   6.311   2.675   6.003  0.3970 -0.1174  0.2848
15803TIP3   OH268899   1.651   2.282  12.912 -0.1706 -0.1013 -0.4515
15803TIP3    H168900   1.623   2.238  12.992  2.5526 -0.9095  0.1148
15803TIP3    H268901   1.571   2.296  12.862 -1.8459  0.0169  2.2192
15804TIP3   OH268902   0.442   1.918   1.774  0.4681  0.3133  0.1423
15804TIP3    H168903   0.352   1.887   1.774  0.5759 -0.0197  1.1448
15804TIP3    H268904   0.437   2.008   1.806  0.5859 -0.0314  1.1627
15805TIP3   OH268905   0.057   0.617   4.123 -0.0291 -0.3108 -0.3717
15805TIP3    H168906   0.094   0.557   4.058 -1.5455 -2.6410  0.8717
15805TIP3    H268907  -0.034   0.629   4.095 -0.0321  0.5767  0.0014
15806TIP3   OH268908   0.693   2.305  11.011 -0.0508 -0.0402 -0.6570
15806TIP3    H168909   0.720   2.245  10.942  0.2826 -0.4434 -0.1704
15806TIP3    H268910   0.598   2.309  11.003 -0.1316 -1.1632 -0.2413
15807TIP3   OH268911   5.182   2.135  15.947 -0.2251 -0.0411  0.1150
15807TIP3    H168912   5.157   2.092  16.028  0.7442 -1.6004 -0.3862
15807TIP3    H268913   5.248   2.199  15.973 -0.0237 -0.4352  0.5772
15808TIP3   OH268914   3.818   0.404  16.036 -0.5001 -0.5082  0.5384
15808TIP3    H168915   3.783   0.447  15.958  0.5308 -1.2487 -0.3468
15808TIP3    H268916   3.892   0.458  16.063  1.0910 -1.9793 -0.8572
15809TIP3   OH268917   6.327   4.511   2.537 -0.5635 -0.0300  0.4985
15809TIP3    H168918   6.251   4.459   2.564 -0.6838 -0.7204 -1.1026
15809TIP3    H268919   6.384   4.449   2.492  0.0397  0.9039 -0.0413
15810TIP3   OH268920   4.099   1.359  15.223 -0.3759 -0.3442 -0.8342
15810TIP3    H168921   4.055   1.273  15.228  0.6478 -0.8726 -0.8606
15810TIP3    H268922   4.192   1.338  15.212 -0.0831  0.7755 -0.5332
15811TIP3   OH268923   4.974   4.907  14.110 -0.0995  0.1344  0.0649
15811TIP3    H168924   4.953   4.814  14.119  1.8921 -0.4624 -1.1520
15811TIP3    H268925   5.004   4.934  14.197  0.3363 -0.6243  0.1448
15812TIP3   OH268926   2.784   2.373  11.432  0.5379 -0.8343 -0.1349
15812TIP3    H168927   2.784   2.279  11.414  1.8499 -1.2209  1.7757
15812TIP3    H268928   2.859   2.386  11.490  2.0075  1.8030 -2.4894
15813TIP3   OH268929   5.513   0.757   2.162 -0.5746  0.1601 -0.4661
15813TIP3    H168930   5.502   0.810   2.241  0.2066  2.7394 -2.0297
15813TIP3    H268931   5.426   0.756   2.122 -0.3726  1.0776 -0.9295
15814TIP3   OH268932   4.756   5.137  15.745 -0.4735 -0.3525 -0.0171
15814TIP3    H168933   4.761   5.185  15.828  2.1237 -1.6952  0.6511
15814TIP3    H268934   4.733   5.048  15.771  0.0258 -0.7013 -0.7773
15815TIP3   OH268935   6.506   1.900   0.841  0.3558 -0.7807  0.1219
15815TIP3    H168936   6.471   1.987   0.859  1.8763 -0.3315  1.0098
15815TIP3    H268937   6.490   1.851   0.921  0.6372 -0.9443  0.0769
15816TIP3   OH268938   4.780   6.194   2.137 -0.2021 -0.5770  0.2724
15816TIP3    H168939   4.765   6.285   2.160 -0.6265 -0.7949  0.8679
15816TIP3    H268940   4.695   6.151   2.149 -0.7167 -0.5039 -2.7291
15817TIP3   OH268941   2.548   5.280  13.942 -0.5680 -0.4452  0.5553
15817TIP3    H168942   2.456   5.255  13.934 -1.7140  3.6498 -0.0147
15817TIP3    H268943   2.566   5.276  14.036 -1.3249 -1.2174  0.6731
15818TIP3   OH268944   4.667   3.016  16.048 -0.0747 -0.2136 -0.7556
15818TIP3    H168945   4.717   3.001  15.968  0.2849 -1.1832 -0.3559
15818TIP3    H268946   4.728   2.995  16.119 -0.6406 -0.1578 -0.2495
15819TIP3   OH268947   2.751   4.000  12.912 -0.0609 -0.2407  0.7324
15819TIP3    H168948   2.676   4.060  12.914  0.9488  1.0336  0.8472
15819TIP3    H268949   2.751   3.960  12.999  0.5206  1.1721  1.3915
15820TIP3   OH268950   0.201   0.483   0.800 -0.5559 -0.3758  0.0910
15820TIP3    H168951   0.217   0.444   0.886 -1.3625  0.5640  0.6757
15820TIP3    H268952   0.127   0.542   0.813  0.2068  0.8552 -0.9157
15821TIP3   OH268953   5.248   5.084   5.702 -0.0840 -0.1043  0.8397
15821TIP3    H168954   5.180   5.140   5.740 -1.1947  0.1538 -1.4415
15821TIP3    H268955   5.311   5.146   5.664 -0.7708 -0.3557 -0.7505
15822TIP3   OH268956   3.188   1.241   2.058  0.0682  0.3862 -0.3156
15822TIP3    H168957   3.102   1.283   2.050 -0.9698 -1.6328  0.1164
15822TIP3    H268958   3.186   1.195   2.141  1.7511  0.6724 -0.0864
15823TIP3   OH268959   0.582   2.164   1.311 -0.9811 -0.2338  0.4324
15823TIP3    H168960   0.570   2.121   1.226 -3.3538 -0.5043  0.8798
15823TIP3    H268961   0.631   2.100   1.363 -0.9861 -0.7460 -0.1854
15824TIP3   OH268962   3.955   6.317  13.747  0.1174  0.0992 -0.0448
15824TIP3    H168963   3.980   6.405  13.719  1.9109 -0.3797  0.0359
15824TIP3    H268964   3.935   6.272  13.665  1.8658 -0.2242 -0.3108
15825TIP3   OH268965   4.066   0.945   3.339  0.8648  0.2729 -0.6677
15825TIP3    H168966   3.994   0.931   3.277  1.4845  0.4696 -1.4493
15825TIP3    H268967   4.123   0.869   3.327  0.3622 -0.3086  0.5596
15826TIP3   OH268968   2.222   3.473  13.449 -0.0220  0.4759 -0.1656
15826TIP3    H168969   2.174   3.402  13.492 -1.1973 -0.3123 -2.6968
15826TIP3    H268970   2.300   3.485  13.503 -0.7728 -1.4124  1.4003
15827TIP3   OH268971   4.203   1.012   5.847  0.1397 -0.2362  0.4506
15827TIP3    H168972   4.165   0.996   5.933 -0.7298 -0.7227 -0.0127
15827TIP3    H268973   4.171   1.098   5.822  0.6837  0.0590  0.7659
15828TIP3   OH268974   1.279   5.099   4.016  0.2881  0.4922 -0.6752
15828TIP3    H168975   1.272   5.189   3.985 -1.7203  0.4752 -0.3653
15828TIP3    H268976   1.206   5.054   3.973  0.6100 -0.7241  0.0443
15829TIP3   OH268977   5.238   4.000  13.691 -0.3468  0.3114  0.9323
15829TIP3    H168978   5.185   3.927  13.658  0.5018  0.8243 -1.6886
15829TIP3    H268979   5.311   3.957  13.737  0.2639 -0.5126 -0.7774
15830TIP3   OH268980   2.233   4.554   0.036  0.3299  0.1353  0.0232
15830TIP3    H168981   2.286   4.483  -0.001 -0.4514  0.0377 -0.9051
15830TIP3    H268982   2.286   4.587   0.109  0.3556 -1.9009  0.9557
15831TIP3   OH268983   0.034   5.320   3.433 -0.1999 -0.2034 -0.1428
15831TIP3    H168984   0.110   5.353   3.385 -1.7531 -1.8064 -3.8883
15831TIP3    H268985  -0.040   5.371   3.400 -1.2801 -1.2114  0.6539
15832TIP3   OH268986   5.740   6.215   1.499  0.0317 -0.2451 -0.5263
15832TIP3    H168987   5.792   6.293   1.480 -0.3735 -0.2234 -1.5647
15832TIP3    H268988   5.689   6.239   1.577 -1.1485  1.0323 -1.6819
15833TIP3   OH268989   4.952   4.529   0.306  0.5111 -0.1700  0.3500
15833TIP3    H168990   4.918   4.612   0.339 -1.4260 -0.3187 -1.1708
15833TIP3    H268991   4.996   4.489   0.381  2.1659  2.5841  0.8874
15834TIP3   OH268992   4.143   6.732  13.569  0.0787 -0.2000  0.1856
15834TIP3    H168993   4.083   6.743  13.643 -1.2283 -0.2968 -0.8331
15834TIP3    H268994   4.192   6.814  13.565 -0.4257  0.1249  0.6432
15835TIP3   OH268995   0.207   3.527  17.091  0.0501 -0.7709  0.1378
15835TIP3    H168996   0.235   3.583  17.018  0.4846 -1.1528  0.0093
15835TIP3    H268997   0.115   3.510  17.074  0.4736 -1.9461 -1.0450
15836TIP3   OH268998   1.747   1.442  11.729  0.2186  0.5096 -0.4272
15836TIP3    H168999   1.671   1.433  11.787  0.1621  0.2915 -0.5328
15836TIP3    H269000   1.773   1.352  11.710  0.3063  0.5812 -0.6482
15837TIP3   OH269001   2.363   3.615  12.752 -0.0787 -0.4597 -0.0023
15837TIP3    H169002   2.295   3.618  12.686  1.1676 -0.0167 -1.2932
15837TIP3    H269003   2.335   3.547  12.813 -2.1626  0.4314  0.0489
15838TIP3   OH269004   5.930   4.097   1.954  0.3227  0.6828  0.3601
15838TIP3    H169005   5.845   4.122   1.916 -0.6733  0.3851  2.3528
15838TIP3    H269006   5.928   4.134   2.042  0.6675 -2.5585  1.7945
15839TIP3   OH269007   0.795   3.961  17.060 -0.2510  0.6861  0.2408
15839TIP3    H169008   0.716   3.951  17.007 -0.4009 -0.0816  0.5977
15839TIP3    H269009   0.867   3.945  16.999 -0.3754  1.2002 -0.0429
15840TIP3   OH269010   5.285   4.529   0.404  0.3935  0.0695  0.2347
15840TIP3    H169011   5.259   4.530   0.496 -1.5575 -1.1227 -0.2872
15840TIP3    H269012   5.316   4.618   0.388 -0.8820  0.7944  1.6005
15841TIP3   OH269013   3.348   6.161   3.588 -0.0292  0.0292 -0.0373
15841TIP3    H169014   3.390   6.236   3.545 -1.4572  1.0080  0.2394
15841TIP3    H269015   3.356   6.179   3.682  0.6435 -0.7455  0.0613
15842TIP3   OH269016   4.904   6.092   6.016 -0.6283 -0.1766  0.0696
15842TIP3    H169017   4.881   6.008   5.977  1.5306 -0.2886 -1.0612
15842TIP3    H269018   4.994   6.080   6.047 -0.8307  1.2446  1.2465
15843TIP3   OH269019   3.671   0.867   4.165 -0.3270 -0.2009 -0.2641
15843TIP3    H169020   3.737   0.846   4.231 -1.0062 -0.2595  0.4024
15843TIP3    H269021   3.704   0.828   4.084 -0.1874 -1.3608  0.3421
15844TIP3   OH269022   6.744   2.876   4.735 -0.4414  0.1207 -0.1967
15844TIP3    H169023   6.804   2.914   4.671 -0.5661  0.5009 -0.0929
15844TIP3    H269024   6.798   2.860   4.812 -0.8618  2.3471  0.6131
15845TIP3   OH269025   2.311   5.844   4.527  0.0225 -0.6038  0.5146
15845TIP3    H169026   2.375   5.782   4.492  0.1084  0.0468 -0.4928
15845TIP3    H269027   2.355   5.884   4.603  1.2663  0.6794 -0.8554
15846TIP3   OH269028   1.219   0.678  16.186 -0.3731 -0.0336  0.2229
15846TIP3    H169029   1.191   0.619  16.255  3.2695 -0.8113  1.1619
15846TIP3    H269030   1.149   0.743  16.179 -3.2118 -2.9242  0.9928
15847TIP3   OH269031   4.229   6.761   1.471 -0.0686  0.4245 -0.6265
15847TIP3    H169032   4.199   6.796   1.555  0.9018 -0.5412  0.1338
15847TIP3    H269033   4.224   6.666   1.481 -0.7026  0.3146 -1.9418
15848TIP3   OH269034   1.714   1.683  16.250 -0.4978 -0.3084  0.1886
15848TIP3    H169035   1.665   1.611  16.290 -1.6661  0.3689  0.0214
15848TIP3    H269036   1.677   1.691  16.162  1.0971 -0.8838 -0.5394
15849TIP3   OH269037   3.595   0.154  12.015 -0.1991  0.6508 -1.0756
15849TIP3    H169038   3.656   0.081  12.024 -3.8737 -2.6597 -1.4751
15849TIP3    H269039   3.592   0.172  11.921 -0.3840  0.3326 -1.1297
15850TIP3   OH269040   4.865   3.035   4.819 -0.3067 -0.2721 -0.1011
15850TIP3    H169041   4.826   3.032   4.906  1.6984  0.7803  0.8620
15850TIP3    H269042   4.812   3.101   4.772  0.4945  1.4231  1.3053
15851TIP3   OH269043   6.475   3.239   4.183 -0.3731  0.3674 -0.1185
15851TIP3    H169044   6.424   3.296   4.125 -0.3988  2.4837  1.9100
15851TIP3    H269045   6.410   3.197   4.239 -0.2278 -0.3358 -0.4810
15852TIP3   OH269046   3.293   2.022  11.376 -0.5552 -0.0592 -0.0264
15852TIP3    H169047   3.234   2.097  11.366  0.3075  0.3880 -1.9168
15852TIP3    H269048   3.238   1.952  11.411 -2.3251  0.2061 -2.1776
15853TIP3   OH269049   2.382   4.147   2.993 -0.0948 -0.2709 -0.1367
15853TIP3    H169050   2.417   4.068   3.035  0.5007  0.9539  1.7276
15853TIP3    H269051   2.334   4.192   3.063 -0.3104  1.0914 -1.1508
15854TIP3   OH269052   4.173   0.557   1.966 -0.1210 -0.3968 -0.1737
15854TIP3    H169053   4.102   0.525   1.910 -0.3210  2.2082 -1.4843
15854TIP3    H269054   4.251   0.552   1.912  0.4082 -1.6138  0.6841
15855TIP3   OH269055   1.795   2.534   5.204  0.6363 -0.4530 -0.2980
15855TIP3    H169056   1.703   2.511   5.219  0.3673  1.3950  1.0920
15855TIP3    H269057   1.844   2.473   5.258  0.2529 -1.6375 -1.2668
15856TIP3   OH269058   2.330   4.322   0.966  0.4266 -0.2007  0.0591
15856TIP3    H169059   2.253   4.326   1.023  0.1312 -0.5620 -0.3144
15856TIP3    H269060   2.404   4.345   1.023  0.0170  0.3549  0.3659
15857TIP3   OH269061   4.281   3.752   0.781  0.1812  0.0591  0.4729
15857TIP3    H169062   4.210   3.689   0.795  0.6830 -0.6957 -0.2920
15857TIP3    H269063   4.327   3.755   0.865 -0.0075 -0.3911  0.5950
15858TIP3   OH269064   4.123   4.149  13.634 -0.2244 -0.4646 -0.4664
15858TIP3    H169065   4.140   4.100  13.554  0.1537 -0.2199 -0.5352
15858TIP3    H269066   4.034   4.124  13.659 -0.4441 -0.3242 -1.1110
15859TIP3   OH269067   2.772   2.170   6.209  0.1484  0.5546 -0.1306
15859TIP3    H169068   2.849   2.227   6.203  0.7962 -0.4868 -2.6038
15859TIP3    H269069   2.793   2.109   6.279  2.1863 -0.5174 -1.6091
15860TIP3   OH269070   1.228   5.022  13.224  0.2187  0.1807  0.4576
15860TIP3    H169071   1.144   4.977  13.221  0.5715 -0.5138  0.8993
15860TIP3    H269072   1.290   4.961  13.184  0.8738 -0.1493  1.9334
15861TIP3   OH269073   6.657   0.488  12.984  0.0167  0.5065  0.0839
15861TIP3    H169074   6.605   0.454  12.911 -0.7536  1.0257  0.3776
15861TIP3    H269075   6.746   0.493  12.949 -0.5340  1.8767 -1.2460
15862TIP3   OH269076   2.054   4.062   3.175 -0.0159 -0.1842  0.3752
15862TIP3    H169077   2.038   4.120   3.100  0.9837  0.1051  0.3751
15862TIP3    H269078   1.980   4.001   3.175 -0.1804  0.0074 -0.6683
15863TIP3   OH269079   2.388   2.872  14.345  0.3022  0.4490  0.0964
15863TIP3    H169080   2.376   2.827  14.262  0.4132  0.4306  0.0885
15863TIP3    H269081   2.378   2.803  14.411 -1.4570  0.7742  0.1878
15864TIP3   OH269082   4.443   3.661  11.312  0.1385 -0.4980  0.2065
15864TIP3    H169083   4.436   3.752  11.284 -0.7132 -0.4882  0.4324
15864TIP3    H269084   4.436   3.664  11.407 -1.1893 -0.9103  0.1314
15865TIP3   OH269085   5.468   3.604  13.310  0.1548 -0.1501  0.0137
15865TIP3    H169086   5.392   3.662  13.316  0.5508  0.4073 -0.3264
15865TIP3    H269087   5.487   3.580  13.401  0.2686  0.6151  0.1947
15866TIP3   OH269088   3.238   3.026  16.905  0.1590 -0.1866 -0.3557
15866TIP3    H169089   3.248   3.121  16.899  2.2988 -0.4120 -0.6471
15866TIP3    H269090   3.314   2.997  16.954  0.3059 -1.9150 -1.5625
15867TIP3   OH269091   2.518   1.830  14.229 -0.0151  0.0492  0.4561
15867TIP3    H169092   2.473   1.790  14.303  2.5105 -0.5439  1.7396
15867TIP3    H269093   2.533   1.758  14.167 -0.6312  0.2008  0.1311
15868TIP3   OH269094   2.467   2.204  13.531  0.1104 -0.6976 -0.1727
15868TIP3    H169095   2.509   2.135  13.583 -2.1004 -0.8484  1.5139
15868TIP3    H269096   2.469   2.281  13.588  0.9973  0.1763 -1.3609
15869TIP3   OH269097   3.917   2.540   0.649 -0.5420 -0.1614  0.1791
15869TIP3    H169098   3.879   2.558   0.736 -1.2151  3.0321 -0.6952
15869TIP3    H269099   3.976   2.614   0.634  0.5460 -1.3747 -1.5382
15870TIP3   OH269100   1.182   5.030  15.184  0.3621 -0.1772  0.1431
15870TIP3    H169101   1.146   4.995  15.265 -1.0614 -0.9302 -0.7863
15870TIP3    H269102   1.276   5.016  15.192  0.3111  0.3916  1.9498
15871TIP3   OH269103   3.054   6.811  16.940 -0.3057 -0.4463  0.1594
15871TIP3    H169104   3.073   6.792  16.848  0.3538 -0.7848  0.3608
15871TIP3    H269105   3.140   6.815  16.982 -0.6177 -0.6569  0.8261
15872TIP3   OH269106   6.456   3.592   2.868  0.7258  0.6261 -0.0987
15872TIP3    H169107   6.423   3.637   2.790 -0.3453  0.3011  0.1595
15872TIP3    H269108   6.428   3.502   2.857  2.0128  0.2182 -0.1293
15873TIP3   OH269109   3.422   6.321   5.112 -0.0834  0.0603 -0.6537
15873TIP3    H169110   3.332   6.324   5.145  0.2246  1.9122  0.0812
15873TIP3    H269111   3.476   6.309   5.191  0.3971  0.3875 -0.9276
15874TIP3   OH269112   1.280   3.399   0.297  0.3506  0.1757 -0.0130
15874TIP3    H169113   1.353   3.454   0.268  1.2739 -0.3968  1.1817
15874TIP3    H269114   1.288   3.319   0.245  0.4001  0.2413 -0.1058
15875TIP3   OH269115   3.811   1.805   5.414  0.5984  0.1747 -0.0846
15875TIP3    H169116   3.804   1.791   5.320  0.1353  0.3970 -0.0798
15875TIP3    H269117   3.867   1.733   5.444  0.2041 -0.2793 -0.4273
15876TIP3   OH269118   1.825   6.009   1.441  0.3560 -0.1953 -0.3961
15876TIP3    H169119   1.809   5.929   1.390 -0.4767 -0.3971  0.1650
15876TIP3    H269120   1.865   5.978   1.522  0.2246 -0.0293 -0.2661
15877TIP3   OH269121   4.429   1.893   5.067  0.2856  0.2003 -0.2264
15877TIP3    H169122   4.340   1.868   5.091  0.0753 -0.4137 -1.5608
15877TIP3    H269123   4.475   1.810   5.057  0.9615  0.5113  0.2981
15878TIP3   OH269124   3.332   3.639  11.267 -0.4727 -0.4640 -0.0104
15878TIP3    H169125   3.394   3.567  11.254 -0.0315 -0.2307  0.7927
15878TIP3    H269126   3.321   3.677  11.179  0.5329 -0.4957 -0.1551
15879TIP3   OH269127   5.359   0.394   5.581  0.4259 -0.0284 -0.5563
15879TIP3    H169128   5.399   0.341   5.650  0.7867 -1.0167 -1.5157
15879TIP3    H269129   5.381   0.484   5.605  2.8964 -0.5194 -0.8187
15880TIP3   OH269130   4.904   4.815  16.835 -0.0579  0.5453 -0.7511
15880TIP3    H169131   4.991   4.782  16.810  1.2697  1.3826  2.5043
15880TIP3    H269132   4.908   4.909  16.818  0.3581  0.8877  1.1563
15881TIP3   OH269133   1.759   5.663   4.809  0.4842 -0.3186  0.2346
15881TIP3    H169134   1.849   5.674   4.778  0.2605 -0.0504 -0.3309
15881TIP3    H269135   1.706   5.718   4.751  0.0634  0.2784  1.1581
15882TIP3   OH269136   1.617   1.410  15.177  0.2425  0.3326 -0.3137
15882TIP3    H169137   1.575   1.399  15.262  0.1554  0.1688 -0.3773
15882TIP3    H269138   1.551   1.383  15.114  0.5340 -0.1654 -0.4029
15883TIP3   OH269139   1.648   4.760  16.460 -0.9966  0.0284  0.1021
15883TIP3    H169140   1.684   4.752  16.548  1.4692  1.8633 -0.6643
15883TIP3    H269141   1.697   4.695  16.409 -1.2887  0.0752 -0.2369
15884TIP3   OH269142   3.801   3.151   5.937  0.3653  0.6781  0.1713
15884TIP3    H169143   3.858   3.079   5.961  0.3272  0.7892  0.5928
15884TIP3    H269144   3.805   3.211   6.011 -1.4453 -0.0122  0.8497
15885TIP3   OH269145   3.824   5.790  16.941 -0.7796  0.1429 -0.2832
15885TIP3    H169146   3.869   5.711  16.913 -1.2298 -0.3978  0.4887
15885TIP3    H269147   3.875   5.862  16.904 -0.5175 -0.5171 -1.1994
15886TIP3   OH269148   1.838   5.287  13.084 -0.4953  0.7550 -0.2089
15886TIP3    H169149   1.762   5.329  13.042 -1.3433  1.3193  1.8477
15886TIP3    H269150   1.886   5.359  13.124  1.6451  0.5071 -2.2327
15887TIP3   OH269151   4.226   6.305   2.469 -0.2028  0.5980  0.0109
15887TIP3    H169152   4.218   6.400   2.469  0.8269  0.7674 -2.9804
15887TIP3    H269153   4.184   6.278   2.387 -0.0790 -1.4921  0.6008
15888TIP3   OH269154   5.627   1.220  11.530 -0.4748 -0.5971  0.0161
15888TIP3    H169155   5.566   1.291  11.550  0.4724  0.7778 -1.8279
15888TIP3    H269156   5.697   1.230  11.593  0.8085  1.6003 -1.6881
15889TIP3   OH269157   0.689   0.651   2.491 -0.1265 -1.2302 -0.0271
15889TIP3    H169158   0.781   0.625   2.498  0.5247  0.4897 -1.8372
15889TIP3    H269159   0.671   0.697   2.573  1.9779  2.3094 -1.4176
15890TIP3   OH269160   1.102   1.661  13.357 -0.1061 -0.6478 -0.9832
15890TIP3    H169161   1.166   1.717  13.312 -0.0641 -0.8572 -1.1802
15890TIP3    H269162   1.153   1.614  13.423 -0.4080  0.7356  0.2742
15891TIP3   OH269163   3.900   5.351  14.265 -0.7714 -0.3440 -0.1490
15891TIP3    H169164   3.805   5.346  14.260 -0.8173  1.0514 -0.7820
15891TIP3    H269165   3.921   5.441  14.240  0.7091 -0.6176  0.0590
15892TIP3   OH269166   5.261   5.687  14.666 -0.3731 -0.1011 -0.2611
15892TIP3    H169167   5.240   5.752  14.733 -0.9188  1.9086 -2.3253
15892TIP3    H269168   5.323   5.732  14.608 -2.0941 -0.7772 -2.6955
15893TIP3   OH269169   1.520   4.772  13.641 -0.0004  0.5580  0.4721
15893TIP3    H169170   1.512   4.772  13.736 -1.5071 -1.4042  0.3740
15893TIP3    H269171   1.482   4.855  13.614 -1.2502  0.3353  1.4752
15894TIP3   OH269172   5.242   6.575  13.662 -0.2720  0.1339 -0.4133
15894TIP3    H169173   5.172   6.559  13.598  0.7637  0.3835 -1.6420
15894TIP3    H269174   5.286   6.653  13.628  1.8307 -1.1796 -0.7351
15895TIP3   OH269175   2.458   4.078   4.083  0.0942 -0.7513  0.0881
15895TIP3    H169176   2.424   3.990   4.062  0.7357 -0.9779 -0.0063
15895TIP3    H269177   2.432   4.092   4.174 -0.4483 -0.8350 -0.0529
15896TIP3   OH269178   3.504   6.469  17.185  0.4259  0.4063  0.0334
15896TIP3    H169179   3.596   6.464  17.161 -0.0279  1.7006 -2.2127
15896TIP3    H269180   3.458   6.426  17.113 -0.7414  0.0263  0.9826
15897TIP3   OH269181   3.658   2.601   5.632  0.5718 -0.4894 -0.2873
15897TIP3    H169182   3.736   2.577   5.682  1.5334  0.0926 -1.5027
15897TIP3    H269183   3.647   2.530   5.569 -0.9086 -1.4555  1.0110
15898TIP3   OH269184   0.414   3.293   4.635 -0.2824  0.0718 -0.3337
15898TIP3    H169185   0.464   3.240   4.572  0.1742  1.1682 -0.8954
15898TIP3    H269186   0.353   3.230   4.675 -1.5931 -0.3607 -2.9106
15899TIP3   OH269187   3.943   3.060   1.858  0.2070  0.1769  0.1268
15899TIP3    H169188   3.947   2.978   1.808 -0.1423  1.3087 -1.8435
15899TIP3    H269189   3.897   3.037   1.938 -1.4436 -1.1917 -1.1698
15900TIP3   OH269190   2.625   2.199   1.065 -0.3952 -0.1403  0.3598
15900TIP3    H169191   2.695   2.134   1.065  0.5526  0.8619  0.3611
15900TIP3    H269192   2.667   2.280   1.094 -1.5238  0.5091  0.2195
15901TIP3   OH269193   0.075   2.773   4.103  0.4362 -0.4707 -0.7292
15901TIP3    H169194  -0.015   2.798   4.079 -0.0426 -0.5594  0.9228
15901TIP3    H269195   0.084   2.683   4.070 -0.0095 -0.3953 -1.0715
15902TIP3   OH269196   0.277   6.133  12.758  0.0040  0.0418 -0.0288
15902TIP3    H169197   0.347   6.120  12.821  0.4579  3.8899  0.3979
15902TIP3    H269198   0.315   6.109  12.674  1.6707  1.4652  0.2822
15903TIP3   OH269199   3.025   2.168  10.665  0.3773  0.0481 -0.2593
15903TIP3    H169200   2.930   2.162  10.666  0.3754  0.2322  1.4908
15903TIP3    H269201   3.053   2.099  10.605 -0.8350 -0.2604 -0.4747
15904TIP3   OH269202   0.409   2.326   2.612  0.3583  0.3927 -0.2932
15904TIP3    H169203   0.439   2.403   2.564  0.2659  1.0046  0.6083
15904TIP3    H269204   0.322   2.308   2.578  0.0979  1.1194 -0.0198
15905TIP3   OH269205   1.703   1.575  14.980 -0.2624  0.5382  0.1159
15905TIP3    H169206   1.773   1.621  15.028 -1.5850  1.1277  1.5095
15905TIP3    H269207   1.666   1.515  15.045 -0.1997 -0.7121 -0.9923
15906TIP3   OH269208   3.273   6.736  15.354  0.2211  0.1054 -0.5361
15906TIP3    H169209   3.196   6.679  15.346  0.5964 -0.2280 -2.0581
15906TIP3    H269210   3.323   6.699  15.427 -0.5765 -0.2620 -0.1705
15907TIP3   OH269211   2.681   3.450  12.683 -0.7341  0.0340 -0.3166
15907TIP3    H169212   2.623   3.393  12.732  0.3719 -0.3553  0.5614
15907TIP3    H269213   2.766   3.407  12.686 -0.9333 -0.7743 -3.8700
15908TIP3   OH269214   6.396   3.660  10.866  0.1217  0.6327 -0.4193
15908TIP3    H169215   6.489   3.672  10.846  0.7295 -0.8976  1.3226
15908TIP3    H269216   6.353   3.731  10.820  2.2650  1.9534 -0.4912
15909TIP3   OH269217   4.307   5.520  11.883 -0.0045  0.0677  0.4648
15909TIP3    H169218   4.377   5.577  11.918  0.5694 -1.1260  1.3049
15909TIP3    H269219   4.315   5.439  11.933 -0.0494 -1.2051 -1.5248
15910TIP3   OH269220   2.325   5.234  11.519  0.2339  0.4641 -0.0203
15910TIP3    H169221   2.315   5.172  11.448  1.1994 -0.0401  0.2760
15910TIP3    H269222   2.356   5.314  11.477  2.6802 -0.4154  0.0492
15911TIP3   OH269223   0.661   4.728   5.177  0.5155  1.0274 -0.5006
15911TIP3    H169224   0.682   4.645   5.134  0.6587  1.3447 -1.0606
15911TIP3    H269225   0.565   4.729   5.182  0.5664  0.1278  0.9367
15912TIP3   OH269226   6.772   0.900   3.650  0.2074  0.5966 -0.3908
15912TIP3    H169227   6.687   0.943   3.656  0.9651  1.8606  2.1772
15912TIP3    H269228   6.758   0.813   3.686 -0.4763 -0.0244 -2.0894
15913TIP3   OH269229   1.517   6.591   6.828 -0.1649 -0.1140  0.2262
15913TIP3    H169230   1.578   6.519   6.845  0.1075 -0.2606 -1.3114
15913TIP3    H269231   1.528   6.611   6.735 -1.8003  0.4793  0.1356
15914TIP3   OH269232   1.607   1.857  13.318  0.3714  0.5187  0.0241
15914TIP3    H169233   1.692   1.836  13.279 -0.3932 -1.1486 -0.7704
15914TIP3    H269234   1.605   1.807  13.400  0.3260  0.9000  0.2587
15915TIP3   OH269235   1.050   4.936  14.499  0.1539  0.1574 -0.6036
15915TIP3    H169236   1.019   4.888  14.576  0.8445  0.3003 -0.2423
15915TIP3    H269237   0.970   4.954  14.449 -0.1415 -1.2957 -0.7065
15916TIP3   OH269238   1.193   4.314   1.711 -0.7001 -0.1413  0.2915
15916TIP3    H169239   1.213   4.398   1.753  0.3462  0.0948 -0.6498
15916TIP3    H269240   1.111   4.331   1.664 -0.6177  0.2911  0.2963
15917TIP3   OH269241   2.780   2.469   0.998 -0.5241 -0.5215  0.1004
15917TIP3    H169242   2.756   2.505   1.083  0.7431 -1.4644  0.8649
15917TIP3    H269243   2.787   2.546   0.941 -1.5712  0.0892  0.7807
15918TIP3   OH269244   4.033   5.116  13.211  0.1927 -0.0275  0.5338
15918TIP3    H169245   4.033   5.021  13.225  0.9346 -0.5007 -2.3178
15918TIP3    H269246   4.119   5.145  13.242 -0.5512 -0.0332  2.6964
15919TIP3   OH269247   0.873   3.172   4.827  0.4635 -0.0802  0.2177
15919TIP3    H169248   0.868   3.096   4.885 -0.9275  0.3960  0.7271
15919TIP3    H269249   0.855   3.247   4.884 -0.5435  0.4312 -0.7536
15920TIP3   OH269250   2.094   4.360  13.173 -0.0208 -0.3946  0.0944
15920TIP3    H169251   2.097   4.295  13.243 -2.4979 -3.2311 -2.3117
15920TIP3    H269252   2.001   4.374  13.157  0.4971  1.7388 -1.3085
15921TIP3   OH269253   5.976   5.189  14.675  0.4730 -0.0875  0.2383
15921TIP3    H169254   6.007   5.232  14.595 -1.3566 -1.1953 -1.1239
15921TIP3    H269255   6.020   5.104  14.674  1.3520  0.3546  1.0429
15922TIP3   OH269256   6.551   1.396  14.582  0.2063 -0.1684 -0.1228
15922TIP3    H169257   6.603   1.316  14.566 -2.2447 -1.7911 -0.2063
15922TIP3    H269258   6.468   1.363  14.615 -0.0246  2.4927  2.0758
15923TIP3   OH269259   1.568   0.627   0.053 -0.0903  0.2937  0.0803
15923TIP3    H169260   1.591   0.597  -0.035  1.8451 -0.3840  0.7777
15923TIP3    H269261   1.585   0.722   0.052 -2.7433  0.7890 -1.0663
15924TIP3   OH269262   3.115   5.339   0.843  0.2198  0.2526  0.2558
15924TIP3    H169263   3.044   5.308   0.900 -0.9607  0.3482 -1.1102
15924TIP3    H269264   3.171   5.263   0.830  0.1849  0.0839  1.0984
15925TIP3   OH269265   5.807   4.848   5.079 -0.1762  0.4722 -0.0192
15925TIP3    H169266   5.736   4.869   5.140  0.7781  0.1166  1.2429
15925TIP3    H269267   5.782   4.763   5.043 -1.3171  1.2112 -1.0081
15926TIP3   OH269268   4.631   5.969   5.575  0.0063  0.4983 -0.4482
15926TIP3    H169269   4.683   5.920   5.639  0.7916  0.5162 -1.0692
15926TIP3    H269270   4.549   5.987   5.621 -0.5396 -1.8941 -0.4041
15927TIP3   OH269271   1.815   1.669  10.278 -0.4610  0.1445 -0.3625
15927TIP3    H169272   1.772   1.647  10.361 -0.1709 -1.2658 -0.5712
15927TIP3    H269273   1.754   1.639  10.211 -0.0691  0.0127 -0.6581
15928TIP3   OH269274   0.807   2.313   2.834 -0.6263 -0.0953  0.9123
15928TIP3    H169275   0.747   2.250   2.795 -0.8319  0.2543  0.6510
15928TIP3    H269276   0.883   2.315   2.775  0.0595 -1.2223  1.7406
15929TIP3   OH269277   2.014   5.838  14.630  0.1051  0.3300  0.0169
15929TIP3    H169278   2.104   5.858  14.603  0.2508 -0.0024  0.2472
15929TIP3    H269279   1.992   5.908  14.691 -0.0138  0.7552 -0.5036
15930TIP3   OH269280   1.165   2.166   2.939  0.4054 -0.1012 -0.5647
15930TIP3    H169281   1.230   2.223   2.980  0.4851 -0.1855 -0.5737
15930TIP3    H269282   1.128   2.116   3.012 -0.2260  0.5225 -0.4474
15931TIP3   OH269283   1.059   6.583  11.476 -0.3110 -0.2382  0.8341
15931TIP3    H169284   1.099   6.641  11.411 -1.5030  1.7774  1.8792
15931TIP3    H269285   1.117   6.506  11.477  1.7335  1.2305 -0.0186
15932TIP3   OH269286   6.588   2.055   1.206 -0.3816  0.1059 -0.3298
15932TIP3    H169287   6.493   2.059   1.207 -0.3562  1.1422 -1.0269
15932TIP3    H269288   6.615   2.143   1.181  0.7503 -0.2646 -0.4441
15933TIP3   OH269289   3.502   6.155  13.139 -0.1796  0.3154  0.1744
15933TIP3    H169290   3.556   6.085  13.174 -0.2666 -0.2209 -0.7642
15933TIP3    H269291   3.493   6.217  13.212  1.5662  0.3484  0.3836
15934TIP3   OH269292   0.643   2.713  10.253  0.1329 -0.3337  0.0543
15934TIP3    H169293   0.722   2.663  10.229  0.6178  0.0599  0.8321
15934TIP3    H269294   0.671   2.804  10.253 -0.6486 -0.0828 -0.9336
15935TIP3   OH269295   4.338   4.540   0.813  0.1417  0.0374  0.7913
15935TIP3    H169296   4.320   4.540   0.719  0.7157  0.6302  0.6726
15935TIP3    H269297   4.331   4.632   0.838 -2.2517 -0.3770  1.7895
15936TIP3   OH269298   2.238   6.287  13.092 -0.0133  0.0052 -0.0494
15936TIP3    H169299   2.211   6.196  13.103  0.9824 -0.2596  0.2465
15936TIP3    H269300   2.200   6.333  13.167 -1.0038 -0.0523 -0.5109
15937TIP3   OH269301   0.932   6.680   5.937  0.0663 -0.0450 -0.3329
15937TIP3    H169302   0.927   6.753   5.875 -0.6972 -0.8828 -1.2749
15937TIP3    H269303   0.901   6.604   5.888  0.7096 -0.9842  0.6816
15938TIP3   OH269304   2.784   0.216  16.702  0.4255  0.2964 -0.1383
15938TIP3    H169305   2.822   0.129  16.691  5.2704  2.2364  0.1374
15938TIP3    H269306   2.750   0.238  16.616  1.1356 -0.9664 -0.7579
15939TIP3   OH269307   2.207   1.038   3.020  0.1401  0.7387  0.4928
15939TIP3    H169308   2.268   0.976   2.978 -1.2210 -0.2790 -0.0103
15939TIP3    H269309   2.217   1.119   2.970 -0.3874 -0.0332 -0.8899
15940TIP3   OH269310   3.387   2.503   4.800  0.2434 -0.0650 -0.3646
15940TIP3    H169311   3.474   2.475   4.827  0.5139  0.0197 -1.1479
15940TIP3    H269312   3.367   2.577   4.859 -0.2647 -1.5311  1.3484
15941TIP3   OH269313   3.773   4.467  10.607  0.3804 -0.1794 -0.5108
15941TIP3    H169314   3.689   4.431  10.635  0.5002  1.4228  2.1739
15941TIP3    H269315   3.756   4.560  10.595  1.1108 -0.3237 -2.8887
15942TIP3   OH269316   3.542   2.849   2.458 -0.2418  0.7371 -0.0704
15942TIP3    H169317   3.623   2.803   2.436  0.0506  1.4213 -0.4427
15942TIP3    H269318   3.532   2.836   2.553 -1.1459 -1.6393 -0.4544
15943TIP3   OH269319   5.011   0.066   6.029 -0.0487  0.4442  0.4975
15943TIP3    H169320   5.077   0.080   6.097 -1.4382  0.9480  1.7438
15943TIP3    H269321   4.952   0.000   6.065 -1.8883  2.1013  0.5611
15944TIP3   OH269322   1.084   4.637  11.001  0.7801 -0.3492 -0.0946
15944TIP3    H169323   1.035   4.709  10.961  0.5368 -0.1041  0.6342
15944TIP3    H269324   1.113   4.584  10.927  0.3666  0.1178 -0.5978
15945TIP3   OH269325   1.589   5.998   2.140  0.1485 -0.3225  0.1054
15945TIP3    H169326   1.533   5.958   2.073  1.8304 -1.7686 -0.4667
15945TIP3    H269327   1.596   5.931   2.208  2.8007 -0.9421 -0.7515
15946TIP3   OH269328   1.671   6.153  13.793 -0.0253  0.4366 -0.3296
15946TIP3    H169329   1.643   6.214  13.861 -0.5221 -1.0635  0.8243
15946TIP3    H269330   1.722   6.087  13.839  0.0844 -0.3130 -1.4975
15947TIP3   OH269331   1.203   1.906  16.613 -0.1064 -0.1765 -0.0857
15947TIP3    H169332   1.184   1.998  16.594  0.7511  0.0363  0.0609
15947TIP3    H269333   1.130   1.878  16.668  0.4543  0.8854  1.2375
15948TIP3   OH269334   3.092   4.743   1.960  0.5764 -0.3702 -0.1832
15948TIP3    H169335   3.087   4.648   1.952  2.2238 -0.4303 -0.6878
15948TIP3    H269336   3.139   4.772   1.882  0.4996  0.8094  0.1842
15949TIP3   OH269337   4.829   4.152   4.954  0.4994 -0.1135  0.3133
15949TIP3    H169338   4.910   4.173   5.002  0.8435 -1.0256  0.1446
15949TIP3    H269339   4.784   4.089   5.010  0.5296 -0.6018 -0.2145
15950TIP3   OH269340   0.411   6.047   0.112  0.6192 -0.0192  0.2282
15950TIP3    H169341   0.336   5.990   0.091  1.9802 -1.3973 -1.0457
15950TIP3    H269342   0.388   6.132   0.074 -0.7346 -0.1533  0.7184
15951TIP3   OH269343   2.438   5.969   3.370  0.1299  0.1358  0.0538
15951TIP3    H169344   2.396   5.901   3.422  3.0290 -0.2852  1.9585
15951TIP3    H269345   2.397   6.050   3.399 -0.0551 -0.3544  1.1966
15952TIP3   OH269346   5.704   0.601  14.471 -0.3091  0.7537 -0.2234
15952TIP3    H169347   5.756   0.521  14.473 -0.8084  0.4429  0.5162
15952TIP3    H269348   5.713   0.633  14.381  1.4028  0.8820 -0.0246
15953TIP3   OH269349   5.578   0.601   0.553  0.0342  0.4024  0.7028
15953TIP3    H169350   5.587   0.685   0.509 -1.4655  0.4988  0.5563
15953TIP3    H269351   5.484   0.580   0.547  0.0494 -0.2892  2.5450
15954TIP3   OH269352   1.421   6.006   6.372 -0.2502  0.1187 -0.3705
15954TIP3    H169353   1.427   6.030   6.465 -0.8836  1.5631 -0.7001
15954TIP3    H269354   1.328   6.017   6.350 -0.0353  0.1616 -1.2825
15955TIP3   OH269355   5.700   3.286   2.888 -0.1845 -0.1047 -0.2836
15955TIP3    H169356   5.675   3.265   2.978 -2.1200  1.0642 -0.4936
15955TIP3    H269357   5.660   3.218   2.835  0.7158 -0.6343 -0.2879
15956TIP3   OH269358   3.257   4.250   0.474 -0.3962 -0.1169  0.6246
15956TIP3    H169359   3.167   4.219   0.482 -1.0605  1.4454 -0.5375
15956TIP3    H269360   3.274   4.251   0.380 -0.7072  3.7428  0.5334
15957TIP3   OH269361   3.778   0.376   1.051 -0.0898 -0.0596  0.1509
15957TIP3    H169362   3.871   0.374   1.027  0.1240 -2.1079  1.0624
15957TIP3    H269363   3.752   0.467   1.036  2.1337  0.6139  0.1341
15958TIP3   OH269364   3.828   2.761   2.941 -0.1020 -0.2767 -0.4054
15958TIP3    H169365   3.918   2.789   2.922 -0.0844  0.8919  1.2976
15958TIP3    H269366   3.778   2.843   2.944 -0.5705 -0.6328  2.0398
15959TIP3   OH269367   5.675   1.742  12.665 -0.0807  0.0264 -0.0751
15959TIP3    H169368   5.682   1.647  12.675 -1.0298 -0.1712 -1.2556
15959TIP3    H269369   5.649   1.773  12.752 -2.5087 -1.0836 -0.3533
15960TIP3   OH269370   5.336   1.831   2.982  0.4416 -0.1106  0.4973
15960TIP3    H169371   5.340   1.879   3.065  0.7136 -2.0225  1.6138
15960TIP3    H269372   5.390   1.753   2.997 -0.2138 -0.9068 -1.1908
15961TIP3   OH269373   4.776   3.217   2.174 -0.8897  0.1591  0.3187
15961TIP3    H169374   4.708   3.150   2.169  0.2159 -1.0434  1.1171
15961TIP3    H269375   4.830   3.191   2.249 -1.2723  2.7406  1.5354
15962TIP3   OH269376   2.544   3.453   1.357  0.0439 -0.0614 -0.0894
15962TIP3    H169377   2.562   3.401   1.435  1.1814 -0.7412 -0.8023
15962TIP3    H269378   2.481   3.402   1.307  0.0432 -0.0683 -0.0812
15963TIP3   OH269379   3.828   1.587  16.016 -0.1858  0.3871  0.2233
15963TIP3    H169380   3.832   1.541  16.100  1.2962  0.1699  0.0512
15963TIP3    H269381   3.863   1.525  15.952 -1.7415  0.3764 -0.6502
15964TIP3   OH269382   5.425   5.298  13.139 -0.1525  0.8095  0.2691
15964TIP3    H169383   5.426   5.386  13.176 -0.0240  0.8057  0.2752
15964TIP3    H269384   5.393   5.310  13.049  1.6746  1.1173 -0.3642
15965TIP3   OH269385   4.745   0.953   4.621 -0.6470  0.4655  0.2427
15965TIP3    H169386   4.765   0.867   4.659  1.8471  0.8216 -0.1483
15965TIP3    H269387   4.654   0.946   4.592  0.1081 -2.7840 -1.6506
15966TIP3   OH269388   1.198   2.212  11.538 -0.3129 -0.4664  0.2808
15966TIP3    H169389   1.252   2.183  11.612  1.0117  1.4325  0.0970
15966TIP3    H269390   1.116   2.242  11.577  0.3054  0.3480  0.9757
15967TIP3   OH269391   1.248   3.479  15.503  0.4284  0.9492 -0.0946
15967TIP3    H169392   1.336   3.450  15.528 -0.0538 -2.0430 -1.6874
15967TIP3    H269393   1.195   3.465  15.582  0.3999 -1.7636 -0.5759
15968TIP3   OH269394   2.137   1.975   2.181  0.0888  0.0212  0.4201
15968TIP3    H169395   2.223   1.943   2.206 -0.5583  0.1137  2.8915
15968TIP3    H269396   2.118   2.044   2.244 -1.6627  0.2129 -0.2880
15969TIP3   OH269397   2.759   6.649  10.901  0.2722 -0.3020  0.0848
15969TIP3    H169398   2.739   6.741  10.885  0.9084 -0.3991 -1.3560
15969TIP3    H269399   2.740   6.636  10.994 -0.6886  1.0522  0.0886
15970TIP3   OH269400   0.331   4.917  15.411  0.0754 -0.3216 -0.6238
15970TIP3    H169401   0.246   4.957  15.394  0.4414 -0.2049 -2.2752
15970TIP3    H269402   0.320   4.825  15.384  0.3605 -0.3925 -0.5015
15971TIP3   OH269403   5.421   2.590   5.507  0.0118  0.5723 -0.2059
15971TIP3    H169404   5.354   2.521   5.503 -0.3727  1.0299 -1.8864
15971TIP3    H269405   5.372   2.671   5.495  0.7419  0.9875 -0.3553
15972TIP3   OH269406   4.023   5.416  13.450  0.0059 -0.4577  0.3002
15972TIP3    H169407   4.114   5.425  13.479  0.5094 -2.7928 -0.4984
15972TIP3    H269408   3.982   5.360  13.516 -0.7218  0.0952  0.3277
15973TIP3   OH269409   1.978   4.956  11.220  0.4035  0.5561  0.5190
15973TIP3    H169410   1.976   4.864  11.193  2.8502  0.5497  0.1882
15973TIP3    H269411   1.938   5.004  11.147  0.2618 -0.1499  0.1324
15974TIP3   OH269412   2.292   0.350  13.547 -0.3187 -0.2518  0.5517
15974TIP3    H169413   2.363   0.357  13.611 -0.0728 -0.0005  0.2552
15974TIP3    H269414   2.215   0.380  13.595  0.3601  2.6890 -0.0710
15975TIP3   OH269415   4.024   2.233  11.639 -0.1578 -0.1911 -0.1422
15975TIP3    H169416   3.950   2.266  11.688 -0.7773 -1.0130 -0.5125
15975TIP3    H269417   3.987   2.201  11.557  0.5213 -1.0727 -0.1210
15976TIP3   OH269418   5.241   6.028  12.244  0.8719  0.1468 -0.3634
15976TIP3    H169419   5.285   5.965  12.299  0.4551 -0.2690 -0.4991
15976TIP3    H269420   5.304   6.099  12.232  1.1223  0.0324  0.2726
15977TIP3   OH269421   0.428   1.051  12.366 -0.0083  0.6022 -0.2773
15977TIP3    H169422   0.383   1.082  12.444 -1.2571 -2.2576  0.1833
15977TIP3    H269423   0.434   1.128  12.310 -0.4047  2.3506  2.0017
15978TIP3   OH269424   0.736   1.061  16.548  0.6558  0.1914 -0.0090
15978TIP3    H169425   0.784   1.120  16.608 -1.1628  0.8182  0.8698
15978TIP3    H269426   0.648   1.099  16.544  0.5373 -0.3130 -2.4794
15979TIP3   OH269427   0.286   2.117  17.120 -0.3683 -0.0224 -0.5391
15979TIP3    H169428   0.313   2.208  17.130 -0.2385 -0.0234 -0.8742
15979TIP3    H269429   0.354   2.077  17.065  0.1678 -0.6008  0.5349
15980TIP3   OH269430   2.434   3.516  14.501 -0.5093 -0.4299  0.9233
15980TIP3    H169431   2.348   3.476  14.509 -0.4044 -0.9257 -0.3293
15980TIP3    H269432   2.482   3.485  14.578 -0.8193 -1.7655  0.5843
15981TIP3   OH269433   5.421   2.624   3.513 -0.0736 -0.0657  0.2721
15981TIP3    H169434   5.361   2.690   3.479 -0.8592 -0.4060  0.9729
15981TIP3    H269435   5.365   2.548   3.530  0.2007  0.2706  2.7765
15982TIP3   OH269436   4.989   0.338  13.323 -0.3604 -0.1255 -0.6573
15982TIP3    H169437   4.993   0.309  13.232 -2.9943 -0.3458 -0.7507
15982TIP3    H269438   5.020   0.263  13.374  0.2772 -0.3164 -1.3247
15983TIP3   OH269439   0.101   4.722  11.404  0.3471  0.5117  0.1010
15983TIP3    H169440   0.098   4.689  11.494 -1.6351 -0.1844 -0.1986
15983TIP3    H269441   0.036   4.793  11.403 -1.0968 -0.7806 -1.2526
15984TIP3   OH269442   5.648   3.420  14.640 -1.0329  0.0234 -0.5902
15984TIP3    H169443   5.732   3.384  14.670 -0.2985  0.3811 -2.1985
15984TIP3    H269444   5.656   3.515  14.655 -1.7678 -0.0981  0.7033
15985TIP3   OH269445   3.879   5.040  16.719  0.0492 -0.2189  0.5645
15985TIP3    H169446   3.836   5.040  16.804 -2.6050  1.2957 -0.7189
15985TIP3    H269447   3.907   4.949  16.706 -3.1096 -1.3421  1.3030
15986TIP3   OH269448   0.008   1.678  13.555 -0.4891  0.4699  0.0761
15986TIP3    H169449  -0.013   1.621  13.629  0.4121  1.4746  1.1377
15986TIP3    H269450   0.103   1.671  13.546 -0.7565 -0.9207 -2.0806
15987TIP3   OH269451   1.177   2.626  11.650 -0.8020  0.0286 -0.0519
15987TIP3    H169452   1.222   2.579  11.580 -2.6805 -0.5198 -0.9454
15987TIP3    H269453   1.230   2.611  11.728  1.6945  1.2201 -1.4831
15988TIP3   OH269454   4.975   3.083  11.844 -0.1741 -0.5994 -0.1219
15988TIP3    H169455   4.906   3.095  11.778 -1.1830 -1.8472  0.6673
15988TIP3    H269456   5.029   3.162  11.837 -0.4564 -0.5625 -2.1982
15989TIP3   OH269457   4.103   3.782  13.363  0.7815 -0.1585  0.5689
15989TIP3    H169458   4.054   3.735  13.297  0.3609  1.0198  0.0312
15989TIP3    H269459   4.191   3.745  13.359  0.6497 -0.3756 -0.3596
15990TIP3   OH269460   1.401   0.241   2.986  0.1382 -0.0447  0.5623
15990TIP3    H169461   1.312   0.206   2.996  0.7152 -1.8693 -0.5493
15990TIP3    H269462   1.450   0.205   3.060  1.0400 -2.6307 -1.2596
15991TIP3   OH269463   1.318   5.337   4.360 -0.3146  0.2481  0.4079
15991TIP3    H169464   1.270   5.257   4.383  0.2459 -0.1178  0.3218
15991TIP3    H269465   1.250   5.398   4.333 -0.6795 -0.4923 -0.3869
15992TIP3   OH269466   4.880   6.492   2.852 -0.1550  0.0296 -0.6725
15992TIP3    H169467   4.918   6.407   2.831 -0.5734 -0.2840 -0.1859
15992TIP3    H269468   4.812   6.505   2.785 -1.5216 -0.9938  0.4717
15993TIP3   OH269469   4.782   6.046  16.348  0.5137 -0.2897  0.5175
15993TIP3    H169470   4.796   6.014  16.259 -0.6594 -0.9341  0.5553
15993TIP3    H269471   4.801   6.139  16.343 -0.5366 -0.1253 -0.6436
15994TIP3   OH269472   0.287   4.287  12.271 -0.1506  0.1929  0.4907
15994TIP3    H169473   0.330   4.229  12.333  0.5761  0.8859  0.6413
15994TIP3    H269474   0.197   4.253  12.264  0.2676 -0.9508  0.5561
15995TIP3   OH269475   2.238   0.978   3.466 -0.1175 -0.5056  0.4774
15995TIP3    H169476   2.222   0.928   3.546  1.0596 -1.4587  0.1424
15995TIP3    H269477   2.174   0.944   3.404  0.6768 -1.6599  0.2491
15996TIP3   OH269478   3.785   6.293   0.742  0.0606 -0.7342  0.1249
15996TIP3    H169479   3.872   6.289   0.782 -0.1073 -3.2264  0.3520
15996TIP3    H269480   3.795   6.352   0.668  1.2593  1.1347  1.7211
15997TIP3   OH269481   2.539   4.613   1.729 -0.0014  0.5379 -0.3186
15997TIP3    H169482   2.573   4.636   1.815 -1.9432 -0.7957  0.8391
15997TIP3    H269483   2.609   4.562   1.689  0.5605  0.4134  0.8010
15998TIP3   OH269484   3.365   0.828  16.792 -0.4225  0.4659 -0.2162
15998TIP3    H169485   3.332   0.827  16.881  0.7485  0.5662  0.2221
15998TIP3    H269486   3.359   0.919  16.765  0.4230  0.6525  0.2125
15999TIP3   OH269487   0.155   6.260   1.279  0.4986  0.4661  0.9353
15999TIP3    H169488   0.157   6.190   1.344 -0.4003 -0.6341 -0.2084
15999TIP3    H269489   0.118   6.220   1.201  1.4512  1.8140 -0.2345
16000TIP3   OH269490   0.676   2.953   0.851  0.3681  0.0257  0.0256
16000TIP3    H169491   0.588   2.916   0.856  0.1641  0.3998 -0.8271
16000TIP3    H269492   0.664   3.039   0.811  1.2583 -0.3622 -1.0951
16001TIP3   OH269493   0.605   3.356  13.327  0.3178 -0.2588  0.2618
16001TIP3    H169494   0.637   3.422  13.389  1.2754 -0.2911 -0.1962
16001TIP3    H269495   0.656   3.371  13.247 -1.9022  0.6951 -0.9987
16002TIP3   OH269496   4.692   2.951  12.292 -0.2115  0.0572 -0.6694
16002TIP3    H169497   4.754   2.882  12.271 -2.2085 -2.2237  0.6764
16002TIP3    H269498   4.606   2.908  12.289 -1.5005  2.4506  0.3215
16003TIP3   OH269499   3.160   2.291  15.639  0.2561  0.4723  0.0110
16003TIP3    H169500   3.228   2.228  15.663  0.2588  0.3296 -0.3569
16003TIP3    H269501   3.192   2.329  15.557 -0.0648  0.4645 -0.1184
16004TIP3   OH269502   2.148   1.016   5.572 -0.3704 -0.4271 -0.2792
16004TIP3    H169503   2.210   0.944   5.560 -0.3408 -0.3995 -0.2912
16004TIP3    H269504   2.090   0.985   5.642 -0.5793 -0.6106 -0.5330
16005TIP3   OH269505   4.304   1.704   1.766  0.2091 -0.0410  0.0464
16005TIP3    H169506   4.346   1.622   1.793  1.7894  0.9997  0.8348
16005TIP3    H269507   4.308   1.759   1.844 -1.2494  0.6370 -0.3475
16006TIP3   OH269508   6.125   5.778   3.246 -0.1775 -0.3251 -0.3646
16006TIP3    H169509   6.141   5.845   3.313 -1.7792 -0.7996  0.5161
16006TIP3    H269510   6.063   5.717   3.287 -2.1729  0.0400 -2.7165
16007TIP3   OH269511   1.411   1.313  13.053 -0.3814  0.1535  0.5140
16007TIP3    H169512   1.353   1.388  13.067  1.1324  1.1832  1.5140
16007TIP3    H269513   1.435   1.286  13.142  2.2305  1.0098  0.1007
16008TIP3   OH269514   2.491   6.218  11.911 -0.0163  0.4052 -0.1188
16008TIP3    H169515   2.498   6.175  11.826  0.7799  0.5756 -0.1421
16008TIP3    H269516   2.508   6.149  11.975 -1.1390  0.1586 -0.0723
16009TIP3   OH269517   5.301   3.352   2.219 -0.0706  0.0133 -0.3774
16009TIP3    H169518   5.254   3.273   2.245 -0.1041  1.0370  2.8370
16009TIP3    H269519   5.241   3.424   2.241  1.5504  1.1326  0.4879
16010TIP3   OH269520   3.620   5.796  15.467  0.1532 -0.7852  0.0026
16010TIP3    H169521   3.606   5.888  15.447 -0.1909 -0.8694 -0.1381
16010TIP3    H269522   3.705   5.776  15.429  0.6315 -0.2972  0.7975
16011TIP3   OH269523   0.352   4.673  16.858 -0.1230 -0.5068 -0.3081
16011TIP3    H169524   0.349   4.748  16.918 -0.8233 -1.0701  0.3734
16011TIP3    H269525   0.282   4.615  16.889 -0.1143 -1.0652 -1.3271
16012TIP3   OH269526   6.712   4.421  11.074  0.8658 -0.3686 -0.7048
16012TIP3    H169527   6.795   4.451  11.037  0.9663 -0.1809 -0.3237
16012TIP3    H269528   6.719   4.326  11.076  1.3982 -0.3155  0.0933
16013TIP3   OH269529   2.455   5.571   0.003  0.1308  0.4546 -0.0286
16013TIP3    H169530   2.360   5.564   0.005  0.1001  0.7000 -0.7813
16013TIP3    H269531   2.478   5.600   0.092 -0.5857  1.5182 -0.1735
16014TIP3   OH269532   1.693   2.924   0.481  0.1281  0.5413 -0.5133
16014TIP3    H169533   1.646   2.932   0.565 -0.4420 -1.3809 -0.6091
16014TIP3    H269534   1.704   2.829   0.470  2.3583  0.8923 -1.4467
16015TIP3   OH269535   5.910   4.292   6.261  0.1850  1.1184 -0.1665
16015TIP3    H169536   5.985   4.238   6.235 -0.8284 -0.9505  1.0919
16015TIP3    H269537   5.924   4.376   6.216  2.3098  0.1592 -1.3657
16016TIP3   OH269538   3.699   6.101  15.206 -0.0793 -0.6037  0.5691
16016TIP3    H169539   3.659   6.070  15.125  0.1155  0.2349  0.1475
16016TIP3    H269540   3.680   6.195  15.208  0.1107 -0.5785  1.3819
16017TIP3   OH269541   1.679   5.335  13.819  0.3309  0.3595 -0.4258
16017TIP3    H169542   1.771   5.327  13.844 -0.4896  0.5069  2.9040
16017TIP3    H269543   1.641   5.250  13.842 -0.3105  0.1139 -2.2560
16018TIP3   OH269544   2.511   4.159   0.791 -0.2692  0.1963 -0.0195
16018TIP3    H169545   2.472   4.163   0.878 -0.9595  1.4148 -0.3765
16018TIP3    H269546   2.603   4.185   0.804 -0.1830 -0.3241  0.4435
16019TIP3   OH269547   3.339   4.938   5.940 -1.1688  0.5827  0.1930
16019TIP3    H169548   3.314   4.992   5.865 -0.9156  0.3943 -0.0296
16019TIP3    H269549   3.423   4.973   5.969 -1.2082  0.5785  0.3136
16020TIP3   OH269550   0.636   0.113   1.968 -0.0093  0.0805 -0.5036
16020TIP3    H169551   0.699   0.073   2.027 -3.0775 -0.2568  2.7101
16020TIP3    H269552   0.641   0.207   1.986 -0.3261  0.0643 -0.3190
16021TIP3   OH269553   6.566   5.161  13.560 -0.0425  0.0452 -0.3089
16021TIP3    H169554   6.561   5.070  13.589  0.0245  0.1548  0.0506
16021TIP3    H269555   6.501   5.167  13.490 -2.1850  0.4285  1.6356
16022TIP3   OH269556   5.516   4.566  15.352  0.0320  0.1832 -0.1609
16022TIP3    H169557   5.497   4.492  15.294  0.9985  0.2170 -0.5257
16022TIP3    H269558   5.527   4.527  15.438 -1.7548  0.1695  0.0786
16023TIP3   OH269559   2.788   3.289  13.710 -0.6501 -0.4105  0.2145
16023TIP3    H169560   2.780   3.299  13.805  1.2016 -1.0877  0.4640
16023TIP3    H269561   2.881   3.303  13.693 -0.6038 -2.3253 -1.2419
16024TIP3   OH269562   6.206   6.101   2.238 -0.2393  0.0969  0.2411
16024TIP3    H169563   6.211   6.180   2.291 -1.0926  0.5746 -0.3874
16024TIP3    H269564   6.286   6.102   2.185  0.4012 -0.1586  1.1931
16025TIP3   OH269565   2.658   6.212  14.355 -0.2992  0.1166 -1.0576
16025TIP3    H169566   2.714   6.198  14.431 -1.0034  2.6089 -0.0216
16025TIP3    H269567   2.717   6.248  14.288  0.0831 -0.9763 -1.3249
16026TIP3   OH269568   5.356   2.727   5.146 -0.1307 -0.3012  0.6396
16026TIP3    H169569   5.399   2.642   5.133 -0.1592 -0.1597 -0.4194
16026TIP3    H269570   5.428   2.790   5.146  0.2059 -0.5593  4.2809
16027TIP3   OH269571   3.276   4.504   3.528  0.4396 -0.2426  0.5934
16027TIP3    H169572   3.253   4.432   3.470 -1.0278  0.7969 -0.1639
16027TIP3    H269573   3.353   4.544   3.487  1.2394 -1.3550  1.0056
16028TIP3   OH269574   1.347   4.947  10.928  0.3584  0.4737 -0.4534
16028TIP3    H169575   1.336   5.042  10.930 -1.5878  0.2849 -1.5537
16028TIP3    H269576   1.429   4.933  10.881  1.0124  1.6144  0.3171
16029TIP3   OH269577   1.285   3.173  15.106 -0.4307  0.8303  0.3874
16029TIP3    H169578   1.269   3.119  15.029  2.1176  0.2903  0.2114
16029TIP3    H269579   1.317   3.256  15.071  1.5865  0.2730  0.8706
16030TIP3   OH269580   4.682   4.068   0.382 -0.5733 -0.0099 -0.8606
16030TIP3    H169581   4.709   4.160   0.380  0.6378 -0.2021  3.0731
16030TIP3    H269582   4.747   4.023   0.328 -0.2861  1.1786 -1.5347
16031TIP3   OH269583   5.643   6.625  11.306  0.2337  0.0292 -0.5274
16031TIP3    H169584   5.734   6.635  11.279  0.2211  0.1228 -0.5325
16031TIP3    H269585   5.592   6.656  11.231  0.2034  0.8991 -0.1473
16032TIP3   OH269586   0.028   5.115   5.780 -0.0903 -0.6257  0.3783
16032TIP3    H169587   0.049   5.064   5.858  0.6842  0.1478  0.6786
16032TIP3    H269588   0.025   5.205   5.809 -1.1416 -0.4630 -0.2252
16033TIP3   OH269589   6.698   6.236  15.094 -0.4631  0.2444  0.1334
16033TIP3    H169590   6.681   6.186  15.014 -0.7213  0.2343  0.1944
16033TIP3    H269591   6.611   6.261  15.125 -0.3421  0.5516  0.2192
16034TIP3   OH269592   4.754   5.104  13.884  0.5390 -0.0273 -0.3193
16034TIP3    H169593   4.739   5.158  13.961  0.9696 -0.4362  0.0472
16034TIP3    H269594   4.725   5.159  13.811 -3.8879 -1.1534  0.4350
16035TIP3   OH269595   4.381   4.368  12.148 -0.1101 -0.1223 -0.6416
16035TIP3    H169596   4.356   4.282  12.180  0.5234 -0.2654 -0.5148
16035TIP3    H269597   4.300   4.407  12.117 -0.9325  0.4159  2.0668
16036TIP3   OH269598   6.787   3.349   3.753 -0.4117  0.0705  0.0540
16036TIP3    H169599   6.725   3.420   3.770 -0.7649  0.2485 -1.8570
16036TIP3    H269600   6.792   3.301   3.836 -0.6228  1.9511  1.1957
16037TIP3   OH269601   5.711   5.649  13.526 -0.2174  0.3954  0.6186
16037TIP3    H169602   5.777   5.715  13.551 -0.1262 -0.1321  1.7869
16037TIP3    H269603   5.754   5.597  13.458  0.0779  0.9091  0.4088
16038TIP3   OH269604   4.755   1.791   4.689  0.3172  0.4056  0.3620
16038TIP3    H169605   4.660   1.792   4.699  0.4582  0.4866  1.8778
16038TIP3    H269606   4.782   1.882   4.707  0.6769  0.3629  0.0336
16039TIP3   OH269607   4.728   0.058  13.544  0.1878 -0.3281 -0.6382
16039TIP3    H169608   4.767   0.137  13.582  2.4544 -0.9660 -1.5690
16039TIP3    H269609   4.639   0.056  13.579  0.3146  2.2797 -0.0714
16040TIP3   OH269610   4.329   1.353   2.671  0.2486  0.2563  0.1594
16040TIP3    H169611   4.323   1.405   2.751  0.3666  0.7265 -0.1371
16040TIP3    H269612   4.266   1.394   2.611  0.4336  0.1351 -0.1173
16041TIP3   OH269613   0.609   5.329   1.716  0.1867 -0.6007 -0.6230
16041TIP3    H169614   0.565   5.271   1.778 -0.5992  1.7941  1.1601
16041TIP3    H269615   0.541   5.353   1.653 -0.0330 -0.0337 -0.1759
16042TIP3   OH269616   1.611   4.970  12.297  0.0285  0.3814  0.3423
16042TIP3    H169617   1.546   5.006  12.237  1.0132  1.4575 -0.1143
16042TIP3    H269618   1.667   4.915  12.241 -0.1527 -0.0950  0.6247
16043TIP3   OH269619   6.059   1.850   2.455 -0.3619 -0.3155 -0.2186
16043TIP3    H169620   6.044   1.788   2.526  0.0940 -1.2232 -0.8997
16043TIP3    H269621   6.088   1.930   2.499  1.8210 -1.4541  0.5269
16044TIP3   OH269622   4.328   4.762   2.184 -0.2538 -0.4355  0.0377
16044TIP3    H169623   4.394   4.736   2.248 -0.3081  0.9503  0.6674
16044TIP3    H269624   4.373   4.824   2.127 -0.2415 -1.5712 -1.2003
16045TIP3   OH269625   3.663   3.343  15.438 -0.0767  0.0391  1.1208
16045TIP3    H169626   3.755   3.332  15.463  0.1581 -0.7439 -0.0656
16045TIP3    H269627   3.636   3.256  15.408 -0.0385  1.1519 -2.3687
16046TIP3   OH269628   0.793   3.261  15.195  0.2157  0.3452 -0.5661
16046TIP3    H169629   0.884   3.276  15.168  0.3063 -0.3228 -0.6439
16046TIP3    H269630   0.755   3.349  15.201  1.4679  0.7753  1.5886
16047TIP3   OH269631   5.252   5.275   4.113  0.5008 -0.0051 -0.0114
16047TIP3    H169632   5.189   5.266   4.184  1.7530 -0.1530  1.0890
16047TIP3    H269633   5.277   5.367   4.114  0.3176  0.0511 -0.4354
16048TIP3   OH269634   0.271   1.771  13.687  0.0479  0.1939 -0.1073
16048TIP3    H169635   0.198   1.792  13.746  0.2650 -1.9506  0.9611
16048TIP3    H269636   0.348   1.774  13.743  0.3630 -0.9381 -0.4717
16049TIP3   OH269637   1.535   5.503   1.188 -0.4491 -0.0308 -0.7387
16049TIP3    H169638   1.468   5.517   1.121 -1.7621 -0.8238  0.3783
16049TIP3    H269639   1.492   5.450   1.254  1.0332  0.1838  0.4319
16050TIP3   OH269640   1.171   0.514   4.696  0.4423 -0.3749 -0.5580
16050TIP3    H169641   1.201   0.451   4.630  0.3835  0.3398 -1.2822
16050TIP3    H269642   1.095   0.556   4.655  0.3444  0.0038  0.0132
16051TIP3   OH269643   5.335   2.545   0.101 -0.1196 -0.2975  0.3435
16051TIP3    H169644   5.390   2.471   0.074 -0.6999 -0.3491 -0.7058
16051TIP3    H269645   5.334   2.540   0.196  2.2212  0.0810  0.4171
16052TIP3   OH269646   1.220   6.018   2.483  0.1052  0.1639  0.1032
16052TIP3    H169647   1.186   6.033   2.571 -0.0995  0.0025  0.0510
16052TIP3    H269648   1.295   6.077   2.476 -0.4705  0.9056  0.0376
16053TIP3   OH269649   4.739   5.676   3.561  0.3026 -0.0783  0.4230
16053TIP3    H169650   4.742   5.767   3.530 -1.8408 -0.5258 -1.2388
16053TIP3    H269651   4.646   5.658   3.571  0.7892 -1.5710  2.4127
16054TIP3   OH269652   2.442   5.473  11.150  0.0192  0.0789  0.0113
16054TIP3    H169653   2.510   5.537  11.129  0.1827  0.0630  0.4718
16054TIP3    H269654   2.475   5.391  11.114 -0.2040  0.2605 -0.6022
16055TIP3   OH269655   4.303   4.776   1.741  0.3509 -0.7060  0.2618
16055TIP3    H169656   4.227   4.772   1.683  2.1075  2.0872 -2.4067
16055TIP3    H269657   4.370   4.723   1.697  1.4916  0.8666  0.0729
16056TIP3   OH269658   6.631   3.709  11.285 -0.3355 -0.6838 -0.0762
16056TIP3    H169659   6.653   3.796  11.254 -0.9093 -0.2783  0.6226
16056TIP3    H269660   6.563   3.679  11.224 -1.6736  0.2284  0.9230
16057TIP3   OH269661   2.567   0.634  11.564 -0.1365  0.5056  0.2169
16057TIP3    H169662   2.546   0.543  11.544  1.0308  0.4769 -0.9262
16057TIP3    H269663   2.586   0.633  11.658  1.9677 -0.8684 -0.1823
16058TIP3   OH269664   4.468   5.580  15.136 -0.0301 -0.0314  0.1969
16058TIP3    H169665   4.469   5.489  15.168  1.2627  0.0064  0.2850
16058TIP3    H269666   4.547   5.588  15.083 -0.2794  0.9678 -0.0333
16059TIP3   OH269667   3.737   5.180   0.731 -0.6513  0.0702  0.2051
16059TIP3    H169668   3.790   5.240   0.783 -2.3901  1.2190  0.6849
16059TIP3    H269669   3.777   5.182   0.644  1.0488 -0.3309  0.9370
16060TIP3   OH269670   1.314   2.941   2.444  0.1459  0.0243  0.2112
16060TIP3    H169671   1.273   2.885   2.378 -1.4003  0.2004  1.0014
16060TIP3    H269672   1.338   2.881   2.515  3.4623 -0.4650 -1.1993
16061TIP3   OH269673   3.746   6.646  17.148  0.1320  0.4079  0.0710
16061TIP3    H169674   3.827   6.643  17.198 -2.3530 -0.9515  4.3472
16061TIP3    H269675   3.746   6.732  17.106  3.4415  0.6683  0.5183
16062TIP3   OH269676   4.478   0.753  11.308 -0.2077  0.0427  0.5319
16062TIP3    H169677   4.455   0.667  11.273  1.5371  0.1467 -0.9462
16062TIP3    H269678   4.429   0.815  11.255 -0.8846 -0.0079  1.1001
16063TIP3   OH269679   2.356   5.145  12.565 -0.0557 -0.0781  0.1964
16063TIP3    H169680   2.435   5.168  12.516  1.7407 -0.2548  2.8824
16063TIP3    H269681   2.335   5.056  12.537  0.3684  0.1814 -0.9598
16064TIP3   OH269682   3.066   3.443   3.785  0.5962 -0.0814  0.0775
16064TIP3    H169683   3.044   3.426   3.693 -0.8226 -1.1783  0.6136
16064TIP3    H269684   3.098   3.534   3.785 -0.5052  0.3328 -1.3132
16065TIP3   OH269685   1.306   1.982   2.766 -0.3676 -0.3724 -0.2520
16065TIP3    H169686   1.255   2.052   2.806 -1.3313 -1.7532  0.9636
16065TIP3    H269687   1.387   1.980   2.818  0.6589  1.3234 -1.7177
16066TIP3   OH269688   2.885   1.283  16.765 -0.0301  0.1121 -0.5046
16066TIP3    H169689   2.851   1.303  16.678 -1.3844  1.7730  0.3697
16066TIP3    H269690   2.812   1.302  16.824  1.8785  2.2244  1.2901
16067TIP3   OH269691   5.207   6.501   5.595 -0.0368 -0.0333  0.9371
16067TIP3    H169692   5.131   6.555   5.573  0.9972  1.5003  1.0317
16067TIP3    H269693   5.248   6.481   5.511 -0.4611 -0.7654  0.8954
16068TIP3   OH269694   1.191   6.223   0.553  0.2513  0.0178 -0.1991
16068TIP3    H169695   1.252   6.162   0.594  0.5024 -0.9385 -1.9660
16068TIP3    H269696   1.210   6.218   0.459 -0.2214  2.2621 -0.4637
16069TIP3   OH269697   5.075   6.673   1.113  0.5373 -0.3912  0.6440
16069TIP3    H169698   5.040   6.604   1.169  0.2235 -0.4788  0.3394
16069TIP3    H269699   5.166   6.647   1.099  1.0314  0.3805  2.2825
16070TIP3   OH269700   1.900   2.946   0.817  0.1308  0.9183 -0.3078
16070TIP3    H169701   1.868   2.863   0.780  1.7137  0.4968 -0.7852
16070TIP3    H269702   1.822   2.987   0.854 -0.6512 -0.8896  0.1409
16071TIP3   OH269703   1.713   6.586   1.850 -0.3273  0.3242  0.2704
16071TIP3    H169704   1.635   6.592   1.796 -0.0692  1.0707 -0.0323
16071TIP3    H269705   1.696   6.514   1.910 -1.0421  0.1681 -0.1193
16072TIP3   OH269706   4.995   2.239   3.108  0.1562 -0.4034  0.1393
16072TIP3    H169707   5.017   2.171   3.045  1.2557 -0.4052  0.5212
16072TIP3    H269708   4.971   2.315   3.054 -0.7489 -0.9821 -0.2836
16073TIP3   OH269709   5.936   5.853   5.578  0.4867  0.3869 -0.4295
16073TIP3    H169710   6.014   5.908   5.580  0.0471  0.9797  1.1098
16073TIP3    H269711   5.889   5.875   5.658 -1.6264  0.5390 -1.6879
16074TIP3   OH269712   6.428   2.739  14.967  0.3234 -0.1610  0.0377
16074TIP3    H169713   6.371   2.662  14.964  1.3391 -0.9118 -0.3979
16074TIP3    H269714   6.413   2.783  14.883 -0.4264  0.2537  0.3817
16075TIP3   OH269715   4.701   3.699  10.519  0.0659  0.0329 -0.2311
16075TIP3    H169716   4.619   3.722  10.563  0.3954 -1.7135  1.3443
16075TIP3    H269717   4.770   3.738  10.572  0.3780 -0.5096 -0.2376
16076TIP3   OH269718   4.332   5.066   0.344 -0.0483 -0.5784 -0.4460
16076TIP3    H169719   4.344   5.123   0.268 -0.4083  2.0370  1.3650
16076TIP3    H269720   4.419   5.064   0.385 -0.7452  1.3843  1.2547
16077TIP3   OH269721   3.936   1.840  14.159  0.6071  0.0332 -0.0131
16077TIP3    H169722   3.892   1.836  14.244  0.1238  0.4352 -0.2434
16077TIP3    H269723   3.917   1.927  14.126  2.6997  0.7102  0.4750
16078TIP3   OH269724   1.523   0.576   1.518 -0.3706 -0.1316  0.1782
16078TIP3    H169725   1.435   0.608   1.499 -0.3979  0.6474  1.5607
16078TIP3    H269726   1.511   0.487   1.551 -0.4866 -0.6826 -1.2977
16079TIP3   OH269727   0.349   5.970   0.923  0.2570 -0.1457  0.4443
16079TIP3    H169728   0.348   5.956   0.828 -1.3805  1.5458  0.1855
16079TIP3    H269729   0.339   5.883   0.960 -0.2306 -0.7038 -0.9551
16080TIP3   OH269730   3.124   2.319   3.791 -0.1086 -0.1776 -0.0580
16080TIP3    H169731   3.186   2.349   3.726  0.0703 -0.0549  0.1691
16080TIP3    H269732   3.038   2.340   3.754  0.0023  0.2470 -0.0773
16081TIP3   OH269733   2.065   6.816   6.552  0.0060  0.0174  0.2804
16081TIP3    H169734   2.024   6.830   6.466  0.7342 -0.0643 -0.0805
16081TIP3    H269735   2.035   6.730   6.579 -1.7429  0.8162  0.9610
16082TIP3   OH269736   5.047   6.211  15.944 -0.1345  0.5273  1.0165
16082TIP3    H169737   4.951   6.218  15.939  0.0258  2.3615  0.1310
16082TIP3    H269738   5.078   6.299  15.925  1.6645  0.5465  3.7146
16083TIP3   OH269739   5.399   3.219  15.730 -0.5563 -0.5910 -0.0445
16083TIP3    H169740   5.363   3.290  15.784 -0.4696 -0.3976 -0.2365
16083TIP3    H269741   5.321   3.172  15.698 -0.6072 -0.6971  0.2350
16084TIP3   OH269742   2.824   5.683   5.077  0.1895 -0.1428  0.5296
16084TIP3    H169743   2.832   5.734   5.157 -0.3062  0.9820 -0.1265
16084TIP3    H269744   2.825   5.592   5.106 -0.0508  0.2617  1.8160
16085TIP3   OH269745   0.100   2.213  14.705 -0.4805 -0.0139  0.0695
16085TIP3    H169746   0.113   2.300  14.742 -2.3980 -0.5234  2.0522
16085TIP3    H269747   0.055   2.229  14.621 -1.2403  0.8967  0.6370
16086TIP3   OH269748   3.007   0.332  14.413 -0.4853  0.5160  0.2354
16086TIP3    H169749   2.985   0.411  14.463 -2.7225 -0.3689  0.6905
16086TIP3    H269750   3.028   0.267  14.481  3.4504  1.2601 -0.1689
16087TIP3   OH269751   0.780   6.568  12.835 -0.0797 -0.2319  0.1212
16087TIP3    H169752   0.705   6.542  12.887  1.2628 -1.2490  1.6009
16087TIP3    H269753   0.761   6.657  12.807 -2.1734 -0.7630 -0.2049
16088TIP3   OH269754   5.922   4.388  13.368 -0.8220 -0.5932 -0.1990
16088TIP3    H169755   5.858   4.419  13.304  0.6805  0.1823 -1.3539
16088TIP3    H269756   5.931   4.461  13.429  1.0644  0.4667 -1.6696
16089TIP3   OH269757   0.248   1.660   0.968 -0.3977  0.3493  0.3370
16089TIP3    H169758   0.228   1.612   0.888  1.5642  1.6957 -0.9770
16089TIP3    H269759   0.233   1.751   0.946 -0.5489  0.6718  1.7290
16090TIP3   OH269760   4.849   3.348  12.364 -0.2860 -0.0640  0.2864
16090TIP3    H169761   4.754   3.346  12.367 -0.2753 -2.3554  0.2016
16090TIP3    H269762   4.871   3.369  12.273 -0.6958  0.0329  0.2113
16091TIP3   OH269763   5.592   4.405  11.491 -0.0451  0.7826  0.2190
16091TIP3    H169764   5.670   4.427  11.541 -0.4120 -1.2948  1.7948
16091TIP3    H269765   5.603   4.450  11.408  2.5585  0.9734  0.6224
16092TIP3   OH269766   2.814   1.732  15.786  0.4347  0.3694  0.1123
16092TIP3    H169767   2.757   1.803  15.756  0.8802  1.0299  0.8151
16092TIP3    H269768   2.897   1.747  15.741  0.4806  0.2049  0.1408
16093TIP3   OH269769   2.987   6.522   5.138  0.6529  0.1844  0.9410
16093TIP3    H169770   2.976   6.608   5.097 -0.2427  0.8561  2.5378
16093TIP3    H269771   2.906   6.509   5.187  0.4031 -1.9726  0.0252
16094TIP3   OH269772   1.005   2.307  14.807  0.2259  0.2622 -0.4110
16094TIP3    H169773   1.013   2.285  14.714  2.2327  0.7623 -0.3696
16094TIP3    H269774   1.082   2.268  14.848 -0.2539  0.6863  0.9394
16095TIP3   OH269775   1.196   0.031   5.124 -0.6197  0.2552  0.3346
16095TIP3    H169776   1.178  -0.002   5.036 -3.0068 -1.3873  1.3915
16095TIP3    H269777   1.181   0.126   5.118 -1.9882 -0.0223 -0.7416
16096TIP3   OH269778   6.403   4.425   5.042  0.0643 -0.3975 -0.0618
16096TIP3    H169779   6.366   4.509   5.069  0.8072 -0.1820  0.2804
16096TIP3    H269780   6.485   4.418   5.090 -0.5206 -1.8247  0.7690
16097TIP3   OH269781   1.944   5.267   2.093 -0.0446  0.1117  0.0452
16097TIP3    H169782   1.859   5.255   2.051  0.8418 -1.4287 -1.3637
16097TIP3    H269783   1.993   5.323   2.032  0.0029  0.9005  0.7962
16098TIP3   OH269784   3.898   2.338  14.177  0.3697  0.0215 -0.0316
16098TIP3    H169785   3.905   2.298  14.091  0.6918 -0.0158  0.0111
16098TIP3    H269786   3.909   2.266  14.239  0.1709  0.0532  0.0412
16099TIP3   OH269787   6.152   3.779   0.500  0.2508 -0.0916 -0.2709
16099TIP3    H169788   6.084   3.827   0.548  0.4691  0.0296 -0.0843
16099TIP3    H269789   6.104   3.710   0.454  0.2251 -1.1494  1.3081
16100TIP3   OH269790   5.023   2.543   3.734  0.1168  0.0568  0.4579
16100TIP3    H169791   5.000   2.508   3.820  2.4987 -0.9437  0.7238
16100TIP3    H269792   5.101   2.597   3.750  0.3375  0.1801 -0.9910
16101TIP3   OH269793   5.684   5.947   0.233 -0.9157  0.0083 -0.2718
16101TIP3    H169794   5.616   5.964   0.168  0.6835 -0.0563 -1.9990
16101TIP3    H269795   5.756   6.006   0.209 -0.9606  1.2891  2.5237
16102TIP3   OH269796   3.908   4.349   4.761  0.0236  0.2980 -0.6663
16102TIP3    H169797   3.818   4.365   4.732 -0.9488 -0.7211  1.6328
16102TIP3    H269798   3.941   4.282   4.702 -0.7905  0.5375 -1.4093
16103TIP3   OH269799   5.425   3.433  11.231 -0.3875  0.1019 -0.0419
16103TIP3    H169800   5.424   3.451  11.325  1.9210  0.1640  0.0046
16103TIP3    H269801   5.443   3.339  11.224  0.1723  0.2315 -0.4178
16104TIP3   OH269802   0.943   3.677  13.397 -0.4524 -0.5388 -0.3920
16104TIP3    H169803   0.894   3.596  13.408 -0.8101 -0.0503  1.8663
16104TIP3    H269804   0.879   3.746  13.412  0.3334  0.1373 -0.1214
16105TIP3   OH269805   1.754   2.226  15.655 -0.4338  0.5129  0.3590
16105TIP3    H169806   1.736   2.301  15.599  0.3536 -1.1336 -2.1549
16105TIP3    H269807   1.847   2.208  15.642 -0.6665 -1.0328  0.7751
16106TIP3   OH269808   6.312   1.684   1.635  0.1943  0.1166  0.5932
16106TIP3    H169809   6.300   1.591   1.653 -1.1128 -0.0337 -0.9799
16106TIP3    H269810   6.236   1.726   1.675  1.2704  0.6287  2.1334
16107TIP3   OH269811   1.580   0.010  16.082  0.1775 -0.1455  0.3044
16107TIP3    H169812   1.597  -0.008  16.175 -2.8919 -0.1754  0.9038
16107TIP3    H269813   1.574  -0.076  16.041  1.3217 -0.1355  0.0961
16108TIP3   OH269814   5.626   2.925   4.583 -0.2222 -0.1311 -0.5209
16108TIP3    H169815   5.605   2.976   4.505 -1.3371  0.2795  0.0462
16108TIP3    H269816   5.547   2.927   4.636  0.4405 -0.6259  0.5135
16109TIP3   OH269817   0.813   4.246   5.547  0.0477 -0.5306  0.1959
16109TIP3    H169818   0.793   4.292   5.465 -1.7524 -0.4160  0.6728
16109TIP3    H269819   0.778   4.303   5.615  0.7545 -1.0517  0.9986
16110TIP3   OH269820   3.030   5.252  12.094  0.8256  0.3956  0.0901
16110TIP3    H169821   3.032   5.164  12.057  0.7116  1.7054 -3.1531
16110TIP3    H269822   3.061   5.241  12.184 -0.2629 -3.0950  0.0956
16111TIP3   OH269823   2.358   1.172  15.838  0.4394 -0.4704 -0.1084
16111TIP3    H169824   2.420   1.103  15.863  0.5370 -0.0730  0.7432
16111TIP3    H269825   2.275   1.145  15.876  0.1910 -0.7285 -0.8054
16112TIP3   OH269826   4.687   3.795   4.915 -0.5217  0.2711  0.6058
16112TIP3    H169827   4.595   3.779   4.897 -0.7557  2.1099  0.0130
16112TIP3    H269828   4.688   3.843   4.997 -0.0987  0.3828  0.5383
16113TIP3   OH269829   0.321   6.228  15.287 -0.0644  0.4621 -0.7315
16113TIP3    H169830   0.229   6.254  15.285  0.6440  3.0821 -0.8934
16113TIP3    H269831   0.326   6.154  15.227 -2.1646 -0.1198 -0.2438
16114TIP3   OH269832   5.885   2.581  13.887  0.0540 -0.9055 -0.2475
16114TIP3    H169833   5.883   2.657  13.945  0.1718 -1.5546  0.6135
16114TIP3    H269834   5.924   2.614  13.806 -1.1628  0.2861 -0.3783
16115TIP3   OH269835   2.073   6.133   2.167 -0.2677  0.2012  0.2021
16115TIP3    H169836   2.163   6.141   2.136  0.0025  0.7931  1.1309
16115TIP3    H269837   2.070   6.047   2.211 -0.6396 -0.6158 -1.3921
16116TIP3   OH269838   0.334   0.592   5.851  0.6764 -0.1587  0.3020
16116TIP3    H169839   0.387   0.539   5.911 -0.6354 -1.1433  0.6129
16116TIP3    H269840   0.275   0.530   5.810  0.3628  0.7927 -0.7150
16117TIP3   OH269841   2.315   3.128  14.292  0.0479  1.0736 -0.3732
16117TIP3    H169842   2.319   3.134  14.196 -1.1730 -0.4019 -0.5332
16117TIP3    H269843   2.313   3.034  14.310 -0.1571  1.3459  1.0877
16118TIP3   OH269844   4.654   5.539   1.821  0.3382 -0.0903 -0.0124
16118TIP3    H169845   4.691   5.473   1.762  0.0052  0.5115 -0.9037
16118TIP3    H269846   4.579   5.495   1.861 -0.9596  0.2868 -1.9304
16119TIP3   OH269847   2.364   6.430  16.102 -0.6004  0.8128 -0.2616
16119TIP3    H169848   2.303   6.443  16.174 -2.5018  0.9748 -1.8357
16119TIP3    H269849   2.376   6.517  16.064  2.5366  1.1993  1.4729
16120TIP3   OH269850   0.227   1.614  15.155  0.2324 -0.3431  0.1819
16120TIP3    H169851   0.215   1.639  15.247  0.9076 -1.8875  0.7139
16120TIP3    H269852   0.138   1.613  15.119  0.0896  1.5717  0.4561
16121TIP3   OH269853   6.642   3.992   1.392  0.2321 -0.2154 -0.5390
16121TIP3    H169854   6.584   3.997   1.316 -0.9847 -4.6173 -0.0121
16121TIP3    H269855   6.710   3.930   1.366  0.6070 -0.6780  1.4658
16122TIP3   OH269856   0.551   5.282   0.150 -0.5394 -0.2626 -0.9117
16122TIP3    H169857   0.501   5.301   0.229 -1.3875 -1.3550 -1.1807
16122TIP3    H269858   0.555   5.367   0.104 -1.1559  0.0879 -0.3273
16123TIP3   OH269859   1.782   1.877   6.178  0.3759 -0.2076 -0.3761
16123TIP3    H169860   1.692   1.906   6.189  1.0323  2.3127 -1.1505
16123TIP3    H269861   1.782   1.785   6.203 -2.2699 -0.0639  0.2345
16124TIP3   OH269862   4.308   4.964  14.130  0.1321  0.2937 -0.1097
16124TIP3    H169863   4.245   5.025  14.168  1.2877  0.2132  1.9659
16124TIP3    H269864   4.299   4.884  14.182  1.6692  0.1531 -0.0316
16125TIP3   OH269865   3.387   4.475   2.782  0.0736 -0.4515  0.5172
16125TIP3    H169866   3.309   4.497   2.832  0.2186  0.8585  0.1915
16125TIP3    H269867   3.459   4.519   2.829  0.0636  1.8178 -1.4561
16126TIP3   OH269868   0.685   5.954   3.281  0.1918  0.2765 -0.5341
16126TIP3    H169869   0.700   6.027   3.340  1.1233  0.4995 -1.0270
16126TIP3    H269870   0.766   5.947   3.230  0.3553 -1.4707 -0.0767
16127TIP3   OH269871   6.005   1.479   2.436 -0.2805  0.0094  0.4748
16127TIP3    H169872   5.953   1.555   2.461  1.0975  1.1272 -0.0060
16127TIP3    H269873   6.024   1.435   2.519 -0.1099  0.8419  0.8855
16128TIP3   OH269874   4.390   4.470   4.915 -0.0003  0.6229 -0.2062
16128TIP3    H169875   4.350   4.386   4.890 -0.5617  0.6687  0.5338
16128TIP3    H269876   4.465   4.446   4.969 -0.7486  0.6299  0.8355
16129TIP3   OH269877   1.590   2.589  12.800  0.3527 -0.5208  0.3742
16129TIP3    H169878   1.534   2.553  12.731  0.8859 -0.3043 -0.1761
16129TIP3    H269879   1.657   2.522  12.813  0.3935 -0.4522  0.5124
16130TIP3   OH269880   4.111   0.987   4.352  0.2616 -0.4190  0.6165
16130TIP3    H169881   4.046   0.919   4.337  1.5758 -1.3776 -0.9056
16130TIP3    H269882   4.156   0.996   4.268  0.8913  1.4971  1.1369
16131TIP3   OH269883   4.588   2.433  17.160  0.1550 -0.7428 -0.2515
16131TIP3    H169884   4.588   2.480  17.243  1.2156 -1.6343  0.2624
16131TIP3    H269885   4.530   2.358  17.174 -0.7828 -0.1196 -0.7694
16132TIP3   OH269886   2.984   5.075  14.826  0.2658  0.4208 -0.1396
16132TIP3    H169887   2.971   5.160  14.869  1.8011  0.5445  0.1160
16132TIP3    H269888   3.079   5.071  14.811  0.5037 -2.1495  1.7981
16133TIP3   OH269889   4.286   1.173  16.258  0.4105  0.0066 -0.0443
16133TIP3    H169890   4.356   1.239  16.254  0.9780 -0.6487 -1.1441
16133TIP3    H269891   4.301   1.118  16.181 -0.2780 -1.1933  0.6765
16134TIP3   OH269892   2.855   5.862   0.517  0.0043  0.0486  0.0684
16134TIP3    H169893   2.803   5.786   0.544 -0.3252 -0.1355 -1.0600
16134TIP3    H269894   2.816   5.890   0.434 -0.7948  2.3446  1.1587
16135TIP3   OH269895   6.033   5.152   5.615 -0.1161  0.5824  0.3187
16135TIP3    H169896   5.964   5.192   5.667 -1.2068  1.4673 -1.7261
16135TIP3    H269897   5.991   5.079   5.570  0.8054 -0.1869  0.6862
16136TIP3   OH269898   1.091   2.472  13.052 -0.2088 -0.0059 -0.4296
16136TIP3    H169899   1.049   2.407  13.107 -0.1165 -0.4062 -0.8281
16136TIP3    H269900   1.021   2.531  13.024 -0.3524 -0.1483 -0.3628
16137TIP3   OH269901   5.591   6.756   1.099 -0.0097  0.1833 -0.2075
16137TIP3    H169902   5.681   6.765   1.130  0.2983 -0.9762 -0.7718
16137TIP3    H269903   5.539   6.798   1.168  0.9784  1.2513 -0.0785
16138TIP3   OH269904   0.458   6.009  12.951  0.1462  0.2932  0.1751
16138TIP3    H169905   0.423   6.000  13.040  1.2035  1.1408  0.6872
16138TIP3    H269906   0.532   5.948  12.949 -0.1434 -0.0439 -0.2646
16139TIP3   OH269907   1.808   4.363  13.486 -0.6703  0.0593  1.1430
16139TIP3    H169908   1.746   4.363  13.560 -0.1164 -0.1344  1.6069
16139TIP3    H269909   1.783   4.441  13.436  0.6214  1.6988  2.9635
16140TIP3   OH269910   5.679   5.756   3.281 -0.0301  0.3605 -0.0834
16140TIP3    H169911   5.658   5.664   3.299 -1.9523  1.0197  1.1525
16140TIP3    H269912   5.597   5.793   3.247  0.8206  1.5353 -0.8843
16141TIP3   OH269913   4.156   0.147  15.796  0.4451 -0.0490  0.1617
16141TIP3    H169914   4.232   0.175  15.745  0.1656  0.6624  0.1302
16141TIP3    H269915   4.094   0.219  15.788 -0.4193 -0.8255 -0.1996
16142TIP3   OH269916   0.510   5.815  12.001  0.5054  0.0730 -0.2411
16142TIP3    H169917   0.601   5.788  12.017 -0.4781 -2.7026  0.9513
16142TIP3    H269918   0.484   5.860  12.081  0.1651 -1.0477  0.2900
16143TIP3   OH269919   4.350   4.625  13.289 -0.1835 -0.0809  0.7782
16143TIP3    H169920   4.283   4.580  13.341  0.4195 -0.3036  1.3664
16143TIP3    H269921   4.408   4.665  13.354 -0.9376  1.9083  0.2873
16144TIP3   OH269922   0.152   1.081  13.341  0.1750 -0.2704  0.2408
16144TIP3    H169923   0.097   1.019  13.388 -2.8878  1.9316 -0.2567
16144TIP3    H269924   0.090   1.138  13.295  2.9274  1.3496 -1.6368
16145TIP3   OH269925   0.609   4.713   0.640  0.2487  0.5018  0.1279
16145TIP3    H169926   0.674   4.709   0.571 -1.3902  0.6599 -1.4654
16145TIP3    H269927   0.582   4.622   0.653  0.5771  0.4684  0.5934
16146TIP3   OH269928   1.447   2.800   5.054  0.0124 -0.4448 -0.1253
16146TIP3    H169929   1.447   2.723   5.111 -0.4062 -1.6269 -1.6766
16146TIP3    H269930   1.371   2.851   5.081 -0.0629 -0.8893  0.4991
16147TIP3   OH269931   3.711   4.064  16.468 -0.0431 -0.6860  0.2254
16147TIP3    H169932   3.749   4.059  16.555  0.8043 -0.1851 -0.1151
16147TIP3    H269933   3.785   4.059  16.408 -0.1910  3.1069 -0.3895
16148TIP3   OH269934   6.334   0.562  11.965  0.6766  0.0482  0.4346
16148TIP3    H169935   6.422   0.529  11.983  1.2262  0.9497 -0.5639
16148TIP3    H269936   6.301   0.506  11.895  1.3370  1.1422 -0.7677
16149TIP3   OH269937   3.572   0.985   2.974  0.6845  0.1557  0.0926
16149TIP3    H169938   3.503   1.018   3.031  0.7272  0.4166 -0.0066
16149TIP3    H269939   3.565   0.890   2.981 -0.0591  0.1720 -0.3631
16150TIP3   OH269940   5.712   6.467  16.020 -0.3457  0.3800  0.0872
16150TIP3    H169941   5.626   6.449  16.061  0.6222 -1.5689  1.3650
16150TIP3    H269942   5.723   6.396  15.956 -0.1799  1.2694 -0.8700
16151TIP3   OH269943   4.917   1.194   4.239  0.4993  0.0525  0.0062
16151TIP3    H169944   4.850   1.134   4.274  1.0857 -1.5692 -1.5888
16151TIP3    H269945   4.994   1.139   4.228  0.8548  0.9420 -2.1145
16152TIP3   OH269946   5.418   0.641  11.328  0.1847 -0.2391  0.0111
16152TIP3    H169947   5.451   0.649  11.238  1.7974  0.7479  0.6645
16152TIP3    H269948   5.365   0.719  11.341 -1.6602 -1.3510 -0.7197
16153TIP3   OH269949   4.726   0.818  11.410  0.0135  0.1714 -0.5718
16153TIP3    H169950   4.682   0.851  11.488  0.5770  0.6405 -0.4550
16153TIP3    H269951   4.659   0.766  11.365 -0.2035 -0.4145  0.4181
16154TIP3   OH269952   5.604   2.214  10.808 -0.3984  0.1512 -0.0106
16154TIP3    H169953   5.514   2.189  10.828 -0.4006  0.3594  0.2422
16154TIP3    H269954   5.604   2.231  10.713 -0.1929 -1.6549 -0.3476
16155TIP3   OH269955   3.423   2.384  13.424  0.3416 -0.4681 -0.0039
16155TIP3    H169956   3.399   2.464  13.471  3.0965  0.0146  0.6404
16155TIP3    H269957   3.340   2.352  13.389 -1.4143  0.5011  3.0685
16156TIP3   OH269958   2.529   0.038   3.753  0.1441  0.1831 -0.0603
16156TIP3    H169959   2.473  -0.014   3.810  1.7349  1.4969  2.8041
16156TIP3    H269960   2.618   0.011   3.777  0.8970  2.4175 -0.2735
16157TIP3   OH269961   4.375   0.063  13.483  0.0712 -0.2669  0.1430
16157TIP3    H169962   4.379   0.127  13.412 -1.0151 -0.6145 -0.2517
16157TIP3    H269963   4.346  -0.018  13.440 -1.5681 -0.2344  1.1427
16158TIP3   OH269964   3.049   2.749   3.315 -0.5675  0.4972 -0.4486
16158TIP3    H169965   3.043   2.731   3.409 -3.4704  0.4763 -0.6014
16158TIP3    H269966   3.063   2.663   3.275  1.1328  0.5632 -0.0092
16159TIP3   OH269967   0.683   1.869  15.042  0.4859  0.1469  0.3977
16159TIP3    H169968   0.714   1.781  15.063  0.0217  0.5604  2.8638
16159TIP3    H269969   0.587   1.862  15.046  0.3483  0.2035 -1.8324
16160TIP3   OH269970   0.338   3.666   0.975  1.1797 -0.6440 -0.1650
16160TIP3    H169971   0.331   3.571   0.983 -1.2914 -0.2654  3.0018
16160TIP3    H269972   0.399   3.692   1.044 -0.0974  0.2657  0.6558
16161TIP3   OH269973   2.728   6.634  12.035 -0.2275 -0.0718 -0.0967
16161TIP3    H169974   2.785   6.671  11.967  0.0991 -1.8034 -0.7763
16161TIP3    H269975   2.639   6.650  12.003 -0.0843 -0.1682 -0.5538
16162TIP3   OH269976   1.007   1.585  14.743  0.6019 -0.0443 -0.3702
16162TIP3    H169977   0.929   1.627  14.708 -0.0403 -1.2326 -0.4032
16162TIP3    H269978   0.985   1.565  14.834  0.6662 -0.8206 -0.5149
16163TIP3   OH269979   3.521   3.290   3.561  0.3776  0.1643 -0.0986
16163TIP3    H169980   3.454   3.225   3.541 -0.4428  0.1241  2.5366
16163TIP3    H269981   3.481   3.346   3.627  2.1458  1.5101 -0.1370
16164TIP3   OH269982   1.700   3.618  13.919  0.2918 -0.3285  0.5344
16164TIP3    H169983   1.781   3.658  13.888  0.5091 -1.8651 -0.9547
16164TIP3    H269984   1.716   3.599  14.011  1.3210  0.1265  0.4511
16165TIP3   OH269985   3.462   5.975  17.240 -0.2775 -0.0482  0.5791
16165TIP3    H169986   3.530   5.983  17.173  0.3008  0.3787  1.2163
16165TIP3    H269987   3.395   5.920  17.199  0.5207 -0.6030  0.0086
16166TIP3   OH269988   1.800   2.086  12.704  0.2155 -0.0677 -0.0434
16166TIP3    H169989   1.846   2.144  12.642 -1.3828  0.2907 -0.9178
16166TIP3    H269990   1.746   2.145  12.756 -1.0082 -0.7050 -0.5734
16167TIP3   OH269991   2.404   0.026  16.629 -0.7987 -0.3478 -0.0420
16167TIP3    H169992   2.422   0.115  16.658 -0.6721 -0.3405 -0.1439
16167TIP3    H269993   2.473   0.007  16.565 -0.8876 -0.4816 -0.0971
16168TIP3   OH269994   2.411   2.551  12.978 -0.1436  0.1182 -0.9917
16168TIP3    H169995   2.376   2.481  12.922 -0.3477  1.2441 -2.2866
16168TIP3    H269996   2.353   2.550  13.054 -0.5958 -0.6348 -1.3314
16169TIP3   OH269997   5.845   2.779  10.836  0.2947 -0.0949 -0.0634
16169TIP3    H169998   5.831   2.871  10.858 -1.1952 -0.2201 -0.3870
16169TIP3    H269999   5.776   2.760  10.772  1.5783 -1.0120 -1.1976
16170TIP3   OH270000   5.755   5.303   2.763  0.6374  0.7937  0.1692
16170TIP3    H170001   5.710   5.347   2.835 -1.4593  0.9679 -1.2392
16170TIP3    H270002   5.688   5.249   2.722  1.9859  0.1662 -1.2480
16171TIP3   OH270003   6.192   5.916   3.478 -0.9236 -0.3811  0.4904
16171TIP3    H170004   6.269   5.903   3.533  0.8023  0.8349 -1.5565
16171TIP3    H270005   6.148   5.991   3.517 -0.9663 -0.9342  1.5344
16172TIP3   OH270006   4.069   2.030   1.783 -0.0959  0.0879 -0.5419
16172TIP3    H170007   4.033   1.946   1.755  0.2796  0.3388 -1.8175
16172TIP3    H270008   4.022   2.051   1.864 -0.7996 -0.9331 -0.6813
16173TIP3   OH270009   2.948   2.394  14.259  0.0118  0.2816 -0.1344
16173TIP3    H170010   2.886   2.424  14.326 -0.0986  1.3980 -0.7185
16173TIP3    H270011   2.964   2.302  14.280  0.8385  0.9252  2.0779
16174TIP3   OH270012   2.323   6.681   0.592  0.0101 -0.2201 -0.3584
16174TIP3    H170013   2.414   6.709   0.601 -0.3034  1.0071 -0.9686
16174TIP3    H270014   2.329   6.586   0.576  1.1942 -0.0715 -0.8886
16175TIP3   OH270015   2.953   2.955  11.636  0.2866 -0.1030 -0.2414
16175TIP3    H170016   2.910   2.962  11.551  1.6983 -2.2819 -1.2061
16175TIP3    H270017   2.925   2.869  11.670  1.3136 -0.1252  0.5760
16176TIP3   OH270018   6.411   0.725   1.134  0.1508 -0.1352 -0.0223
16176TIP3    H170019   6.462   0.673   1.196 -2.8154 -1.2812  1.5423
16176TIP3    H270020   6.369   0.792   1.188 -0.8997  0.0755 -1.0828
16177TIP3   OH270021   1.089   0.534  13.053  0.2803 -0.4063  0.2745
16177TIP3    H170022   1.104   0.439  13.054 -0.1978 -0.4690  1.6155
16177TIP3    H270023   1.098   0.558  12.960  2.4307 -1.4301  0.1706
16178TIP3   OH270024   1.617   3.754  15.513  0.7320 -0.3421  0.8421
16178TIP3    H170025   1.635   3.784  15.603  0.0349 -2.9607  1.9087
16178TIP3    H270026   1.522   3.742  15.511  0.7601 -0.3887 -0.2246
16179TIP3   OH270027   6.076   6.158   3.559  0.9524 -0.1449  0.3796
16179TIP3    H170028   6.112   6.244   3.582 -0.6146  0.7006 -0.2683
16179TIP3    H270029   6.011   6.140   3.626  1.5843 -1.0220  0.7515
16180TIP3   OH270030   5.914   1.181  11.641 -0.4398  0.3003  0.1698
16180TIP3    H170031   5.996   1.224  11.617 -0.0332 -0.4859  0.1303
16180TIP3    H270032   5.900   1.115  11.572 -0.6056 -0.2203  0.6961
16181TIP3   OH270033   5.115   5.719   5.261 -0.6844 -0.3160 -0.1934
16181TIP3    H170034   5.151   5.801   5.296  0.2500 -1.1326  0.8320
16181TIP3    H270035   5.092   5.669   5.339 -0.8743 -1.1823 -0.8036
16182TIP3   OH270036   3.305   2.858  17.290 -0.1542  0.5856  0.1391
16182TIP3    H170037   3.290   2.942  17.334  1.4647  0.5620  0.7950
16182TIP3    H270038   3.271   2.792  17.351 -0.3028  0.6969  0.1768
16183TIP3   OH270039   1.035   2.802   2.442  1.1256  0.2296 -0.1200
16183TIP3    H170040   0.946   2.829   2.465  1.1751  0.1200  0.1995
16183TIP3    H270041   1.079   2.790   2.526  1.6515  0.9816 -0.2782
16184TIP3   OH270042   0.426   6.114   4.014  0.3325  0.2831  0.2439
16184TIP3    H170043   0.396   6.024   3.998  1.0886 -0.0145  0.4860
16184TIP3    H270044   0.486   6.106   4.088 -0.6404  1.1862  1.1415
16185TIP3   OH270045   3.843   3.802  13.205 -0.5782 -0.1042  0.7151
16185TIP3    H170046   3.845   3.870  13.272  1.1595  0.0982  0.4773
16185TIP3    H270047   3.908   3.830  13.140 -0.4221 -1.5735  0.2117
16186TIP3   OH270048   4.671   4.264  13.881 -0.0305 -0.6285  0.0352
16186TIP3    H170049   4.748   4.311  13.847 -0.3816 -0.4203 -0.4725
16186TIP3    H270050   4.692   4.247  13.973  0.3578 -0.0147  0.0619
16187TIP3   OH270051   6.265   5.171  17.171  0.5426  0.4298 -0.2968
16187TIP3    H170052   6.292   5.083  17.199 -0.2125  0.1552 -0.4162
16187TIP3    H270053   6.320   5.190  17.095  2.4719  1.1008  1.2195
16188TIP3   OH270054   4.225   5.409   0.725  0.5277 -0.1584  0.0806
16188TIP3    H170055   4.179   5.445   0.801 -0.4980 -0.8835 -0.1886
16188TIP3    H270056   4.318   5.415   0.748  0.2553  0.2679  1.1010
16189TIP3   OH270057   5.001   3.839   2.180  0.3419  0.0710 -0.3562
16189TIP3    H170058   4.939   3.766   2.185 -0.6199  0.9429  1.0021
16189TIP3    H270059   5.013   3.855   2.087 -0.0396 -1.3339 -0.6489
16190TIP3   OH270060   0.017   5.134  11.424  0.1302 -0.0941 -0.4684
16190TIP3    H170061   0.053   5.117  11.511  1.6042  0.4026 -0.9644
16190TIP3    H270062   0.093   5.155  11.370 -0.5514 -2.1858 -2.3162
16191TIP3   OH270063   2.844   1.764   2.310  0.0009 -0.4494  0.1294
16191TIP3    H170064   2.882   1.848   2.336  1.1943 -1.2128  0.8576
16191TIP3    H270065   2.820   1.722   2.392  3.2636 -2.6231  0.0545
16192TIP3   OH270066   5.808   2.353  11.474  0.2295 -0.1221 -0.1161
16192TIP3    H170067   5.744   2.412  11.514 -0.2523  0.4247 -1.6588
16192TIP3    H270068   5.812   2.278  11.534 -0.0735  0.9093  1.2251
16193TIP3   OH270069   1.359   3.933  13.452 -0.5783  0.4139 -0.6163
16193TIP3    H170070   1.391   3.892  13.372  0.9333  0.2134  0.0855
16193TIP3    H270071   1.267   3.954  13.433  0.4842  2.8462 -3.3615
16194TIP3   OH270072   4.720   5.479  15.053 -0.4206  0.1808 -0.4301
16194TIP3    H170073   4.768   5.510  15.130  0.2748  0.8196 -1.1230
16194TIP3    H270074   4.740   5.386  15.049 -1.5810 -0.1532  0.9757
16195TIP3   OH270075   1.033   5.715   0.471 -0.0544  0.1676  0.1984
16195TIP3    H170076   0.998   5.781   0.531 -2.5854 -1.4679  0.5909
16195TIP3    H270077   0.975   5.640   0.482  1.6400 -1.4531 -1.6431
16196TIP3   OH270078   6.175   3.267  15.640  0.1415 -0.4319  0.2584
16196TIP3    H170079   6.112   3.338  15.632 -0.9367 -1.1638  2.0199
16196TIP3    H270080   6.187   3.235  15.550 -0.5874  0.8907 -0.3237
16197TIP3   OH270081   1.919   6.220   5.065  0.2862 -0.1520 -0.4032
16197TIP3    H170082   1.877   6.142   5.030  0.0001 -0.6557  1.0297
16197TIP3    H270083   1.920   6.206   5.160  3.2685  0.0505 -0.3646
16198TIP3   OH270084   0.422   1.392  16.869  0.0837  0.0534 -0.2169
16198TIP3    H170085   0.393   1.446  16.942  0.9683 -0.5610  0.5929
16198TIP3    H270086   0.454   1.455  16.804  2.4509  0.4806  1.3032
16199TIP3   OH270087   0.133   2.764   5.816 -0.1908  0.8119 -0.5544
16199TIP3    H170088   0.173   2.703   5.753 -1.0821 -0.4596  0.0896
16199TIP3    H270089   0.190   2.760   5.893 -0.3216  0.7041 -0.4635
16200TIP3   OH270090   5.094   3.203   1.697  0.2875  0.4801 -0.3933
16200TIP3    H170091   5.092   3.168   1.786 -2.1530 -0.3033 -0.7240
16200TIP3    H270092   5.084   3.126   1.641 -1.5151  1.2896 -1.2255
16201TIP3   OH270093   2.092   4.788   1.197  0.4288 -0.0074 -0.3869
16201TIP3    H170094   2.050   4.818   1.116  1.2929  1.6443 -0.2311
16201TIP3    H270095   2.085   4.692   1.193 -1.5560  0.1567 -1.3095
16202TIP3   OH270096   5.552   2.626  15.856  0.0435  0.0045  0.1437
16202TIP3    H170097   5.638   2.584  15.852 -0.1692 -0.4490  0.3546
16202TIP3    H270098   5.563   2.707  15.806  0.5858 -0.0652  0.1451
16203TIP3   OH270099   6.481   4.042   6.629  0.1811 -0.6295  0.2583
16203TIP3    H170100   6.395   4.005   6.647  0.3806 -0.3084  1.9419
16203TIP3    H270101   6.514   3.991   6.555 -0.9447 -1.5538  0.3803
16204TIP3   OH270102   1.805   2.601  13.263  0.2374 -0.7512 -0.3583
16204TIP3    H170103   1.888   2.649  13.275 -0.0758  0.2009 -1.8951
16204TIP3    H270104   1.795   2.550  13.344  0.3250  2.1999  1.6086
16205TIP3   OH270105   3.398   1.252  17.163 -0.3303  0.5551 -0.1812
16205TIP3    H170106   3.437   1.338  17.145  0.5348  0.3435  0.5925
16205TIP3    H270107   3.458   1.190  17.121  1.8100  0.0524  3.3817
16206TIP3   OH270108   0.164   3.389   3.331 -0.7216  0.2696  0.3595
16206TIP3    H170109   0.166   3.297   3.357 -0.9145  0.0893 -0.2567
16206TIP3    H270110   0.090   3.395   3.271 -0.4423  0.7412  0.0638
16207TIP3   OH270111   0.205   6.519   5.575  0.5541  0.0960 -0.5181
16207TIP3    H170112   0.231   6.432   5.544 -1.2197 -0.6642  0.0429
16207TIP3    H270113   0.229   6.519   5.668  1.4905  0.5979 -0.7549
16208TIP3   OH270114   2.111   3.482   3.743 -0.4513 -0.3842  0.8820
16208TIP3    H170115   2.087   3.559   3.691 -2.6889 -1.6746 -0.0591
16208TIP3    H270116   2.123   3.515   3.831 -0.3808  1.2086  0.2885
16209TIP3   OH270117   5.492   6.463  14.617 -0.9808  0.1665  0.2442
16209TIP3    H170118   5.406   6.472  14.659 -0.4724  0.8530  1.1468
16209TIP3    H270119   5.509   6.369  14.618 -2.2201 -0.0899 -0.9568
16210TIP3   OH270120   0.321   6.770   5.902 -0.1712 -0.3516 -0.1158
16210TIP3    H170121   0.280   6.707   5.961 -0.9672 -0.9304 -1.2711
16210TIP3    H270122   0.385   6.816   5.957  1.1900 -2.8910  0.4862
16211TIP3   OH270123   1.702   1.417  14.751  0.2573 -0.0580 -0.2059
16211TIP3    H170124   1.723   1.462  14.833  1.0194 -0.4247 -0.1963
16211TIP3    H270125   1.664   1.485  14.695 -0.2778  0.1910  0.4497
16212TIP3   OH270126   4.536   0.277  13.747 -0.5271  0.4074 -0.2793
16212TIP3    H170127   4.517   0.190  13.781  1.4739 -1.1079 -2.8234
16212TIP3    H270128   4.631   0.287  13.759 -0.7521  2.3037  0.1125
16213TIP3   OH270129   4.695   4.831   6.184  0.1676 -0.0485 -0.4186
16213TIP3    H170130   4.684   4.819   6.279 -0.1114 -1.6898 -0.6534
16213TIP3    H270131   4.625   4.891   6.160 -0.0680 -0.0072  0.3343
16214TIP3   OH270132   5.839   6.811   1.202  0.3521  0.2996 -0.1168
16214TIP3    H170133   5.906   6.871   1.169  1.4606 -0.0771  1.4359
16214TIP3    H270134   5.845   6.818   1.297  0.1455 -1.9112  0.0765
16215TIP3   OH270135   2.025   0.734   6.802  0.2036  0.1996 -0.4231
16215TIP3    H170136   2.010   0.641   6.786 -0.4565 -0.0942  1.7110
16215TIP3    H270137   1.942   0.767   6.837  0.1463  1.8064 -1.9920
16216TIP3   OH270138   4.409   4.910   1.961  0.4426 -0.3831  0.7578
16216TIP3    H170139   4.365   4.866   1.887 -0.7987  1.0783  0.5866
16216TIP3    H270140   4.488   4.948   1.923  0.0537 -0.0506  0.2651
16217TIP3   OH270141   2.965   0.859   1.929 -0.1052  0.5206 -0.2105
16217TIP3    H170142   3.031   0.896   1.870  0.2108  0.7479  0.2821
16217TIP3    H270143   2.971   0.912   2.008  0.9625 -1.1184  0.8505
16218TIP3   OH270144   2.463   0.760   5.980 -0.0734  0.5149  0.2868
16218TIP3    H170145   2.535   0.745   6.041  1.6208  1.4693 -1.4158
16218TIP3    H270146   2.460   0.855   5.970  0.1617  0.3455 -1.6273
16219TIP3   OH270147   0.315   2.640  13.518 -0.4120  0.6102 -0.0916
16219TIP3    H170148   0.242   2.701  13.528 -0.4472  0.6749 -0.7454
16219TIP3    H270149   0.310   2.585  13.596  0.7588  2.6210  1.4583
16220TIP3   OH270150   2.970   0.832   5.156  0.0315  0.1528  0.3788
16220TIP3    H170151   3.038   0.767   5.137 -1.0299 -0.6559 -0.7840
16220TIP3    H270152   2.972   0.891   5.080 -0.7274 -0.0113  0.2325
16221TIP3   OH270153   5.472   6.317  11.623 -0.0634  0.1428 -0.1963
16221TIP3    H170154   5.378   6.316  11.645  0.2296 -0.2689  1.0579
16221TIP3    H270155   5.481   6.392  11.564 -1.0555  0.6381  0.2604
16222TIP3   OH270156   1.586   1.248  15.429  0.2565  0.3806 -0.5116
16222TIP3    H170157   1.506   1.201  15.404 -0.6322  0.7756  1.5018
16222TIP3    H270158   1.580   1.257  15.524  3.1948 -0.4163 -0.2198
16223TIP3   OH270159   6.478   1.619  12.089 -0.1436  0.1782  0.0809
16223TIP3    H170160   6.428   1.650  12.013  1.5423 -1.0490 -1.5791
16223TIP3    H270161   6.542   1.689  12.105 -1.2615  0.9694  1.1201
16224TIP3   OH270162   1.649   5.337  12.664  0.1102  0.2596 -0.1437
16224TIP3    H170163   1.635   5.242  12.662  1.2868  0.0872 -0.4949
16224TIP3    H270164   1.740   5.349  12.639 -0.3819  1.5636 -1.4588
16225TIP3   OH270165   3.220   2.534  16.787 -0.2227  0.3545 -0.1882
16225TIP3    H170166   3.151   2.473  16.761  1.0381 -0.1768 -2.4204
16225TIP3    H270167   3.178   2.620  16.781 -1.3744 -0.1017  0.8752
16226TIP3   OH270168   3.782   0.963   1.485 -0.1928  0.1662  0.3890
16226TIP3    H170169   3.751   0.893   1.543 -1.5221 -0.9495 -1.6547
16226TIP3    H270170   3.867   0.988   1.523  0.0800 -2.1937  1.4395
16227TIP3   OH270171   1.289   5.382   0.713  0.0356  0.5603  0.3582
16227TIP3    H170172   1.305   5.435   0.635  0.3072  0.7407  0.5368
16227TIP3    H270173   1.270   5.295   0.679 -0.8138  0.8602  0.0448
16228TIP3   OH270174   6.429   1.220   3.610  0.1829  0.0610  0.4348
16228TIP3    H170175   6.401   1.172   3.532 -0.5369 -0.4696  1.0117
16228TIP3    H270176   6.373   1.298   3.612  1.4475  1.0062 -0.5798
16229TIP3   OH270177   2.873   6.531   4.788 -0.6116  0.2295  0.0615
16229TIP3    H170178   2.924   6.486   4.721 -0.2990  0.6132  0.0398
16229TIP3    H270179   2.787   6.545   4.747 -0.1785  1.1649 -0.5538
16230TIP3   OH270180   5.848   1.683   1.108  0.3157  0.0960  0.8759
16230TIP3    H170181   5.903   1.619   1.154  0.0177 -0.1415  0.9043
16230TIP3    H270182   5.760   1.669   1.143  0.1672  0.2102  0.5542
16231TIP3   OH270183   1.910   6.288  13.052 -0.9292 -0.1435 -0.3496
16231TIP3    H170184   1.959   6.228  13.107 -1.2490 -0.0782  0.0103
16231TIP3    H270185   1.874   6.233  12.982 -1.4965 -0.4285  0.1626
16232TIP3   OH270186   4.642   1.483   1.373  0.1566  0.4501 -0.5082
16232TIP3    H170187   4.683   1.531   1.301 -0.5918  0.4517 -0.9319
16232TIP3    H270188   4.548   1.493   1.359  0.0016 -0.1493  0.0659
16233TIP3   OH270189   2.763   0.937  15.306 -0.5399  0.3639 -0.5694
16233TIP3    H170190   2.715   0.912  15.385  0.8573  0.3531  0.3070
16233TIP3    H270191   2.855   0.925  15.330 -0.1190 -0.1133 -2.3771
16234TIP3   OH270192   1.391   5.735  17.162  0.0670  0.5227 -0.1250
16234TIP3    H170193   1.459   5.801  17.170 -0.6269  1.1291  0.8370
16234TIP3    H270194   1.321   5.764  17.221 -1.2360  0.1785 -1.4520
16235TIP3   OH270195   0.545   5.234   3.489 -0.6503 -0.7860  0.0318
16235TIP3    H170196   0.564   5.279   3.407 -0.3569 -0.4702  0.2721
16235TIP3    H270197   0.574   5.144   3.474 -1.1263 -0.8701 -0.4051
16236TIP3   OH270198   6.406   3.447   0.820 -0.0600  0.2709 -0.3204
16236TIP3    H170199   6.342   3.376   0.814  0.5826 -0.2748 -0.8834
16236TIP3    H270200   6.391   3.500   0.742  0.9147 -0.5097 -1.0648
16237TIP3   OH270201   1.140   1.109  13.752  0.0815 -0.1192 -0.1532
16237TIP3    H170202   1.162   1.016  13.748  0.4218  0.0475 -2.7956
16237TIP3    H270203   1.063   1.113  13.809  0.8409 -1.8440  1.0219
16238TIP3   OH270204   3.232   0.975  13.762  0.0378  0.3807 -0.6912
16238TIP3    H170205   3.261   0.915  13.694 -0.1023 -1.1198  0.5463
16238TIP3    H270206   3.270   0.941  13.843 -0.3294  1.7617  0.0897
16239TIP3   OH270207   1.958   4.737  16.391 -0.4159  0.0867  0.4507
16239TIP3    H170208   2.013   4.734  16.469  0.6480  1.0637 -0.2414
16239TIP3    H270209   1.890   4.672  16.407  0.1286 -0.1365  1.9348
16240TIP3   OH270210   5.923   0.938  15.252  0.6465  0.4741 -0.2388
16240TIP3    H170211   5.886   1.026  15.249  2.9032  1.5372  1.6981
16240TIP3    H270212   5.870   0.891  15.316 -0.5242  0.4310 -1.2342
16241TIP3   OH270213   4.479   0.703   1.037 -0.0082 -0.4787  0.1483
16241TIP3    H170214   4.433   0.739   0.961  0.4586  0.8463  0.4718
16241TIP3    H270215   4.428   0.734   1.112  1.3076  0.8998  0.5052
16242TIP3   OH270216   3.052   3.021   5.562  0.1272 -0.4268  0.2275
16242TIP3    H170217   3.102   2.952   5.605 -0.4364 -0.2999  1.0986
16242TIP3    H270218   2.961   3.001   5.584 -0.1396 -0.1795 -0.6434
16243TIP3   OH270219   3.304   3.524  11.587  0.2023  0.0388 -0.4725
16243TIP3    H170220   3.373   3.500  11.648  0.1303  0.8030 -0.0798
16243TIP3    H270221   3.346   3.519  11.501  0.3906 -0.7342 -0.3379
16244TIP3   OH270222   2.330   3.954   0.406 -0.0103  0.4004  0.0306
16244TIP3    H170223   2.415   3.929   0.441  0.4410  0.6767 -0.8459
16244TIP3    H270224   2.349   4.024   0.344 -0.8888  0.5260 -0.1141
16245TIP3   OH270225   3.951   0.300   3.063 -0.3187 -0.3516 -0.2959
16245TIP3    H170226   3.988   0.221   3.102  2.5268  0.1259 -1.8807
16245TIP3    H270227   3.927   0.274   2.974 -0.2885  0.3109 -0.5022
16246TIP3   OH270228   0.501   5.227   4.214 -0.8678 -0.3764 -0.1374
16246TIP3    H170229   0.582   5.200   4.256 -0.7101 -2.2396 -1.5318
16246TIP3    H270230   0.529   5.262   4.129 -1.3349  1.3514  0.4124
16247TIP3   OH270231   1.137   2.645  16.227  0.8191 -0.6756  0.0079
16247TIP3    H170232   1.219   2.695  16.234  0.1000  0.4650  0.5061
16247TIP3    H270233   1.111   2.628  16.318 -0.6909  1.0046 -0.0758
16248TIP3   OH270234   6.770   0.082  14.073 -0.3523  0.0701  0.0566
16248TIP3    H170235   6.830   0.136  14.124 -0.4071  0.9370 -0.7778
16248TIP3    H270236   6.826   0.037  14.010 -0.5444  0.7155 -0.5812
16249TIP3   OH270237   2.349   2.463   3.755 -0.2221  0.0644  0.8913
16249TIP3    H170238   2.270   2.417   3.784  0.0906  0.2462  2.0706
16249TIP3    H270239   2.316   2.539   3.707 -0.7557 -2.5795 -3.1821
16250TIP3   OH270240   0.427   4.489   3.935 -0.1605 -0.2406  1.0951
16250TIP3    H170241   0.465   4.538   4.007 -1.3459  1.3835  0.6288
16250TIP3    H270242   0.335   4.515   3.933 -0.2769 -0.6909 -0.6433
16251TIP3   OH270243   6.498   2.598  13.977  0.2111 -0.1256  0.1853
16251TIP3    H170244   6.542   2.522  13.940 -0.1941  0.6234 -1.9084
16251TIP3    H270245   6.562   2.669  13.970  0.5738 -0.2361  2.0835
16252TIP3   OH270246   5.457   1.384  14.982  0.0014 -0.5779  0.7909
16252TIP3    H170247   5.436   1.411  14.892  1.6372 -0.7155  0.3586
16252TIP3    H270248   5.409   1.446  15.037 -2.6502 -1.7302 -0.1325
16253TIP3   OH270249   1.672   5.855   4.624  0.5213 -0.8867 -0.1237
16253TIP3    H170250   1.701   5.925   4.682  0.7994 -1.2278  0.1573
16253TIP3    H270251   1.739   5.849   4.557 -1.7618  2.1622 -2.7851
16254TIP3   OH270252   2.452   0.571   1.635 -0.3550  0.0253  0.5830
16254TIP3    H170253   2.472   0.574   1.542  0.1883 -0.3449  0.6818
16254TIP3    H270254   2.410   0.655   1.654  0.7739  0.6682  0.2816
16255TIP3   OH270255   1.195   6.141  14.269 -0.0130  0.5131 -0.1961
16255TIP3    H170256   1.128   6.181  14.213 -0.0124  1.7402  0.6510
16255TIP3    H270257   1.273   6.136  14.214  0.0736  1.9842 -0.2290
16256TIP3   OH270258   1.493   5.206  15.086 -0.6948  0.1167 -0.1046
16256TIP3    H170259   1.583   5.184  15.112 -0.6959 -0.1490 -0.3288
16256TIP3    H270260   1.479   5.159  15.004  0.0165  2.6015 -1.7087
16257TIP3   OH270261   2.461   6.803   5.310  0.3972  0.0534  0.2506
16257TIP3    H170262   2.398   6.870   5.338 -0.8514 -1.1946  0.4654
16257TIP3    H270263   2.511   6.846   5.241 -0.2238  1.3030  0.5553
16258TIP3   OH270264   6.297   4.409  14.507  0.1449 -0.1552 -0.0424
16258TIP3    H170265   6.235   4.460  14.558  0.1723  0.0282 -0.1954
16258TIP3    H270266   6.243   4.359  14.445  0.2255  0.8448 -0.9313
16259TIP3   OH270267   2.108   1.416   6.333 -0.0862 -0.2711  0.1202
16259TIP3    H170268   2.050   1.348   6.297 -1.2138  0.4282  0.5738
16259TIP3    H270269   2.097   1.407   6.428  0.0257  0.3193  0.1872
16260TIP3   OH270270   3.149   3.921  12.710 -0.3978 -0.4863  0.2504
16260TIP3    H170271   3.151   3.912  12.615  1.0507 -3.1728  0.4919
16260TIP3    H270272   3.087   3.992  12.726  1.5006  2.0407 -2.8085
16261TIP3   OH270273   3.168   0.655   3.755 -0.0608  0.3899  0.6049
16261TIP3    H170274   3.179   0.586   3.690 -0.4177  0.1618  0.7817
16261TIP3    H270275   3.073   0.661   3.768 -0.1757  2.5085 -1.1024
16262TIP3   OH270276   2.959   3.147   0.291  0.0918 -0.2658 -0.2882
16262TIP3    H170277   2.902   3.097   0.349  0.1577 -0.0972 -0.0797
16262TIP3    H270278   2.972   3.231   0.335  0.3789 -0.2466 -0.4043
16263TIP3   OH270279   4.110   0.302  16.070 -0.6630 -0.2941 -0.2686
16263TIP3    H170280   4.145   0.365  16.133 -1.5471 -0.9294  0.8879
16263TIP3    H270281   4.097   0.352  15.990  1.8398  0.2002 -0.3974
16264TIP3   OH270282   1.908   4.164  13.942 -0.4345  0.5282  0.2484
16264TIP3    H170283   1.940   4.255  13.941 -0.0459  0.3944  0.0629
16264TIP3    H270284   1.968   4.119  14.001 -0.9772  0.5106  0.7893
16265TIP3   OH270285   0.140   4.975   5.989  0.0383  0.2711 -0.9060
16265TIP3    H170286   0.214   5.034   5.978 -0.2683  0.7151 -0.5768
16265TIP3    H270287   0.154   4.935   6.075  0.2292 -0.1109 -1.1145
16266TIP3   OH270288   5.078   2.024   2.516 -0.1545 -0.2355 -0.4304
16266TIP3    H170289   4.984   2.029   2.501  0.1430  1.1877 -1.9475
16266TIP3    H270290   5.112   1.974   2.442  0.6800  2.2177 -1.7537
16267TIP3   OH270291   6.218   5.717  16.114  0.0021 -0.4911  0.4018
16267TIP3    H170292   6.310   5.718  16.086 -0.5831 -2.1854 -1.6513
16267TIP3    H270293   6.169   5.695  16.036 -2.3013  1.4920  1.2134
16268TIP3   OH270294   1.245   6.423  16.375 -0.0405 -0.5014  0.4085
16268TIP3    H170295   1.223   6.430  16.468  0.2082 -2.0961  0.5969
16268TIP3    H270296   1.168   6.459  16.330  0.0190  0.6830  1.2318
16269TIP3   OH270297   6.560   1.561   3.886 -0.0736  0.0338 -0.5014
16269TIP3    H170298   6.606   1.495   3.835 -0.6466  1.2387 -2.6234
16269TIP3    H270299   6.504   1.511   3.945  0.9818 -1.3905 -0.6803
16270TIP3   OH270300   3.527   4.106   5.792  0.2024  0.2312 -0.2772
16270TIP3    H170301   3.483   4.188   5.768  1.9735  1.1605 -0.4540
16270TIP3    H270302   3.572   4.126   5.874  0.5415 -0.5969 -0.2536
16271TIP3   OH270303   3.452   0.169   0.133 -0.1922  0.4263  0.3422
16271TIP3    H170304   3.485   0.104   0.071 -1.1751 -0.5739  0.8488
16271TIP3    H270305   3.528   0.222   0.155  0.4881 -0.1640 -0.5530
16272TIP3   OH270306   2.470   4.403   4.216  0.0349  0.2102  0.2298
16272TIP3    H170307   2.533   4.390   4.287 -1.1126 -0.3090  1.1639
16272TIP3    H270308   2.523   4.400   4.136  0.6771 -4.5454  0.7103
16273TIP3   OH270309   4.834   2.430   2.918  0.4752 -0.2753  0.2182
16273TIP3    H170310   4.915   2.477   2.898  0.4120 -0.2994 -0.1082
16273TIP3    H270311   4.768   2.498   2.925  0.2157 -0.3720 -1.1169
16274TIP3   OH270312   3.425   4.272  12.765  1.0180 -0.6635  0.1808
16274TIP3    H170313   3.512   4.262  12.726  0.0967 -1.2897 -1.7734
16274TIP3    H270314   3.428   4.356  12.810  2.0973  0.1438 -1.3649
16275TIP3   OH270315   3.782   2.661   1.121 -0.3912 -0.1196 -0.0614
16275TIP3    H170316   3.720   2.728   1.150  1.1303  1.7345 -0.9664
16275TIP3    H270317   3.818   2.695   1.039  0.6817 -1.8977 -0.3636
16276TIP3   OH270318   4.334   0.817  12.773  0.0626  0.2199  0.1048
16276TIP3    H170319   4.311   0.724  12.779  1.2710 -0.2058 -1.7196
16276TIP3    H270320   4.375   0.837  12.857 -2.4781 -0.2401  1.4963
16277TIP3   OH270321   0.018   2.132  16.763 -0.0070 -0.3030 -0.6038
16277TIP3    H170322   0.075   2.205  16.738 -2.2672  1.3026 -1.2803
16277TIP3    H270323   0.047   2.058  16.710  3.0488 -0.2415  0.8773
16278TIP3   OH270324   4.613   6.030   4.859  0.0332 -0.4150  0.5167
16278TIP3    H170325   4.649   5.948   4.892  0.3331 -0.7270 -0.5566
16278TIP3    H270326   4.686   6.091   4.860 -0.2126 -0.1260  1.4033
16279TIP3   OH270327   2.933   1.700   4.911  0.6088 -0.3734  0.0929
16279TIP3    H170328   2.988   1.648   4.970  1.5911 -0.6554 -1.0636
16279TIP3    H270329   2.936   1.788   4.949  1.0162 -0.6092  0.6240
16280TIP3   OH270330   2.512   1.304   3.063  0.4124 -0.7602 -0.6003
16280TIP3    H170331   2.459   1.266   2.993  0.1885  1.2603 -1.5539
16280TIP3    H270332   2.562   1.373   3.021  2.0249 -1.0410  0.7877
16281TIP3   OH270333   4.570   2.610  10.461 -0.6324  0.5365  0.2010
16281TIP3    H170334   4.604   2.620  10.550 -0.5905 -1.2332  0.3987
16281TIP3    H270335   4.489   2.560  10.472 -0.4828  0.0776 -0.7749
16282TIP3   OH270336   3.375   0.879  13.977  0.7839  0.6949 -0.2939
16282TIP3    H170337   3.468   0.879  13.954  1.2198 -1.8932  1.1694
16282TIP3    H270338   3.371   0.923  14.062  0.9799 -0.9343  0.5790
16283TIP3   OH270339   3.900   6.606   2.725 -0.2378  0.0211  0.2895
16283TIP3    H170340   3.933   6.622   2.636  1.4544  0.7894  1.0248
16283TIP3    H270341   3.930   6.518   2.746  0.0684  0.1473  0.3902
16284TIP3   OH270342   1.680   6.530   4.493 -0.0868  0.0246 -0.9642
16284TIP3    H170343   1.654   6.525   4.586 -0.5644 -1.0834 -1.1456
16284TIP3    H270344   1.648   6.615   4.465 -1.1138 -0.1664 -0.4374
16285TIP3   OH270345   5.234   6.456  14.748  0.6216  0.6549 -0.4226
16285TIP3    H170346   5.140   6.440  14.755  1.0727 -1.5865  0.8563
16285TIP3    H270347   5.259   6.490  14.834  1.5195 -1.8357  0.3389
16286TIP3   OH270348   2.688   6.491  11.128 -0.3017 -0.1286 -0.0592
16286TIP3    H170349   2.695   6.410  11.079 -1.2786 -0.9421  1.1137
16286TIP3    H270350   2.611   6.535  11.091 -1.1820 -0.8538  0.8664
16287TIP3   OH270351   3.324   0.794   5.253  0.4497 -0.0729 -0.2594
16287TIP3    H170352   3.324   0.729   5.323  1.3060  2.7057  2.4055
16287TIP3    H270353   3.235   0.828   5.251  0.9329  1.3034  0.9166
16288TIP3   OH270354   4.268   4.247   1.869 -0.9035  0.0046  0.0755
16288TIP3    H170355   4.275   4.242   1.965 -1.5644  2.0921  0.2547
16288TIP3    H270356   4.356   4.230   1.838 -0.0456  2.2053  1.2052
16289TIP3   OH270357   5.230   2.606  16.335 -0.2678 -0.4241  0.0461
16289TIP3    H170358   5.239   2.511  16.345 -1.8934 -0.5566  0.3335
16289TIP3    H270359   5.149   2.628  16.380 -0.4238  0.9762 -0.8654
16290TIP3   OH270360   4.622   0.829  11.664 -0.4922  0.1573  0.2064
16290TIP3    H170361   4.704   0.778  11.664 -0.9675 -0.6150  0.6463
16290TIP3    H270362   4.644   0.908  11.713 -0.2511 -0.4752  1.1507
16291TIP3   OH270363   4.383   4.739  12.082 -0.2564  0.2716  0.3729
16291TIP3    H170364   4.383   4.648  12.052 -0.8231  0.8543 -1.5359
16291TIP3    H270365   4.338   4.737  12.166 -0.7003 -1.1497  0.1150
16292TIP3   OH270366   0.899   5.878  16.724 -0.3175  0.1669  0.6261
16292TIP3    H170367   0.937   5.864  16.638 -0.2082 -2.6884  1.0899
16292TIP3    H270368   0.958   5.941  16.766  2.1466 -1.7703  0.1926
16293TIP3   OH270369   2.627   4.258   3.356 -0.0374 -0.1751 -0.9680
16293TIP3    H170370   2.683   4.335   3.366 -1.1431  0.4094  0.9832
16293TIP3    H270371   2.687   4.188   3.329  1.0395  1.2714 -2.4131
16294TIP3   OH270372   2.096   6.156  15.950  0.5167  0.4385  0.0528
16294TIP3    H170373   2.131   6.217  15.885 -0.7281 -0.7214 -1.7498
16294TIP3    H270374   2.002   6.171  15.950  0.1778 -1.4604 -0.4524
16295TIP3   OH270375   4.334   4.375  15.489 -0.6483 -0.4430  0.0256
16295TIP3    H170376   4.326   4.354  15.396  0.6760  0.9343 -0.4301
16295TIP3    H270377   4.388   4.304  15.525  2.4783  1.2292 -1.1761
16296TIP3   OH270378   3.796   0.577  12.455 -0.4301  0.6262 -0.4613
16296TIP3    H170379   3.829   0.572  12.544 -2.2202 -1.3302  0.1237
16296TIP3    H270380   3.855   0.521  12.404 -1.3401 -0.9001  0.1291
16297TIP3   OH270381   5.654   0.699   5.870  0.1375 -0.0792 -0.0764
16297TIP3    H170382   5.589   0.747   5.921 -1.2867 -0.6346 -1.3662
16297TIP3    H270383   5.707   0.767   5.828 -0.0626  0.3683  0.3905
16298TIP3   OH270384   5.177   0.654  13.892 -0.0632  0.3054 -0.4252
16298TIP3    H170385   5.119   0.717  13.934 -0.9530 -0.9359  0.2341
16298TIP3    H270386   5.232   0.707  13.834  0.5827  1.9285  1.6070
16299TIP3   OH270387   5.237   0.249  15.973 -0.4858  0.2327  0.2156
16299TIP3    H170388   5.282   0.281  16.051  0.0943  0.3452 -0.1597
16299TIP3    H270389   5.209   0.329  15.928 -0.5821  0.1740  0.1711
16300TIP3   OH270390   4.908   6.077   1.495  0.0660  0.2446 -0.1901
16300TIP3    H170391   4.864   6.162   1.508 -1.3155 -0.2171 -1.6965
16300TIP3    H270392   4.847   6.013   1.533  0.5343 -0.1929 -0.1742
16301TIP3   OH270393   6.682   6.166   5.197 -0.0096  0.0520 -0.1251
16301TIP3    H170394   6.678   6.223   5.274 -0.6964  0.7828 -0.6865
16301TIP3    H270395   6.621   6.207   5.134  0.0541 -0.8926 -0.8076
16302TIP3   OH270396   0.782   5.660  15.172  0.6328 -0.1131 -0.1614
16302TIP3    H170397   0.789   5.609  15.253 -1.5810  0.0070  0.1300
16302TIP3    H270398   0.697   5.704  15.179  0.4682 -0.0159 -2.5089
16303TIP3   OH270399   0.724   0.893  14.448  0.2443 -0.5175  0.6120
16303TIP3    H170400   0.648   0.952  14.441 -0.3798 -1.5572 -1.9662
16303TIP3    H270401   0.799   0.952  14.454 -0.5417  0.5646  0.1003
16304TIP3   OH270402   5.168   5.541  11.858 -0.0572  0.1321  0.1861
16304TIP3    H170403   5.188   5.614  11.917  5.0721 -1.1472  0.2360
16304TIP3    H270404   5.113   5.482  11.911 -0.3720  1.7441  1.7019
16305TIP3   OH270405   4.795   2.789   4.651  0.0884 -0.4361 -0.3794
16305TIP3    H170406   4.798   2.878   4.687 -0.2373 -0.2360 -0.8268
16305TIP3    H270407   4.881   2.752   4.670 -0.1126 -0.3641  0.6585
16306TIP3   OH270408   4.951   1.255  12.251 -0.0403 -0.4414 -0.5989
16306TIP3    H170409   4.957   1.160  12.242 -1.0734 -0.5747  0.1075
16306TIP3    H270410   4.857   1.273  12.255  0.1835  0.3716  1.6277
16307TIP3   OH270411   6.274   0.700   1.907  0.1768  0.3033  0.0397
16307TIP3    H170412   6.193   0.745   1.930  0.4475  0.9318 -0.2039
16307TIP3    H270413   6.299   0.738   1.822  0.8990  0.3617  0.2701
16308TIP3   OH270414   0.706   5.459   5.663  0.0535 -0.7292  0.5684
16308TIP3    H170415   0.717   5.532   5.724  1.1171  0.7315 -1.3124
16308TIP3    H270416   0.752   5.386   5.704  4.4744  1.3733 -0.3808
16309TIP3   OH270417   1.247   1.502   3.700 -0.0038  0.1577  0.0645
16309TIP3    H170418   1.195   1.532   3.625 -1.6894  0.7503  1.4255
16309TIP3    H270419   1.330   1.473   3.662 -0.5769  1.0615 -1.9508
16310TIP3   OH270420   4.480   4.513  11.729 -0.2807 -0.2067  0.6434
16310TIP3    H170421   4.518   4.464  11.657 -2.1924 -0.6094 -0.1073
16310TIP3    H270422   4.487   4.605  11.703  1.6732 -0.1595  1.2602
16311TIP3   OH270423   2.000   3.129   5.761  0.0833  0.0686 -0.3653
16311TIP3    H170424   1.989   3.223   5.748  0.0050  0.0151 -0.6861
16311TIP3    H270425   2.016   3.120   5.855 -2.4575  0.1725  0.1104
16312TIP3   OH270426   1.072   5.008  16.859  0.7078  0.0675  0.5348
16312TIP3    H170427   1.073   4.914  16.846 -1.9923  0.2011 -1.0562
16312TIP3    H270428   1.144   5.041  16.805 -0.1614 -0.8531 -1.2384
16313TIP3   OH270429   0.876   0.742  11.239 -0.2238  0.1794  0.6885
16313TIP3    H170430   0.810   0.730  11.307 -1.2660 -0.9242 -0.4807
16313TIP3    H270431   0.838   0.700  11.162  0.9958  1.2720 -0.5322
16314TIP3   OH270432   4.509   1.215   1.048  0.2745  0.0565 -0.0201
16314TIP3    H170433   4.451   1.163   1.104  1.0445 -0.4219  0.3513
16314TIP3    H270434   4.590   1.222   1.099 -0.1142  2.3915  0.3206
16315TIP3   OH270435   3.248   0.518  13.460  0.4263 -0.1077  0.6991
16315TIP3    H170436   3.165   0.470  13.464 -0.2090  0.7228 -1.7506
16315TIP3    H270437   3.301   0.469  13.398  1.1774  0.2637  1.0460
16316TIP3   OH270438   1.599   5.830  12.353  0.2585 -0.1964  0.0744
16316TIP3    H170439   1.555   5.809  12.436  2.0550  0.1705  1.1347
16316TIP3    H270440   1.672   5.768  12.348 -1.2373 -1.8368 -2.4342
16317TIP3   OH270441   3.569   0.953   6.410  0.4052  0.0837  0.8135
16317TIP3    H170442   3.494   0.907   6.447 -0.0611  0.6999  0.6464
16317TIP3    H270443   3.576   1.033   6.462  0.1672  0.6278  0.0283
16318TIP3   OH270444   5.071   1.938  14.572  0.1160 -0.5672 -0.2699
16318TIP3    H170445   5.048   1.952  14.480 -0.9091 -0.0636  0.0517
16318TIP3    H270446   5.127   2.013  14.595 -0.4688 -0.1482 -0.2043
16319TIP3   OH270447   2.923   3.225   5.982  0.1952 -0.1643  0.1729
16319TIP3    H170448   2.924   3.152   5.921 -1.2908  0.6059 -0.8206
16319TIP3    H270449   2.850   3.206   6.041 -0.9837  1.0759 -0.8408
16320TIP3   OH270450   1.207   1.778  11.580 -0.3187 -0.0886  0.1440
16320TIP3    H170451   1.165   1.733  11.507 -0.4589 -0.2734  0.3402
16320TIP3    H270452   1.225   1.866  11.546 -0.3632 -0.1822 -0.1210
16321TIP3   OH270453   2.516   4.311   3.919  0.2821  0.3638  0.9364
16321TIP3    H170454   2.503   4.219   3.941  1.0110  0.0565  0.1084
16321TIP3    H270455   2.430   4.339   3.886  0.5795 -0.5602 -0.6725
16322TIP3   OH270456   0.653   1.413   6.044  0.0057  0.3762 -0.4106
16322TIP3    H170457   0.676   1.492   5.995 -0.4991  0.8020  0.0394
16322TIP3    H270458   0.690   1.426   6.131  2.0320 -0.9482 -1.0328
16323TIP3   OH270459   1.539   1.081   1.684  0.4240 -0.2335  0.0242
16323TIP3    H170460   1.502   1.123   1.762  0.8736 -0.2804  0.2653
16323TIP3    H270461   1.518   1.140   1.612  0.0866 -0.1430  0.1958
16324TIP3   OH270462   1.235   2.176  14.922  0.3839  0.0626 -0.2277
16324TIP3    H170463   1.271   2.107  14.866  0.1888 -0.2660  0.0483
16324TIP3    H270464   1.307   2.197  14.982  0.8030  0.8486 -0.9883
16325TIP3   OH270465   3.488   5.896  12.775  0.0302 -0.3100  0.3684
16325TIP3    H170466   3.471   5.889  12.869 -2.1814  0.2476  0.0337
16325TIP3    H270467   3.459   5.812  12.739 -0.2188 -0.0791  0.0257
16326TIP3   OH270468   5.966   3.598   5.535 -0.0751 -0.6348  0.2341
16326TIP3    H170469   5.980   3.688   5.508  2.0939 -0.7942  0.7275
16326TIP3    H270470   5.912   3.604   5.613  1.8818  0.3796  1.5353
16327TIP3   OH270471   4.878   0.485   0.770  0.3909 -0.1575 -0.1357
16327TIP3    H170472   4.886   0.519   0.859 -0.1182 -1.8695  0.5805
16327TIP3    H270473   4.818   0.411   0.778  0.0151 -0.0777 -1.9749
16328TIP3   OH270474   4.400   0.670  13.154 -0.2065 -1.1440 -0.0233
16328TIP3    H170475   4.403   0.707  13.242 -0.7230 -1.8557  0.2979
16328TIP3    H270476   4.320   0.706  13.116  0.2982 -0.4126 -0.3934
16329TIP3   OH270477   5.928   6.402   0.793 -0.0443 -0.5263  0.1653
16329TIP3    H170478   5.939   6.493   0.765  1.7418 -0.8195 -0.1329
16329TIP3    H270479   6.010   6.360   0.768 -1.1229 -2.3806 -0.2915
16330TIP3   OH270480   3.374   6.814   1.997 -0.1509 -0.0566 -0.1131
16330TIP3    H170481   3.291   6.803   2.044 -0.3008 -0.3794 -0.4487
16330TIP3    H270482   3.348   6.842   1.910  0.0904 -0.2265 -0.2404
16331TIP3   OH270483   2.971   5.692   0.726 -0.0684  0.0896 -0.2373
16331TIP3    H170484   2.898   5.697   0.788  1.2618 -0.3902  1.3875
16331TIP3    H270485   3.050   5.700   0.780  1.1042  0.3361 -1.9378
16332TIP3   OH270486   1.104   1.568  12.907  0.0662 -0.2500  0.4408
16332TIP3    H170487   1.193   1.582  12.939  0.5136 -2.0360  0.0197
16332TIP3    H270488   1.088   1.641  12.847  1.6445 -0.4912 -0.3022
16333TIP3   OH270489   1.483   6.691   5.053 -0.6870  0.4459  0.3219
16333TIP3    H170490   1.502   6.784   5.057  1.4719 -0.0360  2.8759
16333TIP3    H270491   1.433   6.673   5.132 -0.0052 -0.7524  0.5045
16334TIP3   OH270492   1.573   3.486  15.181 -0.2623  0.2689  0.1520
16334TIP3    H170493   1.633   3.558  15.199 -0.3756  0.6674 -0.9699
16334TIP3    H270494   1.620   3.431  15.118  0.0078 -0.8977  1.3546
16335TIP3   OH270495   0.296   2.687   0.136  0.2787  0.3323  0.1337
16335TIP3    H170496   0.223   2.741   0.108 -1.7569 -3.2241 -1.8359
16335TIP3    H270497   0.353   2.680   0.060  1.1650  0.7054  0.7507
16336TIP3   OH270498   6.425   2.417   1.918 -0.1463 -0.4020 -0.0053
16336TIP3    H170499   6.342   2.370   1.927 -0.6821  0.3231 -1.0541
16336TIP3    H270500   6.399   2.509   1.910  0.7949 -0.1049  0.3144
16337TIP3   OH270501   4.539   2.023   4.468  0.4003  0.3589  0.1416
16337TIP3    H170502   4.517   2.093   4.529  0.8750  0.1526  0.5559
16337TIP3    H270503   4.477   1.952   4.488 -0.8260  1.0764 -1.0464
16338TIP3   OH270504   6.515   1.751  13.072  0.0568 -0.0461 -0.2429
16338TIP3    H170505   6.539   1.658  13.076 -1.7086 -0.4692  0.8545
16338TIP3    H270506   6.501   1.768  12.979 -0.4761 -1.1111 -0.3723
16339TIP3   OH270507   3.063   1.040   0.041  0.1890  0.2626 -0.0884
16339TIP3    H170508   3.076   0.982  -0.034  0.7050 -0.7106  0.7343
16339TIP3    H270509   3.037   0.981   0.112 -0.6438  1.2155  0.4049
16340TIP3   OH270510   6.257   1.437   3.599 -0.1037 -0.5809  0.4591
16340TIP3    H170511   6.171   1.475   3.616 -1.0643 -1.6466 -1.8110
16340TIP3    H270512   6.246   1.387   3.518  2.8743 -0.0461 -0.3316
16341TIP3   OH270513   2.022   2.394  16.470  0.5220  0.3349 -0.1312
16341TIP3    H170514   1.967   2.346  16.408 -1.2623  2.0404  0.0531
16341TIP3    H270515   2.089   2.331  16.497 -2.0868 -2.2650  0.6018
16342TIP3   OH270516   6.166   1.735   2.798 -0.3162 -0.5142 -0.3117
16342TIP3    H170517   6.128   1.678   2.865 -1.0810 -1.2411 -1.3356
16342TIP3    H270518   6.124   1.820   2.812  0.9397 -0.1597  1.3172
16343TIP3   OH270519   2.546   5.978  15.155  0.2540 -0.0891  0.0750
16343TIP3    H170520   2.492   5.949  15.228 -0.5871 -1.6657 -1.1304
16343TIP3    H270521   2.623   5.921  15.158  2.2737  2.6397  2.2319
16344TIP3   OH270522   1.000   0.130   3.356 -0.1240 -0.5448  0.2270
16344TIP3    H170523   0.916   0.086   3.368 -0.1490 -0.3375  0.8283
16344TIP3    H270524   0.978   0.221   3.336 -0.0295 -0.1871  1.6831
16345TIP3   OH270525   5.754   5.814   3.604 -0.2785  0.0307  0.0191
16345TIP3    H170526   5.715   5.805   3.691 -0.9298  0.5615 -0.2150
16345TIP3    H270527   5.680   5.809   3.544  0.1919 -0.5262 -0.5229
16346TIP3   OH270528   1.973   1.748   0.477  0.0350 -0.0585  0.1612
16346TIP3    H170529   2.007   1.825   0.521 -0.8212  0.2593  0.2829
16346TIP3    H270530   1.878   1.754   0.488 -0.1979  0.0374 -1.7098
16347TIP3   OH270531   3.995   2.742   0.827  0.5145 -0.3056 -0.6932
16347TIP3    H170532   4.061   2.803   0.861  0.5590 -0.7092 -0.0628
16347TIP3    H270533   4.021   2.656   0.860  0.0370 -0.5652 -0.9778
16348TIP3   OH270534   1.375   5.394  12.004  0.0165 -0.3574  0.1904
16348TIP3    H170535   1.420   5.475  11.981 -0.1440 -0.7887 -1.7417
16348TIP3    H270536   1.435   5.349  12.063  2.5126 -1.2898 -2.9502
16349TIP3   OH270537   2.706   4.197   2.905 -0.1597  0.1318  0.1612
16349TIP3    H170538   2.779   4.253   2.932 -0.5009  0.3929  0.5441
16349TIP3    H270539   2.734   4.160   2.821  1.7549 -2.1670  1.7232
16350TIP3   OH270540   5.899   5.664  13.216 -0.6512 -0.1487 -0.5999
16350TIP3    H170541   5.972   5.644  13.158 -0.0657 -0.0919  0.1062
16350TIP3    H270542   5.847   5.728  13.168 -0.3581 -0.3545 -1.2013
16351TIP3   OH270543   5.579   0.934   4.367 -0.8790  0.2257 -0.0345
16351TIP3    H170544   5.549   1.021   4.395 -0.6264  0.9151 -1.8231
16351TIP3    H270545   5.590   0.942   4.272  0.6790 -1.3068 -0.0082
16352TIP3   OH270546   3.267   0.771  11.350  0.0071  0.2563 -0.6961
16352TIP3    H170547   3.275   0.865  11.334  0.3790  0.3084 -0.2198
16352TIP3    H270548   3.205   0.741  11.284 -1.1107  1.0559 -0.0317
16353TIP3   OH270549   0.076   3.845   3.975  0.3288  0.2609 -0.2639
16353TIP3    H170550   0.074   3.758   3.936  0.9415  0.5947 -1.0418
16353TIP3    H270551   0.078   3.828   4.070  2.0895 -0.6156 -0.4244
16354TIP3   OH270552   6.665   0.517  15.316 -0.2556 -0.0577 -0.1394
16354TIP3    H170553   6.729   0.486  15.251 -0.2680  1.0013 -0.6511
16354TIP3    H270554   6.652   0.609  15.295  0.5863  0.5858  2.0666
16355TIP3   OH270555   0.274   3.115   3.709  0.0324 -0.6297 -0.3612
16355TIP3    H170556   0.222   3.034   3.713 -1.3384  0.2598  0.2598
16355TIP3    H270557   0.246   3.158   3.629 -1.1162  0.4446  0.5955
16356TIP3   OH270558   2.370   5.647  11.867  0.0337  0.3331 -0.3566
16356TIP3    H170559   2.453   5.605  11.890 -0.1222 -0.1375 -0.6478
16356TIP3    H270560   2.356   5.624  11.775 -1.3802 -1.2046  0.2387
16357TIP3   OH270561   3.422   3.456   1.038 -0.0236 -0.5952  0.1709
16357TIP3    H170562   3.411   3.407   1.119 -0.7800 -0.4632  0.1537
16357TIP3    H270563   3.368   3.535   1.050  2.0463  0.7822  0.6429
16358TIP3   OH270564   1.683   6.583  15.736 -0.4911  0.0618 -0.3734
16358TIP3    H170565   1.723   6.583  15.823 -1.1772 -0.4494 -0.0480
16358TIP3    H270566   1.624   6.508  15.737 -0.5284  0.0753 -1.2709
16359TIP3   OH270567   0.346   1.883  15.710  0.0201  0.0789  0.1050
16359TIP3    H170568   0.282   1.951  15.732 -0.7454  0.4097 -2.8976
16359TIP3    H270569   0.292   1.809  15.680  0.9925  0.0849 -1.7250
16360TIP3   OH270570   4.082   5.365  15.930 -0.2030  0.0454  0.1103
16360TIP3    H170571   4.000   5.397  15.966 -0.4643 -0.7691  0.2288
16360TIP3    H270572   4.092   5.277  15.966  0.8797  0.2625  0.3589
16361TIP3   OH270573   4.597   4.365  17.217  0.0566 -0.1906 -0.1672
16361TIP3    H170574   4.525   4.304  17.201  0.4386 -0.5393 -0.5779
16361TIP3    H270575   4.661   4.346  17.148  1.5816 -1.4448  1.5327
16362TIP3   OH270576   1.033   0.888  10.916 -0.1948 -0.7930 -0.1979
16362TIP3    H170577   1.023   0.795  10.894  0.8383 -0.4745 -2.0842
16362TIP3    H270578   1.127   0.905  10.908 -0.2530  0.1893  1.0984
16363TIP3   OH270579   6.280   4.344   0.837  0.1587 -0.3322  0.1003
16363TIP3    H170580   6.228   4.352   0.917 -2.4632 -2.5245 -1.3051
16363TIP3    H270581   6.223   4.378   0.767  1.2909 -1.1211 -1.2418
16364TIP3   OH270582   3.941   2.021   5.171 -0.2246  0.2682 -0.2535
16364TIP3    H170583   3.942   1.997   5.264  0.0594  1.6782  0.1217
16364TIP3    H270584   4.022   2.069   5.158 -0.3264  0.1847 -1.2098
16365TIP3   OH270585   6.569   0.559  14.520 -0.0667  0.1083  0.2680
16365TIP3    H170586   6.509   0.533  14.590 -0.3216  0.3938  0.1570
16365TIP3    H270587   6.605   0.477  14.487  1.3022  0.0519  1.8372
16366TIP3   OH270588   3.273   2.026   0.348 -0.2920 -0.0785  0.1632
16366TIP3    H170589   3.262   1.963   0.276 -0.9987  0.3134 -0.0830
16366TIP3    H270590   3.301   1.973   0.422  1.1623 -0.3832 -0.5965
16367TIP3   OH270591   3.576   6.473  14.316  0.0872 -0.0273 -0.3555
16367TIP3    H170592   3.599   6.458  14.408 -1.5302  0.6133  0.1580
16367TIP3    H270593   3.485   6.501  14.317  0.3378  0.9860 -2.0732
16368TIP3   OH270594   0.427   1.646  16.092 -0.3666  0.3011  0.3817
16368TIP3    H170595   0.457   1.626  16.003 -0.3224  0.3069  0.3971
16368TIP3    H270596   0.479   1.721  16.119 -0.7024  0.5855  0.2422
16369TIP3   OH270597   1.588   0.757  11.663 -0.7508 -0.1577  0.2634
16369TIP3    H170598   1.506   0.792  11.628 -0.4743  0.2455  0.0072
16369TIP3    H270599   1.633   0.834  11.697 -0.5790 -0.4130  0.6121
16370TIP3   OH270600   5.407   4.534   6.344 -0.3126  0.4287  0.0510
16370TIP3    H170601   5.401   4.459   6.403  0.2380 -0.0459 -0.4911
16370TIP3    H270602   5.483   4.583   6.375  0.1901 -0.0095 -0.4718
16371TIP3   OH270603   6.432   4.693  17.193 -0.2699  0.1817  0.3944
16371TIP3    H170604   6.419   4.779  17.234  0.6579  0.8246 -0.6132
16371TIP3    H270605   6.387   4.632  17.251  0.9982  1.0602  2.3867
16372TIP3   OH270606   2.716   0.436   6.013 -0.4738  0.1619 -0.3560
16372TIP3    H170607   2.716   0.383   6.093  1.3221 -0.2007 -0.5773
16372TIP3    H270608   2.652   0.505   6.031 -1.6334 -1.1184  0.5737
16373TIP3   OH270609   0.039   1.565   3.962 -0.0778  0.4278 -0.0347
16373TIP3    H170610  -0.054   1.575   3.944  0.0199  1.0770 -0.1841
16373TIP3    H270611   0.046   1.479   4.005 -0.5986 -0.1236 -1.0169
16374TIP3   OH270612   0.234   6.131   3.308  0.7637 -0.5567  0.3720
16374TIP3    H170613   0.159   6.142   3.366  0.9653  1.0832  0.3497
16374TIP3    H270614   0.196   6.093   3.228 -0.0666  0.3007  0.3390
16375TIP3   OH270615   0.916   1.739   4.790 -0.0648 -0.7343  0.2407
16375TIP3    H170616   0.982   1.763   4.724 -1.4153  2.0356 -0.1865
16375TIP3    H270617   0.869   1.666   4.750  0.3954 -0.3606 -1.0380
16376TIP3   OH270618   4.421   4.945   2.996  0.1180  0.5263  0.4590
16376TIP3    H170619   4.379   5.000   3.062  0.4944  0.2212  0.9554
16376TIP3    H270620   4.462   5.006   2.935  0.2539  0.7965  0.8244
16377TIP3   OH270621   6.657   5.034   4.667 -0.8477 -0.5672  0.3927
16377TIP3    H170622   6.635   5.089   4.591  1.4274 -0.0223  0.0854
16377TIP3    H270623   6.573   5.020   4.712 -1.8173  1.2935 -0.7687
16378TIP3   OH270624   4.158   4.510  13.433  0.0532 -0.4291 -0.4360
16378TIP3    H170625   4.128   4.555  13.512  2.0428 -0.0320  0.1166
16378TIP3    H270626   4.078   4.474  13.394 -1.2012  1.1021  0.6596
16379TIP3   OH270627   0.045   4.263   5.195 -0.2843  0.1834  0.1489
16379TIP3    H170628  -0.000   4.328   5.141 -2.9322  0.2784  2.3300
16379TIP3    H270629  -0.026   4.216   5.240  1.7503 -0.5983  2.6637
16380TIP3   OH270630   2.168   0.459  14.057 -0.1123  0.0593 -0.3810
16380TIP3    H170631   2.185   0.550  14.080  0.2465  0.0220 -0.4897
16380TIP3    H270632   2.253   0.426  14.026 -0.0503 -0.5260  0.3931
16381TIP3   OH270633   4.074   1.836  16.664  0.0849 -0.2878  0.0863
16381TIP3    H170634   4.161   1.799  16.675  0.5931  1.2309  1.3137
16381TIP3    H270635   4.056   1.881  16.746 -2.9457 -2.7608  0.8560
16382TIP3   OH270636   2.118   0.386   5.749  0.1422  0.0401 -0.2989
16382TIP3    H170637   2.058   0.319   5.780 -1.1162  0.3349 -2.0630
16382TIP3    H270638   2.180   0.398   5.821 -1.2539 -1.0445  1.1032
16383TIP3   OH270639   3.742   1.974   5.660  0.6873  0.4126  0.2937
16383TIP3    H170640   3.695   1.897   5.692 -1.9273  2.0639  0.5215
16383TIP3    H270641   3.786   1.944   5.580 -1.8143 -0.8260 -0.6458
16384TIP3   OH270642   1.349   0.683  12.957  0.3551 -0.4878  0.2911
16384TIP3    H170643   1.290   0.647  13.023 -1.7333  0.5760 -0.9261
16384TIP3    H270644   1.323   0.639  12.876  1.7003 -0.4813 -0.1508
16385TIP3   OH270645   1.837   2.938   5.457 -0.1073  0.8081  0.0441
16385TIP3    H170646   1.887   2.859   5.436  0.0276  0.8732  0.1205
16385TIP3    H270647   1.775   2.948   5.384 -1.6702 -0.6341  1.1204
16386TIP3   OH270648   1.302   2.141   5.814 -0.3750 -0.3454 -0.3853
16386TIP3    H170649   1.287   2.228   5.777 -0.1532 -0.3961 -0.5924
16386TIP3    H270650   1.301   2.155   5.909  0.4168  0.0105 -0.4291
16387TIP3   OH270651   0.979   3.879   3.020 -0.0495  0.8951  0.5648
16387TIP3    H170652   1.042   3.830   2.967 -0.8585 -0.3261  0.6968
16387TIP3    H270653   1.003   3.858   3.110  0.7954  2.2867  0.6658
16388TIP3   OH270654   0.687   6.760   5.780  0.0759  0.4035 -0.6132
16388TIP3    H170655   0.698   6.836   5.837  1.4957 -0.2607  0.0399
16388TIP3    H270656   0.601   6.726   5.802  0.7619 -0.0762  1.4642
16389TIP3   OH270657   5.226   5.953  15.312  0.1272  0.4068 -1.0770
16389TIP3    H170658   5.262   6.011  15.245 -0.6400  1.0091 -0.9660
16389TIP3    H270659   5.300   5.898  15.338  0.9522  1.5585 -0.9366
16390TIP3   OH270660   4.625   5.514  14.532 -0.1082 -0.0963  0.0506
16390TIP3    H170661   4.617   5.540  14.624  0.4659  0.7875 -0.1417
16390TIP3    H270662   4.718   5.491  14.522 -0.2251 -0.4280 -0.2408
16391TIP3   OH270663   0.654   2.877  11.388  0.1419  0.0309  0.1573
16391TIP3    H170664   0.563   2.858  11.414  0.2398 -2.2008 -1.0049
16391TIP3    H270665   0.647   2.952  11.329 -1.1800 -1.2223 -1.3338
16392TIP3   OH270666   5.014   6.182  14.573 -0.1859 -0.0784 -0.1000
16392TIP3    H170667   4.967   6.208  14.494 -1.7793  0.9238  1.1489
16392TIP3    H270668   5.019   6.262  14.625 -0.4358 -1.0615  1.4510
16393TIP3   OH270669   0.961   6.643  15.484  0.1464 -0.3677  0.2877
16393TIP3    H170670   0.952   6.560  15.531  1.6901  0.4464  2.0991
16393TIP3    H270671   0.875   6.685  15.492 -0.0493 -0.9091  1.0947
16394TIP3   OH270672   4.997   6.414   1.259  0.1562  0.5029  0.1630
16394TIP3    H170673   5.053   6.348   1.301  0.0951 -0.6260 -1.4886
16394TIP3    H270674   4.909   6.377   1.264  0.3022 -0.2235 -1.9949
16395TIP3   OH270675   1.612   2.249   3.799  0.2836 -0.1812 -0.2370
16395TIP3    H170676   1.537   2.286   3.846  0.9599  0.7581  0.1281
16395TIP3    H270677   1.687   2.271   3.854  0.6832 -2.4778  0.2212
16396TIP3   OH270678   5.629   0.292  13.008  0.0958  0.3144 -0.2345
16396TIP3    H170679   5.715   0.302  13.048  0.6936 -1.2506 -1.0579
16396TIP3    H270680   5.588   0.378  13.015  0.6821  0.4048  2.5375
16397TIP3   OH270681   3.059   3.720  13.280 -0.2566 -0.1605  0.1778
16397TIP3    H170682   2.975   3.721  13.326 -0.8528 -0.3413 -0.8940
16397TIP3    H270683   3.076   3.812  13.259  0.0111 -0.0784  0.7294
16398TIP3   OH270684   2.128   5.191  14.331  0.5955 -0.7343 -0.5549
16398TIP3    H170685   2.087   5.113  14.295  1.2231 -0.9542 -0.8058
16398TIP3    H270686   2.055   5.244  14.363  0.1333 -1.1965 -0.8318
16399TIP3   OH270687   6.548   3.291  13.768  0.6048  0.4380  0.4036
16399TIP3    H170688   6.482   3.334  13.821 -0.3950  1.0506 -1.2870
16399TIP3    H270689   6.562   3.351  13.694  1.6696 -0.5565 -0.2262
16400TIP3   OH270690   2.816   3.985  11.933  0.8206  0.2020 -0.2011
16400TIP3    H170691   2.881   4.054  11.923  0.6060  0.3388 -0.6823
16400TIP3    H270692   2.868   3.907  11.955  1.3563 -0.0970 -2.3223
16401TIP3   OH270693   2.071   1.571   3.421  0.8241  0.1183 -0.0912
16401TIP3    H170694   2.044   1.522   3.343  0.2234  0.3833 -0.0535
16401TIP3    H270695   2.065   1.663   3.395 -0.7118  0.2542  0.6871
16402TIP3   OH270696   0.989   2.680  14.473  0.0461 -0.2589 -0.0740
16402TIP3    H170697   0.968   2.630  14.551  1.1832 -0.2675  0.2383
16402TIP3    H270698   0.994   2.771  14.502 -0.1919 -0.1809 -0.2719
16403TIP3   OH270699   4.745   3.233  10.381 -0.6488 -0.2292  0.5171
16403TIP3    H170700   4.783   3.311  10.341  0.3954 -0.5550  0.8780
16403TIP3    H270701   4.679   3.204  10.317  0.0136  0.0750 -0.3104
16404TIP3   OH270702   4.026   0.540   5.057  0.4907 -0.3648  0.2631
16404TIP3    H170703   4.110   0.532   5.103 -0.0325 -0.9140  1.1510
16404TIP3    H270704   3.964   0.567   5.125 -0.3445 -1.4099 -0.0680
16405TIP3   OH270705   0.435   6.005  12.565  0.0846  0.4816  0.3629
16405TIP3    H170706   0.506   6.049  12.518 -0.2348  0.7607  0.1387
16405TIP3    H270707   0.479   5.937  12.616  0.1838 -1.6273 -2.4272
16406TIP3   OH270708   4.169   0.092  12.825 -0.3174 -0.4429 -0.4629
16406TIP3    H170709   4.213   0.019  12.870 -1.8536 -0.7799  0.5220
16406TIP3    H270710   4.092   0.052  12.785 -1.5491  0.7558  0.6561
16407TIP3   OH270711   2.321   2.558  16.710  0.1713 -0.2362 -0.2990
16407TIP3    H170712   2.336   2.464  16.698  1.5065 -0.3626  2.2202
16407TIP3    H270713   2.394   2.600  16.665 -0.3950 -0.3866 -1.3765
16408TIP3   OH270714   2.063   3.402   0.322  0.3288  0.3963 -0.0334
16408TIP3    H170715   2.015   3.367   0.247  0.7603  0.7976 -0.5012
16408TIP3    H270716   1.995   3.424   0.386 -0.1545  1.3480 -0.8521
16409TIP3   OH270717   1.319   0.193  12.435 -0.2232 -0.2861 -0.2238
16409TIP3    H170718   1.253   0.168  12.500 -0.7527  0.7868 -0.3428
16409TIP3    H270719   1.376   0.256  12.481 -1.3548  1.4556 -1.1635
16410TIP3   OH270720   4.438   6.418  15.366  0.4321  0.1517 -0.0399
16410TIP3    H170721   4.376   6.480  15.328 -0.1019 -0.6542 -0.4965
16410TIP3    H270722   4.523   6.447  15.335  0.1254  0.2878 -0.7587
16411TIP3   OH270723   1.494   0.572   2.267 -0.3955 -0.1353  0.0677
16411TIP3    H170724   1.475   0.520   2.345  1.4707 -0.9048  0.0532
16411TIP3    H270725   1.506   0.507   2.198 -0.5650  0.4599 -0.5211
16412TIP3   OH270726   5.648   5.019   4.058 -0.2203 -0.5872 -0.2073
16412TIP3    H170727   5.685   4.938   4.093  1.7191  0.4268  0.1752
16412TIP3    H270728   5.718   5.084   4.069 -1.5967  1.0453 -0.8676
16413TIP3   OH270729   5.719   3.098   4.386 -0.2770  0.4430  0.0257
16413TIP3    H170730   5.661   3.068   4.316 -1.0404  0.4682  0.6383
16413TIP3    H270731   5.805   3.062   4.364 -0.4936  0.5260 -0.9684
16414TIP3   OH270732   2.958   3.363  16.760 -0.0169  0.1851  0.0703
16414TIP3    H170733   2.982   3.290  16.704 -0.0827  0.5069 -0.3809
16414TIP3    H270734   3.037   3.417  16.765 -0.0172  0.1687  0.2693
16415TIP3   OH270735   2.379   4.896   0.454 -0.3458  0.0300  0.6163
16415TIP3    H170736   2.407   4.853   0.535  1.5259 -0.6052 -0.3323
16415TIP3    H270737   2.418   4.842   0.384  0.5034  2.1984 -0.6237
16416TIP3   OH270738   4.487   1.397  16.274 -0.7640 -0.4083  0.5400
16416TIP3    H170739   4.522   1.318  16.314  1.1709 -0.4178 -1.0943
16416TIP3    H270740   4.525   1.469  16.325 -0.0186 -0.4622  0.0588
16417TIP3   OH270741   2.669   5.184   1.321 -0.9545  0.2890  0.5818
16417TIP3    H170742   2.682   5.107   1.376 -0.4152 -1.0132 -1.3247
16417TIP3    H270743   2.690   5.258   1.378  3.5856 -1.1945  1.0202
16418TIP3   OH270744   3.678   6.164  11.335 -0.1545 -0.2104 -0.5327
16418TIP3    H170745   3.705   6.118  11.415 -0.9868  0.1685 -0.0207
16418TIP3    H270746   3.667   6.255  11.363  0.6981  0.1529 -1.3596
16419TIP3   OH270747   0.295   6.296  11.002 -0.4281  0.1759 -0.8112
16419TIP3    H170748   0.231   6.285  10.932  0.0178  0.3016 -1.2421
16419TIP3    H270749   0.331   6.384  10.989 -2.7858  1.5832  1.6374
16420TIP3   OH270750   3.322   3.692   0.976  0.2602  0.0325  0.6141
16420TIP3    H170751   3.353   3.772   1.018 -1.2837  0.4302  1.0140
16420TIP3    H270752   3.283   3.720   0.894 -2.4837  0.0260  1.8481
16421TIP3   OH270753   6.656   4.548   0.563  0.2646  0.5000  0.2737
16421TIP3    H170754   6.575   4.593   0.539  1.3158  1.6405 -1.2275
16421TIP3    H270755   6.700   4.608   0.623  0.3072  0.1600  0.5877
16422TIP3   OH270756   2.196   0.130   2.641  0.6152 -0.1140  0.4168
16422TIP3    H170757   2.249   0.082   2.705 -0.1184 -1.8572 -0.2374
16422TIP3    H270758   2.210   0.083   2.559  2.6036  2.8937 -1.0416
16423TIP3   OH270759   4.126   2.429  13.987 -0.1951 -0.2360  0.2679
16423TIP3    H170760   4.189   2.371  13.945  1.1302  0.2056  1.5941
16423TIP3    H270761   4.112   2.390  14.074 -0.6293  0.4604  0.5110
16424TIP3   OH270762   5.582   6.324  12.967  0.2349 -0.1512 -0.1258
16424TIP3    H170763   5.551   6.264  13.034  1.0396  0.3475  0.7143
16424TIP3    H270764   5.555   6.411  12.998  1.8433  0.2285  0.2986
16425TIP3   OH270765   2.214   4.752  14.322  0.3330  0.1092  0.2053
16425TIP3    H170766   2.188   4.770  14.412 -1.6470 -1.7937  0.0619
16425TIP3    H270767   2.295   4.801  14.310  0.4677  0.6293  2.9261
16426TIP3   OH270768   6.128   2.309  10.977 -0.2065 -0.5779 -0.5794
16426TIP3    H170769   6.189   2.242  10.949  2.0813  1.0967  0.2350
16426TIP3    H270770   6.063   2.263  11.030  1.1369 -2.1996 -0.3246
16427TIP3   OH270771   0.677   2.811   0.603  0.3503  0.4679  0.4469
16427TIP3    H170772   0.672   2.857   0.687  0.8142  0.1751  0.6371
16427TIP3    H270773   0.771   2.804   0.585  0.3308 -1.3302  0.9367
16428TIP3   OH270774   1.908   5.846   0.749 -0.4148 -0.1477 -0.3758
16428TIP3    H170775   1.933   5.763   0.708  0.0800 -0.2458  0.1220
16428TIP3    H270776   1.844   5.884   0.688  0.7562 -0.0019 -1.5425
16429TIP3   OH270777   1.643   3.940  11.816 -0.6310 -0.0230  0.2673
16429TIP3    H170778   1.607   3.876  11.754  1.3528 -0.7349 -0.1919
16429TIP3    H270779   1.614   4.025  11.782 -0.2565 -0.4596 -1.1791
16430TIP3   OH270780   5.100   2.945   3.840 -0.5648 -0.1154 -0.1200
16430TIP3    H170781   5.043   2.953   3.764 -0.4661 -0.1120 -0.1941
16430TIP3    H270782   5.052   2.988   3.911  0.9375  3.3574 -1.0521
16431TIP3   OH270783   5.682   3.451  15.240  0.0828 -0.6936  0.4291
16431TIP3    H170784   5.729   3.534  15.237  0.1540 -0.7358  0.3541
16431TIP3    H270785   5.613   3.464  15.305 -0.2923 -0.3695 -0.0355
16432TIP3   OH270786   1.169   2.190  15.298  0.3485  0.6443  0.5294
16432TIP3    H170787   1.224   2.112  15.283  2.3817  2.1503 -0.0364
16432TIP3    H270788   1.165   2.198  15.393  0.1639 -0.1221  0.5936
16433TIP3   OH270789   2.652   6.632   5.534  0.2804  0.1907 -0.4827
16433TIP3    H170790   2.562   6.600   5.547  0.1821  0.5359 -0.2954
16433TIP3    H270791   2.660   6.644   5.440  1.2413 -3.0663 -0.8739
16434TIP3   OH270792   6.144   1.290  10.820 -0.0302  0.4010 -0.6583
16434TIP3    H170793   6.124   1.200  10.846  2.2913  0.9570  3.4594
16434TIP3    H270794   6.222   1.282  10.765  0.7598 -0.0166  0.5242
16435TIP3   OH270795   6.335   2.370  16.260 -0.1930 -0.3745  0.4671
16435TIP3    H170796   6.298   2.429  16.194 -0.9943  0.6069  1.7535
16435TIP3    H270797   6.409   2.328  16.216  0.2610  1.4244 -0.5647
16436TIP3   OH270798   5.214   3.558  12.041  0.4509  0.5751  0.1255
16436TIP3    H170799   5.306   3.581  12.032  0.6637 -0.1892  0.2551
16436TIP3    H270800   5.179   3.561  11.952  1.0695 -0.9941 -0.1892
16437TIP3   OH270801   1.409   3.300  15.907 -0.5193  0.0280 -0.1379
16437TIP3    H170802   1.482   3.243  15.881 -0.8171  0.3469 -1.7176
16437TIP3    H270803   1.452   3.374  15.950  0.0223 -0.2796 -0.1346
16438TIP3   OH270804   1.069   3.591   1.834 -0.5061 -0.1320 -0.2492
16438TIP3    H170805   1.119   3.539   1.771  1.1024 -0.3136  1.1650
16438TIP3    H270806   1.059   3.533   1.910 -0.3164  0.9637  0.6162
16439TIP3   OH270807   6.732   2.477  13.887 -0.3912  0.2065  0.0493
16439TIP3    H170808   6.737   2.392  13.932 -0.8992  0.4704  0.6067
16439TIP3    H270809   6.754   2.457  13.796 -3.1093 -0.9917 -0.3813
16440TIP3   OH270810   4.224   1.011   6.460  0.1214 -0.1621  0.3849
16440TIP3    H170811   4.241   0.933   6.406  3.0417  0.6678  0.0143
16440TIP3    H270812   4.239   0.981   6.550  1.0791 -0.0883  0.2566
16441TIP3   OH270813   0.873   0.717   5.615 -0.1308  0.2625  0.0979
16441TIP3    H170814   0.952   0.709   5.670 -0.5021  3.1723  1.1135
16441TIP3    H270815   0.900   0.774   5.543 -1.4103  1.7113  0.7335
16442TIP3   OH270816   5.527   3.868  12.795  0.3733  0.6233  0.3781
16442TIP3    H170817   5.521   3.891  12.888  1.4466  0.1299  0.5782
16442TIP3    H270818   5.476   3.787  12.787  0.6247  0.4417  0.6184
16443TIP3   OH270819   6.668   2.378  11.954  0.1176  0.0473  0.5291
16443TIP3    H170820   6.712   2.408  11.875  1.1345  0.1936  1.1522
16443TIP3    H270821   6.671   2.453  12.013 -1.0793  0.1045  0.5380
16444TIP3   OH270822   6.275   6.341   2.363  0.1198 -0.0072  0.1107
16444TIP3    H170823   6.208   6.393   2.407  0.4998  0.7584 -0.2210
16444TIP3    H270824   6.297   6.390   2.284 -0.0790 -1.0484 -0.6092
16445TIP3   OH270825   1.916   6.197  17.199 -0.0563  0.3033  0.3340
16445TIP3    H170826   1.903   6.228  17.288  0.5046  0.5217  0.3457
16445TIP3    H270827   1.965   6.267  17.156  0.8344 -0.3677  0.2354
16446TIP3   OH270828   4.589   4.395  12.390 -0.7974 -0.1329  0.6417
16446TIP3    H170829   4.505   4.351  12.376  0.0284 -1.3426 -0.6708
16446TIP3    H270830   4.579   4.479  12.346 -1.2837 -0.3095  0.4068
16447TIP3   OH270831   4.701   0.831  12.355 -0.2435 -0.4516 -1.1091
16447TIP3    H170832   4.616   0.811  12.394  0.0956  1.1598  0.5387
16447TIP3    H270833   4.689   0.814  12.261 -2.6718  0.5931 -1.0379
16448TIP3   OH270834   5.965   1.397   6.168  0.1353  0.2978 -0.5185
16448TIP3    H170835   5.914   1.327   6.209 -0.8746  1.0231 -0.5300
16448TIP3    H270836   5.934   1.399   6.077  1.7688 -0.7443 -1.1129
16449TIP3   OH270837   4.266   6.308  15.858  0.3356  0.2976  0.3352
16449TIP3    H170838   4.297   6.222  15.887  0.0994 -1.5139 -4.2407
16449TIP3    H270839   4.331   6.336  15.794  0.1406  3.3500  1.4254
16450TIP3   OH270840   1.609   0.549  17.060  0.1363 -0.8179 -0.2350
16450TIP3    H170841   1.559   0.532  16.981  4.3785 -2.3078 -2.7993
16450TIP3    H270842   1.630   0.642  17.056  0.9650 -1.0400 -1.2966
16451TIP3   OH270843   0.321   5.864  11.340 -0.1985 -0.3426  0.2630
16451TIP3    H170844   0.243   5.825  11.299 -0.1859  0.0750 -0.1619
16451TIP3    H270845   0.377   5.789  11.360 -0.8658 -0.6800  0.9021
16452TIP3   OH270846   0.873   4.928   5.928 -0.1462  0.2099  0.1665
16452TIP3    H170847   0.936   5.000   5.934  0.4447 -0.2512 -0.3785
16452TIP3    H270848   0.896   4.884   5.846  0.5813 -1.6130  1.3356
16453TIP3   OH270849   2.450   5.190   2.930 -0.9032 -0.3494 -0.7387
16453TIP3    H170850   2.368   5.153   2.962 -0.2608 -0.6428  0.5853
16453TIP3    H270851   2.429   5.281   2.908 -1.7063 -0.5790 -0.9074
16454TIP3   OH270852   4.364   4.058  15.701  0.0827 -0.6445  0.1178
16454TIP3    H170853   4.409   4.138  15.728  0.0894 -0.8633  0.7603
16454TIP3    H270854   4.384   3.995  15.770 -1.1668 -0.7595  0.3914
16455TIP3   OH270855   5.757   0.418   5.473  0.3100 -0.0443 -0.3728
16455TIP3    H170856   5.786   0.494   5.524 -2.1897  0.5392  0.2770
16455TIP3    H270857   5.819   0.349   5.496 -0.1993  0.4514  2.8434
16456TIP3   OH270858   0.632   1.903   0.304  0.0643  0.7382 -0.5831
16456TIP3    H170859   0.551   1.934   0.346  1.2277  2.0156  0.7514
16456TIP3    H270860   0.653   1.822   0.350 -0.0496  0.7959 -0.4249
16457TIP3   OH270861   6.149   1.122  13.598 -0.8827 -0.1235 -0.9985
16457TIP3    H170862   6.095   1.122  13.519 -0.6478  1.5496 -1.1736
16457TIP3    H270863   6.150   1.213  13.627 -0.5580 -0.6309  0.6641
16458TIP3   OH270864   3.658   0.689   5.005 -0.0741 -0.5716  0.5074
16458TIP3    H170865   3.635   0.756   5.070 -0.8581 -0.3606  0.0246
16458TIP3    H270866   3.576   0.642   4.989 -0.0349 -0.2207 -0.7931
16459TIP3   OH270867   6.576   0.216  15.771  0.0752  0.6168  0.0266
16459TIP3    H170868   6.500   0.267  15.798 -0.6289 -1.1605  1.4778
16459TIP3    H270869   6.602   0.255  15.688 -2.2689  1.4215 -0.3764
16460TIP3   OH270870   2.958   5.082   3.935  0.0138 -0.0082 -0.1401
16460TIP3    H170871   2.965   5.174   3.961 -1.3462  0.4389 -1.3022
16460TIP3    H270872   3.021   5.073   3.863 -0.7434  0.3321 -0.8514
16461TIP3   OH270873   4.804   1.810   3.510 -0.3368 -0.2577 -0.7148
16461TIP3    H170874   4.750   1.863   3.569  0.7315  1.5628 -1.3171
16461TIP3    H270875   4.788   1.847   3.423  0.5469 -0.8251 -1.1333
16462TIP3   OH270876   3.311   0.668   2.835  0.0462 -0.6270 -0.5756
16462TIP3    H170877   3.305   0.701   2.924  0.9767 -1.2066 -0.2888
16462TIP3    H270878   3.250   0.594   2.833  0.4038 -0.9295 -0.2742
16463TIP3   OH270879   2.103   2.686   0.890  0.4031 -0.6019  0.1021
16463TIP3    H170880   2.031   2.703   0.950 -0.0134 -1.4226 -0.1441
16463TIP3    H270881   2.060   2.659   0.808  0.9452  1.0666 -0.7504
16464TIP3   OH270882   0.205   3.726   1.440 -0.1373 -0.1555 -0.4919
16464TIP3    H170883   0.213   3.643   1.393 -0.3285 -1.0293  0.9919
16464TIP3    H270884   0.293   3.764   1.438  0.0684 -0.6446 -0.7212
16465TIP3   OH270885   1.795   0.928   5.469  0.7454 -0.2053 -0.2580
16465TIP3    H170886   1.767   0.959   5.555  0.6635  2.0578 -1.0791
16465TIP3    H270887   1.720   0.877   5.437 -0.1515  0.9092  0.0332
16466TIP3   OH270888   4.610   2.794  14.303  0.6558 -0.0302 -0.3932
16466TIP3    H170889   4.574   2.809  14.216  0.2097 -1.4929 -0.4822
16466TIP3    H270890   4.534   2.768  14.356  1.4026 -2.2152 -0.3543
16467TIP3   OH270891   0.567   4.847  11.801 -0.9304  0.0746  0.1121
16467TIP3    H170892   0.630   4.778  11.822 -0.8549  0.4068  1.0160
16467TIP3    H270893   0.618   4.910  11.750 -1.1836 -0.8701 -1.3409
16468TIP3   OH270894   6.610   0.057  11.736  0.7441  0.2805 -0.2350
16468TIP3    H170895   6.583   0.139  11.776  1.2426  0.3001  0.0682
16468TIP3    H270896   6.538   0.034  11.677 -0.3736 -0.1684  1.2817
16469TIP3   OH270897   3.028   6.389   2.315  0.7817  0.0334 -0.5558
16469TIP3    H170898   2.996   6.412   2.228 -1.4482  0.4772  0.3584
16469TIP3    H270899   3.103   6.447   2.329 -0.5689  1.9312 -1.0576
16470TIP3   OH270900   3.119   1.440   5.321 -0.3077 -0.0632  0.9450
16470TIP3    H170901   3.175   1.415   5.247 -1.0949  0.3911  0.1914
16470TIP3    H270902   3.180   1.451   5.394  0.6656  1.0616 -0.0160
16471TIP3   OH270903   6.137   5.221  10.915 -0.4305  0.4328  0.0518
16471TIP3    H170904   6.121   5.300  10.966 -1.0192 -0.8079  1.8701
16471TIP3    H270905   6.188   5.250  10.839  0.0699  2.3929  1.1169
16472TIP3   OH270906   5.528   5.569  13.810  0.0386  0.5067 -0.4886
16472TIP3    H170907   5.481   5.542  13.731  1.5692 -0.5422 -1.0550
16472TIP3    H270908   5.604   5.618  13.777 -0.1622  1.4449  0.3988
16473TIP3   OH270909   3.151   3.083   0.116 -0.3767  0.1931 -0.2212
16473TIP3    H170910   3.221   3.127   0.163 -1.4979  1.9272 -0.1252
16473TIP3    H270911   3.078   3.080   0.179 -1.2850  0.8785 -1.2250
16474TIP3   OH270912   1.844   6.458   4.921 -0.0679  0.2927  0.2727
16474TIP3    H170913   1.928   6.502   4.911  0.2678 -0.6279 -1.2202
16474TIP3    H270914   1.864   6.378   4.969 -0.4949  1.1914  1.9915
16475TIP3   OH270915   5.573   1.733   3.135 -0.2353  0.3482  0.3873
16475TIP3    H170916   5.512   1.677   3.183 -0.1292 -0.4494 -0.3831
16475TIP3    H270917   5.659   1.706   3.166 -0.1744 -0.0640 -0.1280
16476TIP3   OH270918   6.084   5.256  15.167 -0.1808 -0.1204 -0.2633
16476TIP3    H170919   6.138   5.178  15.183  0.1057 -0.2334 -1.6922
16476TIP3    H270920   6.035   5.235  15.088 -0.4853  0.9574 -0.3654
16477TIP3   OH270921   6.693   2.096  11.184  0.1768  0.4057  0.3572
16477TIP3    H170922   6.718   2.040  11.257  1.6546  0.5150 -0.0507
16477TIP3    H270923   6.600   2.078  11.171  0.5360 -1.6737  0.4859
16478TIP3   OH270924   0.941   5.868   5.439  0.3868  0.3966 -0.0702
16478TIP3    H170925   1.008   5.825   5.492  0.8150  0.2205 -0.7362
16478TIP3    H270926   0.924   5.806   5.368 -0.3922  0.4988  0.0242
16479TIP3   OH270927   3.761   2.115   1.787 -0.2941 -0.0585  0.4400
16479TIP3    H170928   3.687   2.064   1.820 -0.2921  0.6671  1.5952
16479TIP3    H270929   3.807   2.144   1.866  0.6778  0.2943 -0.2487
16480TIP3   OH270930   6.526   1.163  13.369 -0.0262 -0.0757  0.2548
16480TIP3    H170931   6.534   1.070  13.348 -1.1472 -0.0774 -0.1850
16480TIP3    H270932   6.434   1.184  13.351  0.0697  0.9643  0.9708
16481TIP3   OH270933   2.485   4.844  13.513  0.5333  0.8740 -0.1414
16481TIP3    H170934   2.430   4.766  13.505  2.2890 -0.1337 -3.0943
16481TIP3    H270935   2.444   4.907  13.454  0.7709  1.2005  0.0435
16482TIP3   OH270936   0.244   1.790  14.686 -0.8227  0.4967  0.5328
16482TIP3    H170937   0.172   1.768  14.628 -0.6978  0.8736  0.2356
16482TIP3    H270938   0.215   1.868  14.733 -0.6668  0.5620  0.5204
16483TIP3   OH270939   1.865   4.555  11.151  0.4301  0.3219 -0.0829
16483TIP3    H170940   1.816   4.517  11.224  1.2186  1.5860  1.1271
16483TIP3    H270941   1.886   4.481  11.095 -1.3188 -0.4894  0.2902
16484TIP3   OH270942   6.436   4.091   0.108  0.5473 -0.5004  0.0375
16484TIP3    H170943   6.455   4.103   0.015 -1.3361  0.4375 -0.2580
16484TIP3    H270944   6.521   4.073   0.148  1.7831  1.7824 -1.4524
16485TIP3   OH270945   3.422   2.709   4.972  0.0438  0.2651 -0.0386
16485TIP3    H170946   3.476   2.764   4.916 -1.2771  0.5450 -1.0445
16485TIP3    H270947   3.399   2.765   5.046  1.6600 -0.0580  0.7187
16486TIP3   OH270948   6.118   2.660   0.777 -0.4050  0.6695 -0.0807
16486TIP3    H170949   6.209   2.633   0.772 -0.6449 -0.3367  0.7920
16486TIP3    H270950   6.105   2.714   0.699  0.6317 -0.0974 -0.8054
16487TIP3   OH270951   3.673   4.623  12.799  0.1085 -0.3926  0.0179
16487TIP3    H170952   3.691   4.700  12.746 -0.9750 -1.3599 -1.7953
16487TIP3    H270953   3.579   4.626  12.814  0.3282 -0.4030  1.4923
16488TIP3   OH270954   3.512   1.582   0.253  0.5398 -0.1188 -0.0069
16488TIP3    H170955   3.428   1.580   0.298 -0.5390 -0.4173 -1.9881
16488TIP3    H270956   3.576   1.599   0.323 -1.2191  0.8931  1.4000
16489TIP3   OH270957   4.764   2.906   1.111 -0.9567 -0.3926  0.4151
16489TIP3    H170958   4.747   2.909   1.205 -0.4188 -1.2968  0.5432
16489TIP3    H270959   4.813   2.825   1.098 -1.1642 -0.3460 -0.6685
16490TIP3   OH270960   0.335   1.734  16.919  0.8713 -0.0852  0.2151
16490TIP3    H170961   0.342   1.796  16.847 -0.7368  1.3290  1.2323
16490TIP3    H270962   0.244   1.740  16.948  0.8612 -2.4206  0.7989
16491TIP3   OH270963   3.651   0.121  16.311 -0.4239  0.1347  0.1492
16491TIP3    H170964   3.622   0.212  16.322  0.7504  0.5518 -0.1002
16491TIP3    H270965   3.714   0.107  16.382  1.0285  0.2206 -1.1006
16492TIP3   OH270966   6.274   6.398   1.912 -0.1377 -0.0680 -0.7900
16492TIP3    H170967   6.297   6.490   1.921  0.0708 -0.0616 -1.3468
16492TIP3    H270968   6.220   6.379   1.989 -0.0650  0.4793 -0.6004
16493TIP3   OH270969   2.025   3.857  12.339 -0.2768  0.5352 -0.1295
16493TIP3    H170970   2.020   3.794  12.268 -0.3087  0.5241 -0.1172
16493TIP3    H270971   1.935   3.863  12.373 -0.2872  0.6376 -0.1742
16494TIP3   OH270972   4.911   4.275   1.131 -0.4483 -0.2866  0.0710
16494TIP3    H170973   4.865   4.341   1.183 -0.8592  0.1377 -0.8189
16494TIP3    H270974   4.923   4.201   1.190 -1.0260  0.1449  0.7286
16495TIP3   OH270975   5.849   2.258  14.148 -0.5944 -0.3296  0.0949
16495TIP3    H170976   5.817   2.231  14.234 -0.5396  0.7690  0.4712
16495TIP3    H270977   5.775   2.241  14.089 -0.3214 -1.9273  0.1826
16496TIP3   OH270978   3.205   6.526   3.666 -0.3783 -0.2278  0.1421
16496TIP3    H170979   3.144   6.462   3.628  0.9216 -0.8385 -0.9724
16496TIP3    H270980   3.237   6.575   3.590 -0.5226  1.0055  0.8805
16497TIP3   OH270981   6.254   4.748  11.513 -0.3731 -0.3216  0.4333
16497TIP3    H170982   6.279   4.691  11.586 -0.1155 -0.5773  0.1517
16497TIP3    H270983   6.160   4.737  11.505 -0.5376  0.3830  1.2872
16498TIP3   OH270984   3.040   2.008   3.825 -0.5308  0.0850  0.8606
16498TIP3    H170985   3.015   1.916   3.813  1.7738 -0.5988  1.0014
16498TIP3    H270986   2.958   2.053   3.843 -1.9292 -1.6595 -0.9319
16499TIP3   OH270987   0.334   4.488  11.441  0.1556  0.7583  0.1324
16499TIP3    H170988   0.296   4.435  11.371  1.2368  0.7748 -0.4792
16499TIP3    H270989   0.259   4.525  11.487 -0.5722  0.2338 -0.6227
16500TIP3   OH270990   6.439   0.523   5.191  0.2794 -0.2461 -0.5310
16500TIP3    H170991   6.499   0.490   5.258  1.1945  0.6811 -0.8785
16500TIP3    H270992   6.454   0.618   5.191 -0.8852 -0.0622 -0.9109
16501TIP3   OH270993   6.621   5.137   4.412  0.1113 -0.4471  0.1406
16501TIP3    H170994   6.715   5.118   4.421 -0.1600 -1.6151  0.6180
16501TIP3    H270995   6.615   5.189   4.332  0.8432 -3.0591 -1.6759
16502TIP3   OH270996   4.405   0.445  14.223  0.2990  0.0936  0.3963
16502TIP3    H170997   4.425   0.368  14.277  1.9967 -0.2986 -0.7516
16502TIP3    H270998   4.389   0.409  14.135 -0.1097  0.9345  0.1209
16503TIP3   OH270999   2.757   6.772   3.167  0.3798 -0.1758  0.4638
16503TIP3    H171000   2.835   6.816   3.136  1.1181 -1.4998  0.4143
16503TIP3    H271001   2.767   6.769   3.262  1.1185 -1.6880  0.3437
16504TIP3   OH271002   5.174   6.265   5.286  0.2835 -0.0116  0.4604
16504TIP3    H171003   5.162   6.248   5.380  1.9995  0.3846  0.7762
16504TIP3    H271004   5.195   6.359   5.282 -0.8648  0.2220 -0.4418
16505TIP3   OH271005   3.634   1.289   3.178  0.4278 -0.5711  0.0408
16505TIP3    H171006   3.612   1.381   3.195  1.4312 -0.1016 -1.0833
16505TIP3    H271007   3.563   1.239   3.218 -0.5086  0.7310  0.0238
16506TIP3   OH271008   1.837   3.987   5.616 -0.4757  0.0033 -0.0728
16506TIP3    H171009   1.763   4.001   5.557 -0.3299  0.6363 -0.1098
16506TIP3    H271010   1.805   3.924   5.681 -0.9992  0.1802 -0.1614
16507TIP3   OH271011   1.155   1.875  15.052 -0.3547 -0.7048  0.1926
16507TIP3    H171012   1.221   1.911  14.994 -1.1476  0.6254  0.0918
16507TIP3    H271013   1.082   1.937  15.047 -1.8503 -2.4585 -0.1598
16508TIP3   OH271014   0.209   3.862  16.134 -0.0593  0.7866 -0.2437
16508TIP3    H171015   0.160   3.894  16.059 -0.5490  2.8793  0.9474
16508TIP3    H271016   0.275   3.929  16.150  0.8419 -0.2477  0.4441
16509TIP3   OH271017   2.023   5.545   5.303 -0.8690 -0.6097  0.3181
16509TIP3    H171018   2.044   5.600   5.228 -0.4416  0.2910  1.0820
16509TIP3    H271019   2.046   5.456   5.275  2.0756  0.0682  0.3881
16510TIP3   OH271020   0.933   5.568  13.825  0.4927  0.7725  0.1531
16510TIP3    H171021   1.001   5.501  13.835 -0.2436  0.2049  1.5210
16510TIP3    H271022   0.933   5.615  13.909 -0.9941  0.5816  0.2655
16511TIP3   OH271023   0.563   4.877  15.908  0.3959 -0.5007 -0.4302
16511TIP3    H171024   0.498   4.874  15.837 -2.5027 -1.2886  2.1633
16511TIP3    H271025   0.613   4.797  15.898  0.0711 -0.5607 -1.6513
16512TIP3   OH271026   2.182   5.655   5.500  0.1486 -0.0904 -0.4131
16512TIP3    H171027   2.211   5.574   5.543 -0.1880 -0.6493 -1.2213
16512TIP3    H271028   2.133   5.625   5.424  0.2027  0.8876 -0.8382
16513TIP3   OH271029   2.928   0.348  12.374 -0.0786 -0.3501  0.4693
16513TIP3    H171030   2.973   0.276  12.420  0.6248 -1.1180 -1.3758
16513TIP3    H271031   2.839   0.316  12.362 -0.0137 -0.5340  0.4694
16514TIP3   OH271032   0.497   2.362   4.397 -0.2249 -0.7519  0.5070
16514TIP3    H171033   0.532   2.445   4.431 -0.6163  0.2874 -1.5711
16514TIP3    H271034   0.575   2.307   4.385  0.1795 -0.2176  0.6421
16515TIP3   OH271035   3.580   0.702   1.499  0.5718 -0.2510 -0.5620
16515TIP3    H171036   3.543   0.787   1.474  0.6874 -0.3059 -0.9152
16515TIP3    H271037   3.584   0.653   1.418 -1.1366 -1.2279 -0.0937
16516TIP3   OH271038   5.780   4.707   4.385 -0.4131 -0.1297 -0.1887
16516TIP3    H171039   5.773   4.782   4.444 -1.5564 -0.7268  0.4397
16516TIP3    H271040   5.852   4.655   4.420 -0.7774 -0.2365  0.4088
16517TIP3   OH271041   1.705   6.086   4.372 -0.9386  0.2044  0.1626
16517TIP3    H171042   1.732   5.997   4.351  0.9779  1.0661 -1.2767
16517TIP3    H271043   1.713   6.092   4.467  1.5199 -0.4142  0.0342
16518TIP3   OH271044   4.477   2.630  16.299  0.7270 -0.1374  0.5301
16518TIP3    H171045   4.510   2.583  16.376  0.5595 -1.3394 -0.1133
16518TIP3    H271046   4.424   2.701  16.334 -0.6774 -1.6436  1.5153
16519TIP3   OH271047   6.761   3.449   4.771  0.0592  0.1752  0.2992
16519TIP3    H171048   6.692   3.397   4.812  1.4269 -2.1994 -0.3013
16519TIP3    H271049   6.805   3.388   4.713  0.8828  2.3957 -1.4652
16520TIP3   OH271050   3.535   0.638   2.689 -0.0227 -0.6080 -0.5662
16520TIP3    H171051   3.556   0.548   2.714 -0.0765 -0.0897  1.4075
16520TIP3    H271052   3.455   0.659   2.736  1.6117  1.4788  1.4113
16521TIP3   OH271053   2.825   5.146   0.092  0.6785  0.4674 -0.3456
16521TIP3    H171054   2.759   5.212   0.115  0.4545  0.3886 -0.7518
16521TIP3    H271055   2.786   5.098   0.018  0.3277 -0.9106  0.7124
16522TIP3   OH271056   0.978   4.065   3.965  0.2966 -0.0788 -0.0043
16522TIP3    H171057   0.920   4.070   4.040  1.9264 -0.2194  1.2811
16522TIP3    H271058   1.066   4.067   4.002  1.1242  0.2051 -1.9226
16523TIP3   OH271059   1.018   2.727   3.185 -1.0180  0.3444  0.2100
16523TIP3    H171060   1.095   2.757   3.231 -1.5495 -0.1067  1.4004
16523TIP3    H271061   1.052   2.673   3.113 -0.1891  1.1919 -0.0356
16524TIP3   OH271062   3.878   2.562   0.164  0.1431 -0.3863 -0.1139
16524TIP3    H171063   3.932   2.484   0.152  0.4191 -0.6056  2.3238
16524TIP3    H271064   3.939   2.635   0.151  0.6001 -0.6253  0.6065
16525TIP3   OH271065   0.822   1.007   0.274  0.5422 -0.1455 -0.1147
16525TIP3    H171066   0.813   1.039   0.184 -1.6955 -1.9825 -0.6011
16525TIP3    H271067   0.737   1.025   0.314  1.9236  1.8209  2.0854
16526TIP3   OH271068   5.006   5.639  13.360  0.2384 -0.1160 -1.1090
16526TIP3    H171069   5.075   5.621  13.296  1.2379 -0.2187 -0.0203
16526TIP3    H271070   5.040   5.710  13.413  0.9652 -2.3489  1.5458
16527TIP3   OH271071   2.412   2.588  13.921 -0.1117  0.3657  0.1736
16527TIP3    H171072   2.441   2.641  13.995 -2.1806 -0.1336  1.3654
16527TIP3    H271073   2.397   2.651  13.851  1.0883  0.9272  0.4069
16528TIP3   OH271074   2.547   6.166  12.314  0.1436 -0.1132 -0.4566
16528TIP3    H171075   2.460   6.207  12.320 -0.2272 -0.4146 -3.1538
16528TIP3    H271076   2.539   6.087  12.366 -1.9007 -1.1857 -2.2799
16529TIP3   OH271077   6.252   3.855  10.707 -0.7185  0.2382 -0.3956
16529TIP3    H171078   6.258   3.935  10.759 -0.3881 -0.3019  0.4167
16529TIP3    H271079   6.161   3.826  10.719 -0.3694 -0.4478  0.7621
16530TIP3   OH271080   1.647   0.909   1.296 -0.1968 -0.9674 -0.2820
16530TIP3    H171081   1.659   1.002   1.315  0.2942 -1.3746  1.4745
16530TIP3    H271082   1.639   0.904   1.200 -2.2361  1.1082 -0.2519
16531TIP3   OH271083   4.329   0.595  11.873 -0.1016  0.4843 -0.3542
16531TIP3    H171084   4.348   0.555  11.788  1.0890  0.1809  0.0442
16531TIP3    H271085   4.372   0.537  11.936 -0.5562  0.9825  0.4148
16532TIP3   OH271086   4.787   3.770   0.583  0.4753 -0.1970 -0.0472
16532TIP3    H171087   4.745   3.694   0.623 -0.8691  0.7801  0.4319
16532TIP3    H271088   4.804   3.829   0.656  0.7003  0.3347 -0.5280
16533TIP3   OH271089   6.213   5.288   5.067  0.2313  0.5414  0.7310
16533TIP3    H171090   6.136   5.267   5.120 -1.0558 -0.5258 -1.4475
16533TIP3    H271091   6.286   5.247   5.112 -0.7022  0.2891  2.0443
16534TIP3   OH271092   6.651   3.599  16.075  0.2201 -0.0310 -0.0544
16534TIP3    H171093   6.555   3.602  16.083  0.3292  1.7592  1.0181
16534TIP3    H271094   6.674   3.510  16.099 -1.0516  0.1017  1.8475
16535TIP3   OH271095   5.528   6.778   4.076 -0.5253 -0.6514 -0.1794
16535TIP3    H171096   5.538   6.735   3.992  2.1001 -0.2148 -0.1437
16535TIP3    H271097   5.467   6.850   4.060  0.3984 -0.2282 -1.8498
16536TIP3   OH271098   6.101   0.100   0.804 -0.4393  0.2445  0.3785
16536TIP3    H171099   6.079   0.113   0.896 -0.7279 -3.1478  0.8854
16536TIP3    H271100   6.196   0.087   0.803 -0.6396 -1.4596  0.5089
16537TIP3   OH271101   3.837   4.222   0.296  0.4149  0.4274  0.1500
16537TIP3    H171102   3.908   4.178   0.342 -0.3563 -2.3546 -1.2219
16537TIP3    H271103   3.769   4.233   0.362  0.7047 -0.2562  0.5647
16538TIP3   OH271104   2.690   1.860  11.839 -0.1527  0.4668 -0.2311
16538TIP3    H171105   2.716   1.808  11.915 -2.9008 -1.3677 -0.4774
16538TIP3    H271106   2.717   1.808  11.763 -2.6811 -0.5398 -0.4787
16539TIP3   OH271107   6.727   3.107  11.816  0.9258  0.7195 -0.2459
16539TIP3    H171108   6.747   3.015  11.802  1.7036  0.9494 -0.6842
16539TIP3    H271109   6.718   3.116  11.911  0.8008  0.1874 -0.2082
16540TIP3   OH271110   6.690   3.306  14.496 -0.3488  0.2817  0.5601
16540TIP3    H171111   6.679   3.310  14.591  0.0758  0.1081  0.6198
16540TIP3    H271112   6.784   3.316  14.483 -0.3621 -0.0872  0.1807
16541TIP3   OH271113   0.991   2.271  10.892 -0.3334 -0.2334 -0.0975
16541TIP3    H171114   0.897   2.254  10.900 -0.1425 -2.8207 -2.6210
16541TIP3    H271115   1.000   2.316  10.808  0.8471 -1.5058 -0.6680
16542TIP3   OH271116   0.693   3.685   3.528 -0.2513 -0.0220 -0.1590
16542TIP3    H171117   0.706   3.596   3.494 -0.2382  0.1460 -0.6078
16542TIP3    H271118   0.621   3.720   3.475  0.1331  0.4357 -0.3882
16543TIP3   OH271119   3.291   6.633   5.328  0.2156  0.1577  0.2134
16543TIP3    H171120   3.281   6.550   5.282 -0.7544 -0.0287  0.7539
16543TIP3    H271121   3.378   6.627   5.369  0.4444 -0.2921 -0.3382
16544TIP3   OH271122   2.891   0.330  11.364  0.5414  0.3044 -0.1883
16544TIP3    H171123   2.970   0.362  11.320 -1.2956  1.1820 -3.0144
16544TIP3    H271124   2.864   0.254  11.312  0.8302 -1.4561  2.1776
16545TIP3   OH271125   1.152   4.641   1.078 -0.1339 -0.6150  0.6840
16545TIP3    H171126   1.058   4.662   1.085 -0.0465 -0.1715  0.5649
16545TIP3    H271127   1.156   4.570   1.014 -0.1838  0.9380 -1.0794
16546TIP3   OH271128   0.153   1.979  15.106 -0.6082  0.4028  0.3172
16546TIP3    H171129   0.081   1.944  15.158 -0.6066  1.2897  0.9216
16546TIP3    H271130   0.133   1.953  15.016 -0.8624 -0.7200  0.6926
16547TIP3   OH271131   3.981   0.105   3.496  0.3070  0.0954 -0.2774
16547TIP3    H171132   3.970   0.141   3.408  0.2532 -1.1542 -0.7961
16547TIP3    H271133   3.943   0.017   3.492 -0.7855  0.4721  1.3328
16548TIP3   OH271134   5.883   2.269  12.120  0.4569  1.0472  0.1963
16548TIP3    H171135   5.908   2.177  12.123 -0.7124  0.7186  0.2167
16548TIP3    H271136   5.919   2.301  12.038  0.6222  0.4913  0.0493
16549TIP3   OH271137   6.178   0.793  15.892 -0.0191 -0.0662  0.0469
16549TIP3    H171138   6.214   0.862  15.836  0.8773  1.5311  2.4748
16549TIP3    H271139   6.246   0.727  15.896 -1.0341 -1.3287 -2.6074
16550TIP3   OH271140   4.407   4.596  16.964  0.2868  0.5192  0.8414
16550TIP3    H171141   4.495   4.585  16.930 -0.1950  0.8953 -0.5697
16550TIP3    H271142   4.361   4.645  16.896 -0.8212  0.9240  1.8618
16551TIP3   OH271143   1.144   0.469  16.361  0.2056  0.0127 -0.8434
16551TIP3    H171144   1.227   0.434  16.395  0.7775 -0.3260 -2.5418
16551TIP3    H271145   1.110   0.400  16.305  0.0008  1.1351 -2.1148
16552TIP3   OH271146   5.845   4.755  15.857 -0.6645  0.3282 -0.2048
16552TIP3    H171147   5.773   4.789  15.910  0.6669  1.8992  0.6208
16552TIP3    H271148   5.855   4.818  15.785 -0.7094 -0.3772 -0.8411
16553TIP3   OH271149   1.737   1.227  15.867  0.6037  0.0407 -0.7147
16553TIP3    H171150   1.671   1.243  15.800  0.1272 -0.2835 -0.3285
16553TIP3    H271151   1.704   1.151  15.915  2.1512 -1.2741 -1.6687
16554TIP3   OH271152   6.757   3.478   1.781  0.0802 -0.4088 -0.0571
16554TIP3    H171153   6.797   3.565   1.791  0.2546 -0.6001  0.9709
16554TIP3    H271154   6.670   3.496   1.745  0.7130  0.0820 -1.3422
16555TIP3   OH271155   4.874   2.104  16.391  0.3373  0.6501  0.0323
16555TIP3    H171156   4.895   2.066  16.476  1.3051  0.6035 -0.2258
16555TIP3    H271157   4.958   2.111  16.346 -0.1077  1.1092 -0.7431
16556TIP3   OH271158   3.761   2.754  16.797 -0.5552 -0.0843  0.4568
16556TIP3    H171159   3.780   2.661  16.784  0.4611  0.3108 -0.9976
16556TIP3    H271160   3.772   2.768  16.891  0.0182 -1.2698  0.5725
16557TIP3   OH271161   5.036   1.604   0.720 -0.4237  0.0631  0.6494
16557TIP3    H171162   5.104   1.617   0.785 -0.0707 -1.0763  0.5135
16557TIP3    H271163   4.987   1.528   0.751 -1.1343  0.3838  0.3264
16558TIP3   OH271164   2.908   4.731  10.807  0.1405  0.4600 -0.5008
16558TIP3    H171165   2.822   4.715  10.844  0.8545 -0.1496  0.9406
16558TIP3    H271166   2.945   4.643  10.793  1.3112  0.7194  0.8181
16559TIP3   OH271167   4.294   2.287   0.493 -0.5512 -0.3774 -0.1011
16559TIP3    H171168   4.377   2.265   0.450 -0.1512 -1.1466  1.0321
16559TIP3    H271169   4.315   2.362   0.549 -0.8090 -0.0748 -0.4096
16560TIP3   OH271170   4.052   0.168   1.030  0.0896  0.1242 -0.1353
16560TIP3    H171171   3.998   0.107   1.080 -0.2139  0.7949  0.3692
16560TIP3    H271172   4.082   0.232   1.095  0.9681  0.1147 -0.5299
16561TIP3   OH271173   4.399   0.092  12.021 -0.3446  0.5905  0.4401
16561TIP3    H171174   4.409   0.167  11.963 -0.3497  1.6825  1.8288
16561TIP3    H271175   4.457   0.110  12.095  0.9941 -1.6183 -0.0202
16562TIP3   OH271176   2.152   2.308  15.096 -0.0275  0.4327 -0.2594
16562TIP3    H171177   2.142   2.242  15.164 -0.2102 -0.2956 -0.9916
16562TIP3    H271178   2.179   2.260  15.018 -0.1318  1.2189 -0.7952
16563TIP3   OH271179   0.459   6.644  14.187  0.0809  0.7468  0.2614
16563TIP3    H171180   0.509   6.649  14.269 -0.7979 -1.8663  1.0028
16563TIP3    H271181   0.388   6.583  14.206 -0.4171  0.4786 -2.3217
16564TIP3   OH271182   6.224   4.016  11.693 -0.0217  0.4594 -1.0474
16564TIP3    H171183   6.215   4.111  11.686 -0.4883  0.5416  0.4970
16564TIP3    H271184   6.137   3.981  11.674 -0.1212  0.4153 -0.5325
16565TIP3   OH271185   2.128   0.251   3.563  0.0085 -0.2387  0.1518
16565TIP3    H171186   2.101   0.219   3.649 -0.7000  0.5993  0.2549
16565TIP3    H271187   2.224   0.250   3.566 -0.0018  0.6126  1.2802
16566TIP3   OH271188   4.059   6.397  13.117 -0.8892  0.0951  0.5526
16566TIP3    H171189   4.012   6.457  13.175 -0.4578  0.4244  0.5638
16566TIP3    H271190   4.116   6.454  13.065 -0.3072 -0.3312  0.7227
16567TIP3   OH271191   0.699   0.247   4.958  0.8369  0.3941  0.6679
16567TIP3    H171192   0.663   0.284   5.038 -0.1786  0.0210  0.3928
16567TIP3    H271193   0.692   0.317   4.893  1.2488  0.5467  0.7831
16568TIP3   OH271194   5.380   6.769  10.936 -0.7108 -0.0275  0.2829
16568TIP3    H171195   5.360   6.770  11.030 -0.8353  1.2558  0.2530
16568TIP3    H271196   5.296   6.781  10.893 -0.3064  2.5394  0.0981
16569TIP3   OH271197   3.352   1.309  14.570 -0.4907  0.1678  0.3438
16569TIP3    H171198   3.329   1.360  14.648  1.3826 -0.1535  1.1227
16569TIP3    H271199   3.295   1.345  14.501 -0.4060  2.1582  1.2639
16570TIP3   OH271200   6.727   5.808   4.129  0.9040  0.8969 -0.0032
16570TIP3    H171201   6.707   5.773   4.216  0.5124  2.1231  0.4107
16570TIP3    H271202   6.792   5.747   4.093 -1.0805 -1.2554 -0.0271
16571TIP3   OH271203   0.316   2.945   0.361  0.2343 -0.0117 -0.7142
16571TIP3    H171204   0.359   3.029   0.374  0.5665 -0.3005  0.1168
16571TIP3    H271205   0.259   2.958   0.285 -0.8836  1.4044  0.3460
16572TIP3   OH271206   0.665   2.203   2.001 -0.5781  0.4367  0.0423
16572TIP3    H171207   0.580   2.201   1.958  0.2062 -0.7232 -1.5162
16572TIP3    H271208   0.659   2.136   2.070 -0.8859  0.2699 -0.1472
16573TIP3   OH271209   6.496   1.542  15.583  0.1427 -0.3343  0.8741
16573TIP3    H171210   6.541   1.529  15.499 -2.4666 -1.0371 -0.4847
16573TIP3    H271211   6.499   1.637  15.596 -1.3922  0.0561 -1.2222
16574TIP3   OH271212   2.838   2.858  15.968 -0.6860  0.3219 -0.5807
16574TIP3    H171213   2.832   2.821  15.880 -0.9648  0.0204 -0.4356
16574TIP3    H271214   2.879   2.788  16.020 -3.2425 -0.6388  0.1978
16575TIP3   OH271215   4.849   2.594  14.925 -0.3484  0.3081  0.4784
16575TIP3    H171216   4.942   2.578  14.905 -0.6035 -0.3881 -0.1749
16575TIP3    H271217   4.841   2.575  15.019  0.2007  0.5147  0.5703
16576TIP3   OH271218   1.480   1.838  16.481  0.1077 -0.2440 -0.8808
16576TIP3    H171219   1.477   1.892  16.401  0.0096  1.6181  0.3444
16576TIP3    H271220   1.389   1.834  16.511  0.3943  0.7146  0.1773
16577TIP3   OH271221   2.890   0.614  12.282 -0.3333 -0.3480  0.2226
16577TIP3    H171222   2.797   0.630  12.302 -0.3100 -1.2925  1.1121
16577TIP3    H271223   2.903   0.522  12.302  0.1850 -0.8765 -2.3617
16578TIP3   OH271224   6.131   0.326  13.158 -0.6544  0.6249 -0.2955
16578TIP3    H171225   6.175   0.401  13.119 -0.1530  0.3885 -0.1935
16578TIP3    H271226   6.089   0.281  13.085  0.7297 -0.1173 -0.6399
16579TIP3   OH271227   6.797   5.641  11.519 -0.1897  0.0797  0.3821
16579TIP3    H171228   6.771   5.712  11.461 -1.5280  0.1383  1.0359
16579TIP3    H271229   6.870   5.598  11.474 -0.3650  0.9244 -0.7193
16580TIP3   OH271230   1.748   4.177   2.688 -0.2751  0.4400 -0.4562
16580TIP3    H171231   1.779   4.104   2.741 -0.7597  0.2337 -0.4583
16580TIP3    H271232   1.680   4.219   2.741  1.4546  2.1913  0.4720
16581TIP3   OH271233   0.096   3.928  12.576 -0.1951 -0.1497 -0.2958
16581TIP3    H171234   0.049   3.901  12.655  0.5254 -0.1231  0.1457
16581TIP3    H271235   0.061   3.872  12.507 -0.1464 -0.8240  0.2267
16582TIP3   OH271236   4.949   1.757  15.797  0.3852 -0.2241 -0.4692
16582TIP3    H171237   4.981   1.804  15.720  0.3444  1.3233  0.4506
16582TIP3    H271238   5.025   1.705  15.826  1.4603  1.8010  0.4396
16583TIP3   OH271239   0.393   3.650  13.296 -0.4904 -0.7005 -0.0465
16583TIP3    H171240   0.364   3.559  13.295 -0.7376 -0.6178 -0.6455
16583TIP3    H271241   0.326   3.697  13.246 -0.3093 -0.2057  0.1710
16584TIP3   OH271242   1.589   6.268   1.920  0.1636  0.1976  0.1938
16584TIP3    H171243   1.656   6.250   1.986 -0.2218  0.0136  0.5452
16584TIP3    H271244   1.617   6.221   1.842  1.2113  1.3397 -0.1302
16585TIP3   OH271245   3.945   2.668  12.918 -0.0887  0.4634 -0.3168
16585TIP3    H171246   3.923   2.575  12.929 -2.7977  0.7972 -2.2101
16585TIP3    H271247   3.901   2.712  12.991 -1.0225  0.4919 -0.8760
16586TIP3   OH271248   5.796   1.720  10.933 -0.5452  0.0249 -0.3785
16586TIP3    H171249   5.860   1.651  10.947 -0.4085  0.1987 -0.1517
16586TIP3    H271250   5.840   1.800  10.961 -1.1280  0.0435  0.5067
16587TIP3   OH271251   3.437   6.446  16.171  0.1842  0.3599 -0.0518
16587TIP3    H171252   3.413   6.381  16.105  0.3302  1.1913 -0.9417
16587TIP3    H271253   3.396   6.527  16.141 -1.5200  0.2932  2.0009
16588TIP3   OH271254   5.916   3.723  11.127 -0.1696  0.0507 -0.2974
16588TIP3    H171255   5.848   3.789  11.132  0.4668  0.8425 -1.8677
16588TIP3    H271256   5.991   3.768  11.088  1.3762 -0.7170  1.6688
16589TIP3   OH271257   3.146   2.037   3.397 -0.0628  0.1579  0.2896
16589TIP3    H171258   3.129   2.041   3.303  0.5655 -0.8250  0.1280
16589TIP3    H271259   3.079   2.093   3.436 -0.8248 -0.0685 -0.6770
16590TIP3   OH271260   3.386   2.921  14.811  0.2171  0.8465 -0.6401
16590TIP3    H171261   3.298   2.950  14.833 -0.1140  0.5025 -1.5019
16590TIP3    H271262   3.374   2.860  14.738  0.9072 -1.3688  1.0494
16591TIP3   OH271263   2.206   4.060   1.750  0.3245  0.1000 -0.4601
16591TIP3    H171264   2.172   4.111   1.823 -0.8556 -0.2572 -0.7511
16591TIP3    H271265   2.139   3.995   1.732  1.6822 -1.3905 -0.2836
16592TIP3   OH271266   4.807   3.920   4.500  0.1213  0.1625  0.4333
16592TIP3    H171267   4.796   3.827   4.520 -1.1433  0.4962  1.3549
16592TIP3    H271268   4.828   3.961   4.585 -1.7219  1.0540  0.5051
16593TIP3   OH271269   0.210   3.122   5.711  0.0523 -0.5086  0.1741
16593TIP3    H171270   0.271   3.060   5.672 -1.1048 -0.6124 -1.5394
16593TIP3    H271271   0.124   3.096   5.677 -0.9972 -0.4703  2.6502
16594TIP3   OH271272   5.747   2.694   5.137  0.0505 -0.1287 -0.3251
16594TIP3    H171273   5.820   2.697   5.198  0.5433  0.2061 -0.9273
16594TIP3    H271274   5.726   2.601   5.129 -0.1927 -0.1513  0.5565
16595TIP3   OH271275   0.081   6.014   0.508 -0.2171  0.0094 -0.6429
16595TIP3    H171276   0.064   6.108   0.517 -2.2708 -0.4174  0.1078
16595TIP3    H271277   0.013   5.983   0.448 -1.6640 -1.6020  1.7908
16596TIP3   OH271278   5.845   4.821  12.779  0.7788 -0.1290  0.1428
16596TIP3    H171279   5.770   4.812  12.837 -0.0269 -0.7661 -0.9738
16596TIP3    H271280   5.921   4.829  12.837 -0.1573  0.5983  1.2790
16597TIP3   OH271281   1.895   4.308  11.046 -0.0534  0.7433 -0.0047
16597TIP3    H171282   1.937   4.266  11.122  0.8811  0.5047 -0.6489
16597TIP3    H271283   1.802   4.307  11.067  0.2584  1.3622  1.4893
16598TIP3   OH271284   0.431   2.818  13.022  0.4771  0.1995  0.2032
16598TIP3    H171285   0.342   2.789  13.044  1.2963 -2.0555  0.5916
16598TIP3    H271286   0.419   2.908  12.990 -1.8782  0.1054  0.7276
16599TIP3   OH271287   4.130   4.632   2.969  0.3557 -0.0820  0.7524
16599TIP3    H171288   4.058   4.694   2.982  0.1320 -0.1452 -0.1525
16599TIP3    H271289   4.182   4.670   2.899  0.4076 -0.7489  0.4237
16600TIP3   OH271290   1.284   5.252   4.721  0.4074 -0.2352 -0.0993
16600TIP3    H171291   1.366   5.301   4.722  0.7295 -0.7655  1.7757
16600TIP3    H271292   1.289   5.198   4.642  1.9352 -0.3787  0.0800
16601TIP3   OH271293   1.373   3.061   0.580 -0.8539 -0.1514 -0.5096
16601TIP3    H171294   1.398   3.095   0.494 -2.3809  1.7675 -0.2393
16601TIP3    H271295   1.284   3.027   0.566 -1.5330  1.1532  0.5322
16602TIP3   OH271296   3.529   5.638  16.767  0.4058 -0.1008 -0.2282
16602TIP3    H171297   3.535   5.677  16.854 -0.8859 -0.8843  0.2229
16602TIP3    H271298   3.575   5.700  16.710  0.4371  0.8882  0.8519
16603TIP3   OH271299   6.499   2.437   6.510  0.3293 -0.0100  0.2357
16603TIP3    H171300   6.457   2.366   6.559 -1.7545  0.3489 -0.9533
16603TIP3    H271301   6.513   2.506   6.575 -0.0435 -0.5196  0.8606
16604TIP3   OH271302   1.365   2.339   4.250  0.2232 -0.6382  0.3773
16604TIP3    H171303   1.344   2.286   4.173  0.8386  0.4407 -0.5426
16604TIP3    H271304   1.460   2.348   4.247 -0.0890  2.7332 -0.9782
16605TIP3   OH271305   0.412   1.236  13.676  0.3377  0.6087  0.4387
16605TIP3    H171306   0.395   1.241  13.582  0.8288 -2.0823  0.1650
16605TIP3    H271307   0.488   1.293  13.689  1.4595 -0.4382 -1.1623
16606TIP3   OH271308   4.736   1.744   0.697 -0.2010 -0.0238  0.8311
16606TIP3    H171309   4.807   1.807   0.698 -1.0577  0.9425  1.1336
16606TIP3    H271310   4.780   1.658   0.697  1.0127  0.5411 -2.7599
16607TIP3   OH271311   6.222   3.246  13.004  0.5007  0.3987 -0.1247
16607TIP3    H171312   6.307   3.203  12.993 -0.9074 -2.8914  1.0230
16607TIP3    H271313   6.183   3.244  12.917 -0.0218 -1.8413  0.1271
16608TIP3   OH271314   4.777   4.527   1.906  0.1543 -0.0854 -0.3093
16608TIP3    H171315   4.871   4.527   1.924  0.0962  1.7832  0.0633
16608TIP3    H271316   4.744   4.448   1.948  1.5503 -0.7289 -0.4070
16609TIP3   OH271317   2.968   4.686   2.259 -0.0631  0.2241  0.0520
16609TIP3    H171318   2.930   4.774   2.268 -0.5534 -0.1077  1.3687
16609TIP3    H271319   3.011   4.687   2.174 -0.4324  1.6076 -0.1314
16610TIP3   OH271320   0.919   3.101  12.735  0.0398 -0.1323 -0.2364
16610TIP3    H171321   0.917   3.078  12.642 -0.1520 -0.0965 -0.2431
16610TIP3    H271322   0.885   3.024  12.780  1.7372 -0.7985 -0.0554
16611TIP3   OH271323   2.082   6.599  16.969  0.1997 -0.6435  0.1994
16611TIP3    H171324   2.152   6.597  16.903  1.2683  0.0663  1.2865
16611TIP3    H271325   2.059   6.691  16.976 -2.1740 -1.0704 -1.4971
16612TIP3   OH271326   2.776   2.924   4.737  0.2049 -0.6068 -0.1807
16612TIP3    H171327   2.736   2.869   4.669  0.8835 -2.1194  0.6276
16612TIP3    H271328   2.772   3.012   4.701 -0.8285 -1.1860 -1.5400
16613TIP3   OH271329   3.898   1.444   1.226  0.1561  0.4502  0.4355
16613TIP3    H171330   3.885   1.355   1.259 -0.4722  0.1221 -0.6876
16613TIP3    H271331   3.885   1.500   1.303 -0.9214 -0.3251  0.8294
16614TIP3   OH271332   2.883   5.506  15.948 -0.4020 -0.3984  0.3874
16614TIP3    H171333   2.800   5.546  15.974  0.3679  2.2084 -1.0080
16614TIP3    H271334   2.898   5.437  16.013 -1.0871  2.5140  3.7756
16615TIP3   OH271335   2.204   5.549  11.245 -0.1247 -0.0682  0.5913
16615TIP3    H171336   2.160   5.465  11.233  1.2878 -0.3826 -2.9588
16615TIP3    H271337   2.297   5.529  11.234  0.1561  2.0731 -1.3455
16616TIP3   OH271338   2.286   1.395  12.985 -0.2336 -0.0555 -0.3002
16616TIP3    H171339   2.361   1.453  12.965 -0.3110 -0.2476 -1.1408
16616TIP3    H271340   2.228   1.404  12.910 -0.9316 -0.1250  0.2280
16617TIP3   OH271341   2.925   6.482   0.290  0.0836 -0.2520  0.1129
16617TIP3    H171342   2.890   6.565   0.259  1.2327  0.5552  0.9426
16617TIP3    H271343   2.858   6.449   0.350  0.2359  0.7326  0.8242
16618TIP3   OH271344   3.743   1.414   2.247  0.0131 -0.0437  0.1772
16618TIP3    H171345   3.809   1.438   2.182  1.4640  0.9204  1.9522
16618TIP3    H271346   3.723   1.322   2.229  0.6674  0.1081 -1.3708
16619TIP3   OH271347   2.625   0.384  15.851 -0.0635  0.5452  0.0699
16619TIP3    H171348   2.648   0.477  15.857 -1.2486  0.8642 -0.2394
16619TIP3    H271349   2.562   0.370  15.922  0.0187  0.0069  0.0372
16620TIP3   OH271350   5.113   5.669   2.003 -0.1652 -0.0294  0.0631
16620TIP3    H171351   5.184   5.669   1.938 -0.6041  1.3961 -0.4427
16620TIP3    H271352   5.137   5.739   2.064 -0.9952  0.2532  0.0595
16621TIP3   OH271353   3.573   2.102  11.623  0.0940  0.2613 -0.6068
16621TIP3    H171354   3.498   2.056  11.584  0.8217 -0.0192 -1.7085
16621TIP3    H271355   3.596   2.050  11.700  0.1879 -0.5718 -1.1954
16622TIP3   OH271356   5.321   0.874   1.201 -0.0691  0.3758 -0.2219
16622TIP3    H171357   5.333   0.913   1.288 -1.7267  1.3552 -0.3913
16622TIP3    H271358   5.381   0.800   1.198 -0.8818 -0.4100  2.2309
16623TIP3   OH271359   0.517   1.221  16.028 -0.1547 -0.0578  0.0388
16623TIP3    H171360   0.510   1.151  16.092  0.2157 -0.9984 -0.9461
16623TIP3    H271361   0.608   1.218  15.998 -0.4960 -0.0929 -1.0433
16624TIP3   OH271362   1.340   3.514   3.654  0.2659  0.6726  0.2901
16624TIP3    H171363   1.305   3.554   3.575 -0.9158 -2.0004 -0.6141
16624TIP3    H271364   1.340   3.584   3.719 -0.5463  2.4162 -1.5394
16625TIP3   OH271365   1.463   5.242  14.776 -0.1015  0.0703 -0.8005
16625TIP3    H171366   1.431   5.333  14.786 -1.1260 -0.3420 -0.1527
16625TIP3    H271367   1.404   5.191  14.832  0.2290 -1.0501 -1.4692
16626TIP3   OH271368   2.752   3.483   0.820  0.3870 -0.0641 -0.2728
16626TIP3    H171369   2.800   3.520   0.746  2.0953  0.7543  1.2001
16626TIP3    H271370   2.716   3.559   0.865 -0.8140 -0.5694 -0.3767
16627TIP3   OH271371   0.644   2.215  14.133 -0.2809 -0.3590 -0.1430
16627TIP3    H171372   0.687   2.149  14.188 -1.5933 -1.1986 -0.1162
16627TIP3    H271373   0.582   2.258  14.192 -0.1977  0.1763 -0.4428
16628TIP3   OH271374   0.979   0.023   1.564  0.4907  0.0117 -0.5563
16628TIP3    H171375   0.894   0.029   1.608  1.1946  1.5162  0.6348
16628TIP3    H271376   0.967  -0.047   1.499 -0.5359 -2.4630  2.1530
16629TIP3   OH271377   5.913   5.781   4.050  0.6438  0.5840 -0.9066
16629TIP3    H171378   5.836   5.725   4.058  1.1939 -0.3536 -1.9682
16629TIP3    H271379   5.939   5.800   4.140  0.6638 -1.1782 -0.5251
16630TIP3   OH271380   2.044   2.335   4.913 -0.0267 -0.3678 -0.2187
16630TIP3    H171381   2.022   2.243   4.924  0.4456 -0.3282  1.2118
16630TIP3    H271382   2.056   2.367   5.002  2.2516  0.4815 -0.8074
16631TIP3   OH271383   1.639   6.565  13.717  0.0854 -0.1214 -0.3647
16631TIP3    H171384   1.698   6.633  13.749  2.4582 -1.9178 -0.7659
16631TIP3    H271385   1.607   6.521  13.797  1.5725 -0.9744 -0.2206
16632TIP3   OH271386   5.698   5.885  12.781 -0.0138 -0.1346 -0.7680
16632TIP3    H171387   5.621   5.859  12.731 -0.3319  0.4070 -0.5569
16632TIP3    H271388   5.688   5.980  12.794 -0.9684 -0.6049  2.1234
16633TIP3   OH271389   3.150   3.491   2.019  0.1307  0.2788  0.5593
16633TIP3    H171390   3.081   3.527   1.963 -0.2583  3.0367  2.6919
16633TIP3    H271391   3.107   3.474   2.103  1.2226 -1.5807  0.7859
16634TIP3   OH271392   3.637   5.324  14.253 -0.0654  0.0101 -0.5712
16634TIP3    H171393   3.575   5.368  14.312  0.8953 -0.0266  0.4746
16634TIP3    H271394   3.618   5.361  14.167 -1.2436  0.3258 -0.1887
16635TIP3   OH271395   0.292   2.262  13.535 -0.1812 -0.6548 -0.4413
16635TIP3    H171396   0.351   2.303  13.472 -2.0457 -0.7215 -2.2794
16635TIP3    H271397   0.320   2.170  13.537 -0.4559 -0.7732 -1.6078
16636TIP3   OH271398   2.626   5.825   4.027 -0.4651 -0.0474  0.4873
16636TIP3    H171399   2.570   5.854   4.099 -2.8682 -2.2205 -0.4473
16636TIP3    H271400   2.636   5.902   3.971 -3.4380  0.1058  0.1131
16637TIP3   OH271401   5.208   5.224  15.546  0.8811  0.0104 -0.1628
16637TIP3    H171402   5.141   5.250  15.610  1.4496  0.2941  0.3166
16637TIP3    H271403   5.197   5.288  15.475 -2.5936 -2.8185 -2.3508
16638TIP3   OH271404   1.557   6.586   6.012  0.3213 -0.5463 -0.2493
16638TIP3    H171405   1.545   6.639   5.933 -1.1354  0.1849  0.4526
16638TIP3    H271406   1.523   6.500   5.988 -1.2490  0.0091 -0.0439
16639TIP3   OH271407   6.339   3.152  15.837  0.6779  0.1265 -0.0886
16639TIP3    H171408   6.292   3.194  15.765  0.5492 -1.0952 -0.7371
16639TIP3    H271409   6.287   3.172  15.914 -0.7249 -0.8915 -0.7411
16640TIP3   OH271410   3.322   6.472   1.116  0.8431  0.6167  0.1541
16640TIP3    H171411   3.334   6.389   1.161 -3.8401  0.6015  1.6694
16640TIP3    H271412   3.351   6.455   1.026  0.1493 -2.6207  0.4819
16641TIP3   OH271413   0.962   0.744  12.298  0.2425 -0.1344  0.0401
16641TIP3    H171414   1.003   0.666  12.262 -0.2533 -0.1154 -0.5753
16641TIP3    H271415   1.005   0.757  12.383  3.1237  1.2076 -1.5711
16642TIP3   OH271416   1.508   3.321  14.471  0.1127  0.2649 -0.4315
16642TIP3    H171417   1.489   3.241  14.423  1.0384  0.1500 -0.6028
16642TIP3    H271418   1.431   3.334  14.527 -0.2622 -0.4581 -0.7805
16643TIP3   OH271419   2.060   5.777  15.486 -0.1720  0.0017 -0.0169
16643TIP3    H171420   2.103   5.799  15.404 -0.2485 -1.2039 -0.3866
16643TIP3    H271421   2.103   5.833  15.551 -0.4328  1.3085 -0.9327
16644TIP3   OH271422   1.077   3.234  12.247 -0.0433 -0.1341 -0.0011
16644TIP3    H171423   1.004   3.190  12.292  0.0427 -0.5419 -0.2609
16644TIP3    H271424   1.058   3.222  12.154 -1.2512  2.4046 -0.1113
16645TIP3   OH271425   4.144   1.344  15.505 -0.4272  0.7025 -0.1398
16645TIP3    H171426   4.108   1.432  15.516 -0.0400  0.9378 -0.7011
16645TIP3    H271427   4.178   1.344  15.415  0.3543  0.2572  0.1565
16646TIP3   OH271428   0.432   3.557  14.245 -0.0319 -0.1795  0.1884
16646TIP3    H171429   0.396   3.509  14.171 -0.1544 -0.8089  0.6462
16646TIP3    H271430   0.446   3.489  14.312  2.5546 -0.0694 -0.1905
16647TIP3   OH271431   2.123   2.391   3.916  0.0185 -0.5724 -0.0249
16647TIP3    H171432   2.070   2.461   3.879  1.4572  0.3058 -0.4910
16647TIP3    H271433   2.141   2.419   4.006  0.1777 -0.5719 -0.0552
16648TIP3   OH271434   2.525   6.573  14.843  0.1506  0.1472  0.5094
16648TIP3    H171435   2.614   6.544  14.826  0.6069  0.5757  2.0818
16648TIP3    H271436   2.533   6.638  14.913 -1.2944  0.9060  0.0097
16649TIP3   OH271437   2.701   3.198  15.427  0.1598 -0.2373  0.2872
16649TIP3    H171438   2.720   3.250  15.349 -0.7299 -0.5125 -0.1181
16649TIP3    H271439   2.729   3.253  15.500 -0.7758  0.8177 -0.1392
16650TIP3   OH271440   6.529   2.258  16.059 -0.0467 -0.3594  0.8368
16650TIP3    H171441   6.462   2.288  15.998  2.4461 -0.2183 -1.9782
16650TIP3    H271442   6.577   2.337  16.084  1.2392 -0.8610  0.0363
16651TIP3   OH271443   0.044   2.349   1.356 -0.0454 -0.2707  0.4174
16651TIP3    H171444  -0.005   2.270   1.336 -1.5891  0.1829  2.2371
16651TIP3    H271445   0.115   2.320   1.413  0.8655 -0.6935 -0.9192
16652TIP3   OH271446   1.227   1.799   3.639  0.1652  0.1070  0.2144
16652TIP3    H171447   1.231   1.724   3.698  0.3884  1.3218  1.7836
16652TIP3    H271448   1.316   1.835   3.639  0.3438 -0.2939 -1.4396
16653TIP3   OH271449   2.897   5.028  16.276 -0.0267 -0.3309 -0.0332
16653TIP3    H171450   2.882   4.946  16.230 -0.3113 -1.5825  2.2348
16653TIP3    H271451   2.989   5.023  16.305 -0.0087  0.1987  0.0102
16654TIP3   OH271452   3.098   5.849  16.778 -0.1925  0.0565 -0.7921
16654TIP3    H171453   3.003   5.854  16.790  0.0378 -0.5223  1.5072
16654TIP3    H271454   3.133   5.911  16.841  0.9990 -0.4339 -0.9673
16655TIP3   OH271455   6.746   4.503   5.707 -0.4345  0.0897 -0.4412
16655TIP3    H171456   6.680   4.477   5.643 -0.4929 -0.5951 -0.1124
16655TIP3    H271457   6.702   4.492   5.792  0.3137 -1.0320 -0.1802
16656TIP3   OH271458   4.078   2.294  16.192 -0.2996 -0.2014  0.2564
16656TIP3    H171459   4.098   2.383  16.219 -0.1433  0.3071 -1.4374
16656TIP3    H271460   3.990   2.300  16.154  0.3993 -0.3910 -1.4552
16657TIP3   OH271461   3.231   6.352   3.361  0.1857  0.1581  0.6478
16657TIP3    H171462   3.202   6.261   3.367 -1.7986  0.6790 -0.3907
16657TIP3    H271463   3.157   6.397   3.321  1.8670  1.8824 -0.5948
16658TIP3   OH271464   0.457   2.146   0.739 -0.0810 -0.4565 -0.1762
16658TIP3    H171465   0.504   2.143   0.822 -1.9600 -1.7230  0.8604
16658TIP3    H271466   0.390   2.213   0.751  1.0891  1.0003 -1.4923
16659TIP3   OH271467   5.329   6.527  12.191  0.0635 -0.2365  0.9431
16659TIP3    H171468   5.370   6.443  12.172 -0.6833 -0.3346 -0.3359
16659TIP3    H271469   5.368   6.556  12.273  0.9106 -1.4541  0.9724
16660TIP3   OH271470   5.654   2.526   1.100 -0.1128 -0.2278 -0.2128
16660TIP3    H171471   5.576   2.473   1.082 -0.1882  0.4976 -2.1421
16660TIP3    H271472   5.720   2.462   1.127 -1.7565 -0.7037  2.9201
16661TIP3   OH271473   2.709   3.592   0.550 -0.2755 -0.1215  0.1593
16661TIP3    H171474   2.614   3.608   0.553 -0.6125 -1.2165 -2.6513
16661TIP3    H271475   2.746   3.675   0.522 -0.6348 -0.2903 -0.8393
16662TIP3   OH271476   4.040   1.249   4.266 -0.2383 -0.5582 -0.8663
16662TIP3    H171477   3.956   1.276   4.303  1.6139  0.2021  3.0162
16662TIP3    H271478   4.062   1.168   4.311  1.1437 -0.6905 -1.7483
16663TIP3   OH271479   2.632   3.741  17.146 -0.3737  0.7515  0.2018
16663TIP3    H171480   2.659   3.735  17.054  1.2733  0.5109  0.6940
16663TIP3    H271481   2.602   3.831  17.156 -1.0666  0.6319 -0.7001
16664TIP3   OH271482   4.178   4.271  17.015  0.1651 -0.2639 -0.5761
16664TIP3    H171483   4.213   4.213  17.083  0.7032  1.9506  1.0839
16664TIP3    H271484   4.093   4.299  17.049  1.2229  2.2937  0.0815
16665TIP3   OH271485   3.345   5.196  11.893  0.4726 -0.1585  0.0887
16665TIP3    H171486   3.290   5.138  11.840  0.9533 -0.3755 -0.1773
16665TIP3    H271487   3.432   5.157  11.889  0.8838  0.7945 -0.4176
16666TIP3   OH271488   0.546   3.073  13.457 -0.1187 -0.3113 -0.5403
16666TIP3    H171489   0.561   2.984  13.488  0.6945  0.1060  0.2782
16666TIP3    H271490   0.577   3.071  13.366  3.6740  0.1339  0.6408
16667TIP3   OH271491   2.855   0.984   1.183 -0.5982  0.7380 -0.0055
16667TIP3    H171492   2.887   1.018   1.267  0.0376  1.1930 -0.4245
16667TIP3    H271493   2.934   0.962   1.134 -0.9666  0.4784 -0.4892
16668TIP3   OH271494   5.825   6.112  11.572 -0.1376 -0.2667 -0.1555
16668TIP3    H171495   5.768   6.102  11.649  0.9409  0.0530  0.7014
16668TIP3    H271496   5.775   6.169  11.514 -1.2489 -1.0396  0.0151
16669TIP3   OH271497   0.259   5.386   3.253  0.4136  0.2915 -0.2175
16669TIP3    H171498   0.211   5.332   3.190 -1.2718  1.2632  0.1977
16669TIP3    H271499   0.338   5.412   3.206 -0.7649  0.9192 -1.9266
16670TIP3   OH271500   0.491   2.571   4.182 -0.4319 -0.1557  0.1429
16670TIP3    H171501   0.576   2.575   4.138 -1.3082 -3.1745 -1.9672
16670TIP3    H271502   0.504   2.618   4.264  3.1422 -0.1789 -0.3465
16671TIP3   OH271503   3.782   3.994   5.091  0.1438  0.3201  0.2333
16671TIP3    H171504   3.782   3.999   4.996  1.0919  1.7392  0.2878
16671TIP3    H271505   3.705   4.044   5.118  0.6611  1.1169  0.2496
16672TIP3   OH271506   2.978   3.398   1.446  0.2553 -0.0141 -0.0775
16672TIP3    H171507   2.910   3.448   1.401 -1.8791 -2.4796  0.2888
16672TIP3    H271508   3.019   3.346   1.376  0.3841 -0.0285  0.0102
16673TIP3   OH271509   0.021   6.150   1.546  0.6124  0.1064 -0.4191
16673TIP3    H171510   0.094   6.180   1.601 -0.1115 -0.8816  1.1452
16673TIP3    H271511  -0.020   6.230   1.514  1.6360  0.6864 -0.2924
16674TIP3   OH271512   3.279   2.099  13.613  0.6552  0.4626 -0.0873
16674TIP3    H171513   3.350   2.104  13.549 -1.0070  0.8995 -1.9087
16674TIP3    H271514   3.316   2.140  13.692  2.2492  1.1738 -1.1693
16675TIP3   OH271515   4.549   0.607  16.753 -0.1057 -0.0625 -0.5258
16675TIP3    H171516   4.486   0.673  16.725  0.8504  1.1761  0.1709
16675TIP3    H271517   4.508   0.564  16.828 -0.5929 -0.0231 -0.7668
16676TIP3   OH271518   1.634   0.926   0.056 -0.1804  0.3217 -0.3455
16676TIP3    H171519   1.728   0.942   0.047 -0.0495 -0.2421 -0.0179
16676TIP3    H271520   1.593   0.991  -0.001  0.3771  1.0166  0.0352
16677TIP3   OH271521   2.751   6.482  13.540  0.2587 -0.7778  0.0109
16677TIP3    H171522   2.765   6.403  13.488 -1.5838 -0.3422 -1.2174
16677TIP3    H271523   2.738   6.551  13.475 -0.5932  0.0620  1.0600
16678TIP3   OH271524   4.697   5.092  17.201 -0.3807  0.5905 -0.1458
16678TIP3    H171525   4.648   5.013  17.225  0.0798  0.3942  0.1687
16678TIP3    H271526   4.715   5.082  17.107  1.0778 -0.4770  0.2213
16679TIP3   OH271527   3.203   3.501  16.777 -0.2884 -0.2909 -0.3494
16679TIP3    H171528   3.199   3.466  16.866  0.7450  1.8323  0.5587
16679TIP3    H271529   3.251   3.584  16.786 -1.3208  0.5869 -2.6810
16680TIP3   OH271530   0.019   1.297   5.317 -0.2443 -0.3917 -0.1853
16680TIP3    H171531   0.061   1.379   5.341  2.0700 -1.0884 -1.6683
16680TIP3    H271532  -0.036   1.320   5.242 -0.9140  0.1191  0.4551
16681TIP3   OH271533   4.086   2.942   2.973 -0.5309 -0.6530  0.3145
16681TIP3    H171534   4.058   3.028   2.942 -1.6548 -0.6333  1.3387
16681TIP3    H271535   4.096   2.890   2.893  1.7832  0.8729 -0.4342
16682TIP3   OH271536   2.465   1.863  14.602 -0.7843 -0.5743 -0.1697
16682TIP3    H171537   2.395   1.843  14.664 -1.7269 -1.4405 -1.4829
16682TIP3    H271538   2.420   1.903  14.527  0.4725  1.6121  0.1772
16683TIP3   OH271539   6.815   6.425   3.754 -0.2213 -0.2995  0.3806
16683TIP3    H171540   6.719   6.417   3.755 -0.2097 -0.4226  0.5064
16683TIP3    H271541   6.831   6.514   3.722 -0.3529 -0.8069 -1.1788
16684TIP3   OH271542   2.052   6.200   0.644  0.4210 -0.2244 -0.3747
16684TIP3    H171543   2.132   6.157   0.675  1.4374  0.8457 -1.4394
16684TIP3    H271544   2.016   6.139   0.580  0.6453 -0.4890 -0.2542
16685TIP3   OH271545   6.653   6.379  15.884  0.2399  0.1711 -0.3377
16685TIP3    H171546   6.600   6.327  15.824  1.3701 -0.8705 -0.4598
16685TIP3    H271547   6.652   6.468  15.848 -1.7050  0.2391 -0.1263
16686TIP3   OH271548   3.248   0.035   5.598 -0.6159 -0.3317  0.4015
16686TIP3    H171549   3.243  -0.002   5.687  3.3992 -2.9810 -0.3025
16686TIP3    H271550   3.296   0.117   5.610 -1.1667 -0.0707  0.8415
16687TIP3   OH271551   6.342   5.717  15.707  0.2380 -0.2858  0.2004
16687TIP3    H171552   6.268   5.704  15.766  1.5833  1.3779  2.3272
16687TIP3    H271553   6.392   5.635  15.712 -0.9725 -1.0762 -0.5575
16688TIP3   OH271554   3.328   5.838   3.700  0.1680  0.6009 -0.2646
16688TIP3    H171555   3.271   5.802   3.633 -3.3353  0.8979  2.4098
16688TIP3    H271556   3.292   5.925   3.718  1.7858  1.0152  1.1286
16689TIP3   OH271557   3.528   5.131   0.478 -0.6676 -0.2084  0.0338
16689TIP3    H171558   3.568   5.143   0.392 -0.3041  0.2765  0.2696
16689TIP3    H271559   3.512   5.219   0.510 -0.8756 -0.3876  0.4297
16690TIP3   OH271560   6.413   0.648   3.851 -0.2145  0.1213 -0.4826
16690TIP3    H171561   6.368   0.569   3.820 -0.2803 -0.9932  2.3133
16690TIP3    H271562   6.345   0.715   3.853 -0.5216 -0.1575 -1.3596
16691TIP3   OH271563   0.225   4.171  13.245 -0.0487  0.5911 -0.1987
16691TIP3    H171564   0.155   4.213  13.196 -0.7769  1.4169  1.5191
16691TIP3    H271565   0.182   4.107  13.301  0.4207  1.8418  1.6445
16692TIP3   OH271566   2.272   4.645   2.942 -0.2550 -0.6787 -0.5883
16692TIP3    H171567   2.328   4.589   2.996  1.7329  1.7270 -0.0457
16692TIP3    H271568   2.210   4.683   3.004 -0.0616 -0.4203 -0.5546
16693TIP3   OH271569   4.095   3.701  15.658 -0.0739  0.0426 -0.3176
16693TIP3    H171570   4.101   3.796  15.654 -1.4052  0.1367 -0.4110
16693TIP3    H271571   4.019   3.679  15.604 -0.9943 -0.8972  1.3036
16694TIP3   OH271572   1.541   2.323  13.508  0.6799  0.0806 -0.4045
16694TIP3    H171573   1.499   2.408  13.493  1.2323  0.2646 -0.9748
16694TIP3    H271574   1.496   2.264  13.448  0.5883  0.0693 -0.3245
16695TIP3   OH271575   0.831   2.275   4.140 -0.5545  0.0488  0.1536
16695TIP3    H171576   0.791   2.343   4.086  0.8183 -0.8575 -2.0642
16695TIP3    H271577   0.900   2.237   4.085  0.9411 -0.8720  2.5696
16696TIP3   OH271578   3.411   5.254  15.812  0.2710 -0.2421  0.4572
16696TIP3    H171579   3.355   5.267  15.735 -1.6949 -0.7328  1.7440
16696TIP3    H271580   3.483   5.316  15.801 -1.1421  1.2454 -0.7012
16697TIP3   OH271581   4.585   2.719  14.768  0.3773  0.1966  0.1000
16697TIP3    H171582   4.638   2.692  14.843 -0.3024 -1.3040  0.0716
16697TIP3    H271583   4.606   2.811  14.755  1.8940 -0.0158  0.9758
16698TIP3   OH271584   4.416   0.826   2.059  0.0161  0.2833  0.5428
16698TIP3    H171585   4.342   0.799   2.113 -0.1274 -0.1619  0.1343
16698TIP3    H271586   4.398   0.917   2.037  0.1444  0.4990  1.3585
16699TIP3   OH271587   6.158   2.877  13.198 -0.3716 -0.0485 -0.0565
16699TIP3    H171588   6.077   2.927  13.184  0.1850  1.1565  0.8571
16699TIP3    H271589   6.128   2.788  13.215 -1.3421 -0.2484 -2.6337
16700TIP3   OH271590   3.473   2.410  11.802 -0.3994  0.0169  0.3235
16700TIP3    H171591   3.464   2.334  11.861  1.5386 -0.8881 -0.4856
16700TIP3    H271592   3.454   2.486  11.858 -0.2579 -0.9247  1.6928
16701TIP3   OH271593   0.593   3.796  14.598  0.3677 -0.1492  0.0706
16701TIP3    H171594   0.593   3.702  14.616 -0.3737 -0.1151  0.2647
16701TIP3    H271595   0.682   3.814  14.567  1.0327 -0.6083  1.6364
16702TIP3   OH271596   3.936   1.540   1.739 -0.3615 -0.0167  0.0925
16702TIP3    H171597   3.957   1.477   1.670  0.7132  0.5741 -0.1297
16702TIP3    H271598   3.842   1.555   1.731 -0.0038  1.1598 -2.1742
16703TIP3   OH271599   0.872   2.821  12.380  0.0731 -0.7463 -0.2186
16703TIP3    H171600   0.858   2.784  12.293 -2.1057 -0.3932 -0.0460
16703TIP3    H271601   0.794   2.797  12.430  1.0344 -0.4513  1.4828
16704TIP3   OH271602   3.376   0.663   0.604  0.1178  0.0100 -0.5531
16704TIP3    H171603   3.366   0.616   0.687 -0.6255  0.6506 -0.2800
16704TIP3    H271604   3.325   0.743   0.614 -1.2666 -0.6395 -2.1898
16705TIP3   OH271605   2.306   0.483  15.117  0.4250  0.3969 -0.0987
16705TIP3    H171606   2.261   0.458  15.036  1.3050  0.6136 -0.6555
16705TIP3    H271607   2.235   0.514  15.174 -0.1814  0.4418 -0.8596
16706TIP3   OH271608   2.782   6.242  15.200  0.4182 -0.5933  0.5829
16706TIP3    H171609   2.730   6.216  15.276  0.0121 -0.5728  0.3132
16706TIP3    H271610   2.718   6.255  15.130  0.3945  2.8385  1.1749
16707TIP3   OH271611   6.204   0.392   2.145  0.9199 -0.2405  0.2949
16707TIP3    H171612   6.215   0.461   2.211  1.8490  0.3308 -0.4505
16707TIP3    H271613   6.272   0.328   2.167  0.0034 -0.9883  1.0406
16708TIP3   OH271614   6.460   3.788   6.572  0.5555 -0.4452 -0.2706
16708TIP3    H171615   6.517   3.776   6.649 -2.3994  0.8190  2.2224
16708TIP3    H271616   6.424   3.701   6.555  1.3585 -0.7673 -0.3233
16709TIP3   OH271617   6.573   5.715   3.915  0.2212  0.2764  0.0017
16709TIP3    H171618   6.598   5.751   4.000  1.0844 -0.5768  0.1106
16709TIP3    H271619   6.549   5.624   3.933  0.2851  0.1287 -0.6557
16710TIP3   OH271620   4.948   2.465   0.701  0.2156  0.1484  0.1128
16710TIP3    H171621   4.952   2.559   0.721 -2.5579  0.6420 -1.3890
16710TIP3    H271622   4.867   2.435   0.743  0.3858 -1.2805 -0.5477
16711TIP3   OH271623   2.967   1.778   0.674 -0.4881 -0.5881 -0.2058
16711TIP3    H171624   2.978   1.710   0.740  0.0268 -0.6091 -0.3049
16711TIP3    H271625   2.925   1.735   0.600  0.4142 -0.9618 -0.5162
16712TIP3   OH271626   4.444   4.143  16.924 -0.0297 -0.0113  0.0881
16712TIP3    H171627   4.389   4.184  16.857 -0.5246  2.6472  2.0403
16712TIP3    H271628   4.529   4.133  16.882 -0.9328 -0.4821 -1.6799
16713TIP3   OH271629   0.666   4.631   0.306 -0.3510  0.1459 -0.5641
16713TIP3    H171630   0.634   4.542   0.319  1.1449 -0.3265 -0.0401
16713TIP3    H271631   0.705   4.630   0.218  1.1357 -0.1841  0.0761
16714TIP3   OH271632   5.506   4.140  11.522 -0.6612 -0.0960 -0.2769
16714TIP3    H171633   5.520   4.229  11.491  2.0981 -0.3742  0.0080
16714TIP3    H271634   5.525   4.144  11.616  0.2737 -1.1167 -0.4107
16715TIP3   OH271635   5.913   1.399   5.880 -0.0418  0.0552 -0.5103
16715TIP3    H171636   5.911   1.393   5.784 -0.6752  1.7457 -0.6286
16715TIP3    H271637   5.942   1.489   5.897 -0.1007 -0.1845  0.8934
16716TIP3   OH271638   5.081   3.668  11.419 -0.0551  0.0397  0.1387
16716TIP3    H171639   5.023   3.743  11.409  1.6365  1.1758 -1.6957
16716TIP3    H271640   5.137   3.691  11.493 -0.5356 -0.0976  0.5458
16717TIP3   OH271641   5.162   3.900   4.948 -0.0740  0.7201 -0.2026
16717TIP3    H171642   5.110   3.826   4.917 -1.2616  1.2829  0.4132
16717TIP3    H271643   5.203   3.868   5.028 -0.6465  0.7483  0.1041
16718TIP3   OH271644   4.385   0.417  13.937  0.0276  0.3466  0.3536
16718TIP3    H171645   4.444   0.371  13.878 -1.3358  0.5355 -1.2040
16718TIP3    H271646   4.436   0.489  13.971  1.3388 -0.7194  0.6682
16719TIP3   OH271647   3.119   3.553  16.096  0.7151 -0.1860 -0.1790
16719TIP3    H171648   3.038   3.505  16.078  1.0785 -0.1385 -1.9921
16719TIP3    H271649   3.146   3.588  16.011  2.1551  0.5746  0.5708
16720TIP3   OH271650   4.672   0.692  13.546 -0.2932  0.4869  0.2257
16720TIP3    H171651   4.586   0.666  13.577 -0.6256  1.7780  0.4170
16720TIP3    H271652   4.669   0.679  13.451 -0.4968 -0.0170  0.2978
16721TIP3   OH271653   1.571   0.458  12.175 -0.4953 -0.2900 -0.6175
16721TIP3    H171654   1.629   0.401  12.225  0.0240  0.2077 -0.6508
16721TIP3    H271655   1.629   0.503  12.114 -0.5742  1.9094  0.8877
16722TIP3   OH271656   2.365   5.036   0.728 -0.1715  0.3880  0.0169
16722TIP3    H171657   2.324   5.119   0.751  1.0698  1.3592 -1.1663
16722TIP3    H271658   2.305   4.996   0.665  0.3491  1.5311 -1.2606
16723TIP3   OH271659   1.975   5.977   4.709  0.0548  0.1890 -0.1373
16723TIP3    H171660   2.029   5.953   4.634  3.7077  1.1072  2.0888
16723TIP3    H271661   1.963   5.896   4.758 -0.4084  0.0409 -0.4884
16724TIP3   OH271662   3.918   1.874   2.464  0.0203  0.4098  0.0811
16724TIP3    H171663   3.997   1.916   2.430 -0.4266  1.4236  0.2606
16724TIP3    H271664   3.923   1.784   2.433  1.3705  0.4043  0.3077
16725TIP3   OH271665   0.650   2.247   0.413  0.4499  0.2237 -0.1264
16725TIP3    H171666   0.601   2.314   0.460  1.1822  0.1856  0.7031
16725TIP3    H271667   0.605   2.239   0.329 -2.5721 -1.7022  1.5893
16726TIP3   OH271668   4.215   0.460  10.964 -0.4911  0.3086  0.5023
16726TIP3    H171669   4.165   0.437  10.886 -1.0061 -1.2323  1.2697
16726TIP3    H271670   4.275   0.529  10.934 -0.2943 -0.6361 -1.3924
16727TIP3   OH271671   1.661   2.522   1.740  0.1221 -0.1474 -0.5844
16727TIP3    H171672   1.641   2.451   1.680 -2.7276  0.7951 -0.8455
16727TIP3    H271673   1.703   2.589   1.686  3.1897 -1.7272 -0.2575
16728TIP3   OH271674   0.181   4.746   2.589 -0.1386  0.0529 -0.3443
16728TIP3    H171675   0.169   4.759   2.495 -0.5377 -1.9832 -0.5978
16728TIP3    H271676   0.231   4.665   2.596 -1.1201 -0.4392  1.2442
16729TIP3   OH271677   1.826   4.678  16.949  0.8237 -0.2791  0.2715
16729TIP3    H171678   1.852   4.617  17.018  0.4449  0.5336  1.1343
16729TIP3    H271679   1.760   4.735  16.989  1.2443  0.7745 -0.4889
16730TIP3   OH271680   5.001   2.856   5.530  0.2927  0.0922 -0.2049
16730TIP3    H171681   4.968   2.895   5.450 -0.4515 -1.5746 -0.7358
16730TIP3    H271682   5.071   2.797   5.502 -1.0685 -1.7471  0.1669
16731TIP3   OH271683   3.370   2.763   3.724 -0.3750  0.0618 -0.2575
16731TIP3    H171684   3.421   2.842   3.705 -1.9072  1.3523  0.8972
16731TIP3    H271685   3.310   2.789   3.793 -0.6725 -2.2297  0.3924
16732TIP3   OH271686   3.264   2.549  11.709  0.0347 -0.0745  0.0923
16732TIP3    H171687   3.224   2.574  11.792 -0.4559  1.1631 -0.5080
16732TIP3    H271688   3.337   2.493  11.734  1.0229  1.7673  1.4845
16733TIP3   OH271689   3.011   2.605   6.332  0.7600 -0.2039  0.4415
16733TIP3    H171690   3.003   2.518   6.370  2.6266 -1.4292 -1.8384
16733TIP3    H271691   3.096   2.636   6.359  1.5673 -0.5649 -1.5496
16734TIP3   OH271692   4.805   0.747   1.511  0.0329 -0.0949 -0.2532
16734TIP3    H171693   4.864   0.701   1.451 -1.2746 -2.1004 -0.0602
16734TIP3    H271694   4.786   0.683   1.580 -1.6324  0.8326  0.1814
16735TIP3   OH271695   6.431   1.074  11.254  0.4187 -0.0810  0.3700
16735TIP3    H171696   6.499   1.033  11.309  1.0771  1.1453  0.5003
16735TIP3    H271697   6.417   1.160  11.294  0.7478  0.7482 -1.2508
16736TIP3   OH271698   3.541   6.101  15.456  0.8256 -0.2453 -0.1052
16736TIP3    H171699   3.592   6.131  15.381 -0.7358  0.3910 -0.9448
16736TIP3    H271700   3.604   6.096  15.528  2.7126 -2.5067 -1.8378
16737TIP3   OH271701   6.750   5.594  12.199 -0.4235  0.2001  0.5685
16737TIP3    H171702   6.797   5.561  12.122 -1.3277 -0.5601  0.3220
16737TIP3    H271703   6.787   5.547  12.273  0.2798  0.7537  0.5740
16738TIP3   OH271704   4.614   2.106   4.208  0.4549  0.2096 -0.0397
16738TIP3    H171705   4.549   2.138   4.145  0.9543 -0.0191 -0.6790
16738TIP3    H271706   4.564   2.091   4.289 -0.0538  1.2056 -0.1573
16739TIP3   OH271707   4.949   0.747  14.213  0.5904 -0.0984 -0.2953
16739TIP3    H171708   4.857   0.757  14.239  0.9372 -0.6515  1.2022
16739TIP3    H271709   4.997   0.740  14.296  1.8890 -0.6668 -1.0730
16740TIP3   OH271710   0.488   2.842  14.957 -0.0987  0.1820  0.3581
16740TIP3    H171711   0.406   2.794  14.955 -0.1457  0.2753 -2.9587
16740TIP3    H271712   0.462   2.934  14.966 -0.3687  0.2204 -0.7948
16741TIP3   OH271713   6.287   4.052   1.389 -0.2627 -0.4918 -0.4302
16741TIP3    H171714   6.265   4.129   1.441  1.3034  0.5717 -1.2884
16741TIP3    H271715   6.334   3.995   1.449 -0.0177 -0.0527 -0.1999
16742TIP3   OH271716   3.683   3.238   3.191  0.1890  0.3117 -0.1775
16742TIP3    H171717   3.737   3.232   3.270 -0.4957  0.0623  0.2801
16742TIP3    H271718   3.659   3.147   3.172 -2.1999  0.6249  1.1322
16743TIP3   OH271719   4.293   6.142   5.453 -0.5213  0.0541 -0.6741
16743TIP3    H171720   4.342   6.102   5.380 -0.9083 -1.2910 -0.2055
16743TIP3    H271721   4.361   6.182   5.507  0.0401 -1.3237 -0.3250
16744TIP3   OH271722   3.291   6.287   0.266 -0.4524 -0.1758  0.0376
16744TIP3    H171723   3.282   6.198   0.300  1.6250  0.0161  1.1338
16744TIP3    H271724   3.250   6.343   0.332 -2.5211 -0.3367 -1.0441
16745TIP3   OH271725   4.012   1.277  13.530  0.4079 -0.0027  0.2060
16745TIP3    H171726   4.096   1.314  13.556  0.8922 -0.7214 -0.3049
16745TIP3    H271727   4.026   1.182  13.532 -0.7757 -0.1637  1.3633
16746TIP3   OH271728   0.771   5.120   3.141  0.2618  0.3838 -0.5895
16746TIP3    H171729   0.840   5.054   3.147 -0.3621 -0.3402 -1.1989
16746TIP3    H271730   0.795   5.172   3.065  0.3098  0.3296 -0.6119
16747TIP3   OH271731   0.989   0.889   4.886  0.5511  0.3499 -0.3064
16747TIP3    H171732   0.915   0.947   4.873  0.1337 -0.1822 -0.3146
16747TIP3    H271733   1.044   0.902   4.809  0.5586  0.8713 -0.2154
16748TIP3   OH271734   2.140   0.258   3.186  0.0102 -0.4073  0.3072
16748TIP3    H171735   2.221   0.264   3.238  0.8828 -0.5418 -1.0061
16748TIP3    H271736   2.144   0.333   3.128 -0.6936 -0.5644  0.0561
16749TIP3   OH271737   2.063   4.070   5.124 -0.1829 -0.3380  0.1932
16749TIP3    H171738   2.084   4.162   5.109 -0.9986 -0.0489  0.7985
16749TIP3    H271739   1.968   4.068   5.131 -0.5049 -1.8224 -3.7348
16750TIP3   OH271740   5.960   4.390  10.899  0.3645  0.2533 -0.2672
16750TIP3    H171741   6.008   4.457  10.850  1.7473 -0.5143  0.0317
16750TIP3    H271742   6.009   4.309  10.885 -0.5719 -0.4499  0.4264
16751TIP3   OH271743   6.169   1.601   4.848  0.3745 -0.2660 -0.4483
16751TIP3    H171744   6.183   1.532   4.783  0.3139 -0.9362  0.2495
16751TIP3    H271745   6.252   1.650   4.849  1.1118 -1.5216  0.4626
16752TIP3   OH271746   0.538   5.522  13.908 -0.4430  0.2741  0.3576
16752TIP3    H171747   0.561   5.430  13.923 -1.6961 -0.0766  0.2167
16752TIP3    H271748   0.607   5.572  13.951  0.1149 -0.7366  0.6413
16753TIP3   OH271749   5.508   0.269   5.055 -0.0071 -0.6513  0.2437
16753TIP3    H171750   5.521   0.300   5.144  0.5922 -0.3236  0.0430
16753TIP3    H271751   5.421   0.230   5.056  0.0701 -0.8105  1.0167
16754TIP3   OH271752   4.522   1.481   4.684  0.2056  0.2181  0.8541
16754TIP3    H171753   4.534   1.527   4.767 -0.5549  2.0313 -0.0201
16754TIP3    H271754   4.462   1.536   4.634 -0.1720 -1.3792 -0.5008
16755TIP3   OH271755   6.718   5.703   1.570  0.2209 -0.0176  0.0103
16755TIP3    H171756   6.758   5.787   1.546 -1.1680  0.9241  0.9016
16755TIP3    H271757   6.721   5.701   1.666  0.8842 -1.3187 -0.0224
16756TIP3   OH271758   6.499   6.218   0.546 -0.3788 -0.9378 -0.1678
16756TIP3    H171759   6.511   6.139   0.599  1.0270  0.1123  1.1248
16756TIP3    H271760   6.588   6.245   0.523 -0.9007 -0.3210 -1.4993
16757TIP3   OH271761   2.036   0.536   0.579 -0.1079 -0.0133  0.1140
16757TIP3    H171762   2.096   0.473   0.540 -1.2035 -0.7215 -0.4526
16757TIP3    H271763   2.074   0.621   0.559  1.0251 -0.4641  0.2875
16758TIP3   OH271764   2.303   3.016  15.208  0.5585 -0.4132 -0.3316
16758TIP3    H171765   2.269   3.101  15.237 -1.4677 -1.4968  0.5417
16758TIP3    H271766   2.359   2.987  15.280  0.9967  0.0168 -0.4925
16759TIP3   OH271767   6.463   6.699   4.693 -0.1735  0.3097 -0.8211
16759TIP3    H171768   6.401   6.770   4.676 -0.8200 -0.2898 -0.9949
16759TIP3    H271769   6.523   6.734   4.759 -1.6727  0.3317  0.5538
16760TIP3   OH271770   3.929   1.216  14.672 -0.2284 -0.0508 -0.0344
16760TIP3    H171771   3.964   1.225  14.761  1.5897 -1.8698 -0.5321
16760TIP3    H271772   3.891   1.302  14.653  0.3032  0.6982  2.0994
16761TIP3   OH271773   0.794   5.126  12.153  0.0179 -0.6887  0.1037
16761TIP3    H171774   0.877   5.174  12.156  1.5081 -3.2282  1.7511
16761TIP3    H271775   0.786   5.099  12.062  0.5378  0.3303 -0.2541
16762TIP3   OH271776   6.349   6.656   1.842 -0.0858 -0.2845  0.8636
16762TIP3    H171777   6.366   6.720   1.911 -0.6608  1.5804 -0.6762
16762TIP3    H271778   6.377   6.700   1.762 -0.2945 -2.0654 -0.2050
16763TIP3   OH271779   6.132   0.469  14.488 -0.0279  0.1295  0.1110
16763TIP3    H171780   6.100   0.515  14.565  0.8054 -0.1570  0.6404
16763TIP3    H271781   6.198   0.527  14.450 -2.0483  1.3062 -1.7230
16764TIP3   OH271782   6.309   2.698   2.697 -0.4491  0.3771  0.1674
16764TIP3    H171783   6.235   2.638   2.709  1.6775 -2.2228  0.8105
16764TIP3    H271784   6.344   2.710   2.785  0.9054  0.2062 -0.3343
16765TIP3   OH271785   5.629   3.837  14.856  0.6424 -0.2670 -0.2331
16765TIP3    H171786   5.696   3.895  14.893  1.3718 -0.1576 -1.6689
16765TIP3    H271787   5.550   3.891  14.854  0.5982 -0.2654  1.1001
16766TIP3   OH271788   1.747   2.322  14.191 -0.1653  0.8344 -0.0710
16766TIP3    H171789   1.757   2.230  14.168  1.8544  1.1201 -0.3820
16766TIP3    H271790   1.833   2.349  14.222 -0.6648  2.7027 -0.2459
16767TIP3   OH271791   3.893   0.050   0.447  0.5242 -0.1013 -0.1133
16767TIP3    H171792   3.890   0.008   0.361  1.8500  2.9248 -1.7028
16767TIP3    H271793   3.984   0.077   0.457  0.6756 -1.4856  2.8240
16768TIP3   OH271794   3.395   2.286  13.782  0.3370 -0.5101 -0.1608
16768TIP3    H171795   3.338   2.349  13.825  1.2964  0.4591 -0.2971
16768TIP3    H271796   3.480   2.296  13.825  1.2371  0.2630 -2.0444
16769TIP3   OH271797   3.656   3.540   6.309 -0.1609  0.2083 -0.0279
16769TIP3    H171798   3.604   3.460   6.320  0.3782  0.0502  1.5115
16769TIP3    H271799   3.743   3.517   6.342 -0.3997  1.8687  1.8297
16770TIP3   OH271800   1.533   3.144   4.232  0.2372 -0.1246  0.3213
16770TIP3    H171801   1.611   3.122   4.283 -0.5747 -2.0027  0.7969
16770TIP3    H271802   1.567   3.187   4.154  1.9677 -3.4661 -0.8535
16771TIP3   OH271803   4.682   6.409  15.762  1.0637  0.9811  0.8301
16771TIP3    H171804   4.704   6.404  15.855  0.4039 -0.9967  0.9107
16771TIP3    H271805   4.649   6.497  15.749  0.9841  1.2110  2.5126
16772TIP3   OH271806   0.026   3.826  11.772  0.2583  0.1344  0.2335
16772TIP3    H171807  -0.013   3.857  11.854 -1.8939 -2.3848  0.2198
16772TIP3    H271808  -0.004   3.889  11.706 -1.8437 -0.3870  0.6430
16773TIP3   OH271809   4.845   0.276  13.690 -0.2944 -0.3812  0.2929
16773TIP3    H171810   4.851   0.291  13.784 -1.5335  2.7072 -0.0754
16773TIP3    H271811   4.924   0.316  13.654 -0.3055 -0.6820 -0.0706
16774TIP3   OH271812   2.108   1.801   3.928  0.3217 -0.4333 -0.1090
16774TIP3    H171813   2.072   1.790   4.016 -0.1073 -2.5017 -0.5103
16774TIP3    H271814   2.136   1.892   3.925  0.3914 -0.3370  2.1862
16775TIP3   OH271815   1.692   5.425  14.574 -0.3357 -0.3358 -0.5887
16775TIP3    H171816   1.715   5.512  14.540  1.7244 -0.5421  0.2216
16775TIP3    H271817   1.720   5.427  14.666  1.0031 -2.3298 -0.9387
16776TIP3   OH271818   5.979   0.915  16.037 -0.4928  0.1857 -0.0825
16776TIP3    H171819   5.893   0.891  16.002 -0.7819  1.0315  0.0553
16776TIP3    H271820   6.041   0.884  15.971 -0.8655 -0.9609  0.0959
16777TIP3   OH271821   2.159   2.919  13.456  0.6312 -0.3975  0.2512
16777TIP3    H171822   2.097   2.948  13.522 -0.0652  1.8760 -1.3230
16777TIP3    H271823   2.245   2.934  13.496  0.2276  1.4076  0.4897
16778TIP3   OH271824   6.576   0.506   1.234  0.0885 -0.1947 -1.1142
16778TIP3    H171825   6.587   0.480   1.142 -0.1934  1.0833 -1.5182
16778TIP3    H271826   6.664   0.503   1.270  0.5229  1.3126 -1.9851
16779TIP3   OH271827   2.577   6.389  17.206  0.0667 -0.7856  0.3831
16779TIP3    H171828   2.517   6.328  17.249  0.4633 -1.9317 -0.6952
16779TIP3    H271829   2.526   6.425  17.133  0.0394 -0.2761  0.6500
16780TIP3   OH271830   1.791   2.356  11.899  0.6025 -0.0174  0.1236
16780TIP3    H171831   1.856   2.401  11.844  0.5034  1.1698  0.9761
16780TIP3    H271832   1.707   2.388  11.868  0.5241  0.2590  0.6298
16781TIP3   OH271833   5.045   2.295   0.296  0.0946  0.7844 -0.3508
16781TIP3    H171834   5.010   2.383   0.278 -1.8148 -0.3833 -2.5572
16781TIP3    H271835   5.001   2.268   0.377 -0.2730  1.3587 -0.3514
16782TIP3   OH271836   1.275   5.430  14.096 -0.0647  0.1152 -0.0472
16782TIP3    H171837   1.302   5.513  14.135  1.8596  0.0217 -1.0676
16782TIP3    H271838   1.297   5.364  14.162 -1.4456  0.3949  0.6985
16783TIP3   OH271839   3.146   6.493  14.984 -0.2505  0.2973 -0.2540
16783TIP3    H171840   3.109   6.536  14.908  0.1999  1.4936  0.1780
16783TIP3    H271841   3.126   6.400  14.973 -0.0800  0.4475 -1.8763
16784TIP3   OH271842   6.788   5.835  11.758 -0.0516  0.2581  0.0047
16784TIP3    H171843   6.865   5.893  11.757  0.2303 -0.1254 -1.0964
16784TIP3    H271844   6.794   5.786  11.676 -1.7090  0.5228 -0.2791
16785TIP3   OH271845   5.202   3.747  15.686  0.6623 -0.6435 -0.1701
16785TIP3    H171846   5.245   3.833  15.694 -0.6826  0.1850 -1.5349
16785TIP3    H271847   5.139   3.745  15.758  0.0302 -0.0862 -0.7061
16786TIP3   OH271848   1.121   5.041  14.099  0.5784 -0.2825  0.0477
16786TIP3    H171849   1.105   4.957  14.142  1.9320 -1.2319 -1.2582
16786TIP3    H271850   1.187   5.083  14.153  2.0310 -1.3282 -0.8964
16787TIP3   OH271851   6.486   0.912  17.231  0.2499 -0.7715 -0.2768
16787TIP3    H171852   6.529   0.862  17.300 -0.6951 -1.3497 -0.1021
16787TIP3    H271853   6.505   1.003  17.252 -0.9832 -0.8965  1.3719
16788TIP3   OH271854   2.912   6.648  11.802  0.3866 -0.8737  0.1642
16788TIP3    H171855   2.852   6.720  11.786  1.1572  0.2932  2.2449
16788TIP3    H271856   2.967   6.644  11.724 -1.8293 -1.4235 -1.4008
16789TIP3   OH271857   5.547   1.788  10.405  0.3914  0.3480  0.1011
16789TIP3    H171858   5.485   1.726  10.368  2.1120 -1.8028  0.6806
16789TIP3    H271859   5.617   1.794  10.339  1.7020 -0.7120  1.3521
16790TIP3   OH271860   5.231   1.133  16.743  0.1904 -0.0126 -0.2452
16790TIP3    H171861   5.241   1.201  16.809 -0.8354 -0.1651  0.0750
16790TIP3    H271862   5.225   1.180  16.660  0.3608  0.2425 -0.1121
16791TIP3   OH271863   2.157   4.040  15.700  0.2094  0.0212 -0.2944
16791TIP3    H171864   2.186   4.084  15.619  0.8048 -0.4165 -0.3205
16791TIP3    H271865   2.238   4.025  15.749  0.0599 -1.4323 -0.4710
16792TIP3   OH271866   6.135   5.206  16.909  0.1158  0.0626 -0.2887
16792TIP3    H171867   6.153   5.297  16.887 -0.4514  0.2216 -0.0999
16792TIP3    H271868   6.123   5.206  17.004 -0.5609 -0.0902 -0.3707
16793TIP3   OH271869   4.195   5.610   4.140  0.2040  0.4732  0.1760
16793TIP3    H171870   4.144   5.543   4.095 -0.5858  2.1627 -1.5222
16793TIP3    H271871   4.146   5.628   4.221 -0.6185  0.3853 -0.3007
16794TIP3   OH271872   1.350   4.299  15.518  0.4720 -0.0934 -0.3892
16794TIP3    H171873   1.400   4.218  15.509 -0.6416 -0.7239 -0.9622
16794TIP3    H271874   1.337   4.330  15.428 -0.9541 -0.4225 -0.3113
16795TIP3   OH271875   4.279   5.345  10.797 -0.2123 -0.0892  0.6291
16795TIP3    H171876   4.237   5.337  10.711 -0.4011 -1.5032  0.8438
16795TIP3    H271877   4.328   5.427  10.792 -2.1759  1.0663  0.0218
16796TIP3   OH271878   5.733   6.775  12.555 -0.3400 -0.3745  0.3762
16796TIP3    H171879   5.773   6.857  12.527 -0.0245 -0.3458  0.8906
16796TIP3    H271880   5.656   6.802  12.604 -0.0508 -0.3692  0.8335
16797TIP3   OH271881   1.337   2.355  14.697 -0.0650 -0.1142  1.0980
16797TIP3    H171882   1.372   2.363  14.786 -0.9451  0.5230  1.3902
16797TIP3    H271883   1.299   2.441  14.678 -0.0099 -0.2924  0.1595
16798TIP3   OH271884   4.042   0.491  17.184  0.4734 -0.0023  0.4388
16798TIP3    H171885   4.021   0.584  17.190 -1.0672 -0.3756  0.9747
16798TIP3    H271886   4.070   0.478  17.093  0.3665  0.9104  0.2780
16799TIP3   OH271887   6.126   3.650   0.896  0.2608 -1.0324 -0.3098
16799TIP3    H171888   6.215   3.633   0.926  0.9667  0.6999 -1.3355
16799TIP3    H271889   6.132   3.734   0.849 -1.1202 -2.6739 -3.6061
16800TIP3   OH271890   6.303   2.715   2.969 -0.5402 -0.0379 -0.3023
16800TIP3    H171891   6.364   2.654   3.010 -1.2340  0.0550  0.8788
16800TIP3    H271892   6.222   2.706   3.019 -0.8276  1.4471 -0.4675
16801TIP3   OH271893   5.108   1.219   3.237  0.2660 -0.2271 -0.1328
16801TIP3    H171894   5.135   1.136   3.199  1.3336  0.3189 -0.5809
16801TIP3    H271895   5.049   1.195   3.309 -1.6697 -1.2722 -2.0395
16802TIP3   OH271896   4.606   4.142  14.579  0.6653 -0.5039  0.3710
16802TIP3    H171897   4.679   4.108  14.631  0.2117  0.9490  2.0172
16802TIP3    H271898   4.532   4.146  14.641 -0.5474 -1.0065 -1.0140
16803TIP3   OH271899   1.847   2.153   3.069 -0.1263  0.2194  0.0746
16803TIP3    H171900   1.796   2.097   3.127 -1.2746 -0.1700 -1.2832
16803TIP3    H271901   1.792   2.165   2.992  2.2331 -1.0718 -1.8906
16804TIP3   OH271902   0.247   0.792  12.501  0.7948  0.1098 -0.1966
16804TIP3    H171903   0.220   0.771  12.412  2.5384  0.4759 -0.8385
16804TIP3    H271904   0.213   0.880  12.517  0.0677 -0.1449 -0.3030
16805TIP3   OH271905   5.643   5.473   3.615  0.2675 -0.6305 -0.2435
16805TIP3    H171906   5.604   5.386   3.612 -0.5926 -0.3703  2.2054
16805TIP3    H271907   5.693   5.474   3.697 -0.9101  1.6430  0.4818
16806TIP3   OH271908   0.792   4.248   2.945 -0.7151  0.3610  0.0649
16806TIP3    H171909   0.795   4.303   2.866 -1.1935 -0.2011 -0.3485
16806TIP3    H271910   0.815   4.308   3.016 -2.4070  1.3854 -0.2234
16807TIP3   OH271911   1.148   0.330   0.879 -0.0021  0.3126  0.6440
16807TIP3    H171912   1.094   0.392   0.830  1.1187  1.3802  0.7347
16807TIP3    H271913   1.085   0.275   0.926 -1.0276  0.8342 -0.1013
16808TIP3   OH271914   2.792   3.495   5.413  0.2562 -0.4706  0.4560
16808TIP3    H171915   2.778   3.540   5.497 -0.4436  0.0998  0.0453
16808TIP3    H271916   2.849   3.421   5.434  0.2655 -0.2012  1.3959
16809TIP3   OH271917   5.676   0.989  16.946  0.0582  0.0721 -0.8230
16809TIP3    H171918   5.621   1.009  17.022  0.1731 -0.9051 -0.4762
16809TIP3    H271919   5.624   1.016  16.871 -0.7508 -0.5308 -0.4787
16810TIP3   OH271920   0.872   3.620  16.019  0.1691  0.3341  0.0376
16810TIP3    H171921   0.821   3.645  16.096  0.5802  0.0705  0.3954
16810TIP3    H271922   0.914   3.538  16.043 -0.8714 -0.5189 -1.0093
16811TIP3   OH271923   6.618   3.985  12.663 -0.7607 -0.4383  0.5078
16811TIP3    H171924   6.602   3.891  12.668  0.3404 -0.8617 -2.6670
16811TIP3    H271925   6.536   4.022  12.630  0.3693 -0.9918 -3.1682
16812TIP3   OH271926   6.465   6.446  17.236 -0.5823 -0.1573  0.1915
16812TIP3    H171927   6.463   6.462  17.142 -1.5872 -0.8569  0.0883
16812TIP3    H271928   6.519   6.368  17.246  1.7775  1.4562  0.4418
16813TIP3   OH271929   0.060   3.039  16.185  0.2108 -0.2041  0.0234
16813TIP3    H171930   0.108   3.087  16.117 -1.9053  0.1085 -1.3207
16813TIP3    H271931   0.009   3.106  16.230 -0.9880 -0.8404 -0.3450
16814TIP3   OH271932   3.030   1.918  16.781  0.9218  0.3961 -0.0207
16814TIP3    H171933   2.987   1.973  16.715  0.6585 -0.5029 -0.6012
16814TIP3    H271934   3.104   1.878  16.734  0.0625 -1.1391 -0.0824
16815TIP3   OH271935   1.480   5.197  11.746  0.3643 -0.2781 -0.6964
16815TIP3    H171936   1.531   5.195  11.665 -0.2063  1.1416 -1.0913
16815TIP3    H271937   1.389   5.200  11.717  0.1524  0.1483  0.0067
16816TIP3   OH271938   2.018   4.444   0.146 -0.3145  0.1227 -0.6418
16816TIP3    H171939   2.091   4.492   0.108  1.2022 -0.8961  0.9044
16816TIP3    H271940   2.045   4.353   0.144 -1.6592 -0.3017 -0.2808
16817TIP3   OH271941   5.341   3.531   1.711  0.6040 -0.1456  0.1193
16817TIP3    H171942   5.428   3.506   1.680  1.4332  1.2966  1.1941
16817TIP3    H271943   5.296   3.563   1.633  1.3161 -0.1664 -0.3092
16818TIP3   OH271944   4.847   5.445  10.498 -0.1479  0.1452 -0.5667
16818TIP3    H171945   4.896   5.430  10.580 -0.6639 -0.7383 -0.4155
16818TIP3    H271946   4.757   5.423  10.520 -0.4547  0.8709 -1.1081
16819TIP3   OH271947   3.396   0.507   5.786 -0.0963  0.3957  0.0709
16819TIP3    H171948   3.428   0.576   5.728 -0.1152  0.3474  0.0022
16819TIP3    H271949   3.471   0.484   5.839 -0.7543  2.2959  1.9076
16820TIP3   OH271950   0.817   1.099   0.006  0.3823 -0.0809 -0.3282
16820TIP3    H171951   0.859   1.084  -0.079 -1.9558 -1.6220 -1.2469
16820TIP3    H271952   0.783   1.188   0.002  2.6693  0.8490  0.0736
16821TIP3   OH271953   4.088   5.907   5.854  0.4595 -0.4842 -0.4501
16821TIP3    H171954   4.003   5.928   5.893  0.4883 -0.5156 -0.3687
16821TIP3    H271955   4.142   5.880   5.929  0.8645  0.5759 -0.3552
16822TIP3   OH271956   5.256   0.611  12.536 -0.6249 -0.0781  0.1684
16822TIP3    H171957   5.262   0.616  12.441 -0.2984  0.8685  0.2344
16822TIP3    H271958   5.225   0.698  12.563  0.6245  0.1114  1.0197
16823TIP3   OH271959   1.858   6.071   0.520  0.3559  0.0545  0.0266
16823TIP3    H171960   1.836   5.985   0.482 -1.2663  0.6563 -0.4352
16823TIP3    H271961   1.775   6.119   0.519  0.8187  0.9188  2.1575
16824TIP3   OH271962   1.864   0.111   3.478  0.1194  0.4138  0.3062
16824TIP3    H171963   1.944   0.132   3.527 -0.6961  0.5591  1.6026
16824TIP3    H271964   1.853   0.184   3.418  2.0784 -0.5891 -1.3528
16825TIP3   OH271965   5.649   6.283   4.467 -0.7015 -0.0372 -0.5220
16825TIP3    H171966   5.619   6.335   4.541  1.8236  1.5925 -0.6014
16825TIP3    H271967   5.707   6.217   4.506  0.7176  0.8905 -1.0191
16826TIP3   OH271968   5.876   3.119  12.830 -0.5251  0.1282 -0.2058
16826TIP3    H171969   5.849   3.092  12.742 -1.0152 -0.3770  0.0911
16826TIP3    H271970   5.961   3.160  12.817 -0.0600 -0.9754 -0.7710
16827TIP3   OH271971   2.045   0.313   6.116 -0.2236 -0.0828 -0.3940
16827TIP3    H171972   2.118   0.352   6.069  0.3006 -1.3650 -0.6723
16827TIP3    H271973   1.973   0.314   6.053 -0.0041 -0.2333 -0.6501
16828TIP3   OH271974   3.849   0.050  10.895  0.2606 -0.2396 -0.5731
16828TIP3    H171975   3.886   0.135  10.920 -0.8945  0.6676 -1.8742
16828TIP3    H271976   3.916   0.010  10.841 -0.2125  0.9492 -2.0573
16829TIP3   OH271977   5.510   4.265   4.752 -0.6602 -0.1873  0.0335
16829TIP3    H171978   5.430   4.318   4.755 -0.4738  0.0445  1.3121
16829TIP3    H271979   5.508   4.216   4.835  1.2482  0.8871  0.7285
16830TIP3   OH271980   6.618   2.681  13.114 -0.1536  0.8488 -0.8017
16830TIP3    H171981   6.628   2.696  13.020 -1.9519  0.2804 -1.0998
16830TIP3    H271982   6.676   2.745  13.154 -0.3812  2.0252 -2.2748
16831TIP3   OH271983   6.686   1.828   4.727 -0.5778 -0.0391  0.2298
16831TIP3    H171984   6.701   1.739   4.757 -2.5746 -0.8746 -1.1179
16831TIP3    H271985   6.770   1.873   4.740  0.5638 -2.2064  0.5255
16832TIP3   OH271986   2.096   6.381   4.452  0.6006  0.7522 -0.2762
16832TIP3    H171987   2.047   6.341   4.524 -0.5733  1.4210 -0.6841
16832TIP3    H271988   2.141   6.455   4.492  0.6898  0.5728 -0.0435
16833TIP3   OH271989   1.450   5.984  12.597  0.2046  0.2964 -0.0228
16833TIP3    H171990   1.496   6.040  12.659  1.5456 -1.3035  0.4581
16833TIP3    H271991   1.470   5.894  12.625  0.4214 -0.4538 -2.4457
16834TIP3   OH271992   1.220   0.266  14.514  0.1176 -0.4578 -0.3499
16834TIP3    H171993   1.271   0.314  14.449 -0.0694  0.5444  0.2207
16834TIP3    H271994   1.149   0.326  14.538  1.5696  0.2195  2.5451
16835TIP3   OH271995   0.304   1.940   4.953  0.3427  0.4091 -0.3317
16835TIP3    H171996   0.372   1.999   4.984  2.0904 -1.1712 -1.0346
16835TIP3    H271997   0.334   1.853   4.980 -1.9900 -0.2066  0.3819
16836TIP3   OH271998   2.336   0.873   4.186 -0.3759  0.2560  0.8735
16836TIP3    H171999   2.359   0.963   4.209 -2.8659  0.7910  1.3881
16836TIP3    H272000   2.349   0.824   4.268  0.2073  0.2932  0.8057
16837TIP3   OH272001   1.819   3.779   0.016  0.0296  0.4121 -0.0538
16837TIP3    H172002   1.879   3.705   0.017 -1.0116 -0.4787 -1.1220
16837TIP3    H272003   1.798   3.795   0.108 -1.0630 -1.7232  0.0891
16838TIP3   OH272004   4.337   2.714  14.469 -0.0110 -0.3409  0.2601
16838TIP3    H172005   4.356   2.657  14.543  2.0419 -0.4802 -0.3507
16838TIP3    H272006   4.335   2.802  14.506 -0.9384 -0.5736  0.7992
16839TIP3   OH272007   1.086   0.599  11.632  0.4519  0.0534  0.0023
16839TIP3    H172008   1.020   0.564  11.571  0.0739  0.0024  0.4412
16839TIP3    H272009   1.102   0.688  11.601  1.4164 -0.4817 -1.1211
16840TIP3   OH272010   1.556   1.568  16.474 -0.0904 -0.1396  0.3691
16840TIP3    H172011   1.574   1.662  16.469  0.1953 -0.2819 -1.8460
16840TIP3    H272012   1.552   1.549  16.568  0.8086  1.8938  0.8417
16841TIP3   OH272013   6.519   5.670   1.083  0.3220  0.2688  0.1046
16841TIP3    H172014   6.528   5.711   1.169  0.9088 -0.2128  0.2777
16841TIP3    H272015   6.607   5.637   1.063 -0.0832 -0.6738 -0.1403
16842TIP3   OH272016   0.045   5.280  15.973 -0.3277  0.0344 -0.6282
16842TIP3    H172017   0.128   5.249  16.009 -0.5462 -1.2040 -1.1506
16842TIP3    H272018  -0.016   5.274  16.047  0.1643  1.4829 -0.0920
16843TIP3   OH272019   6.321   4.417   0.079 -0.4919 -0.2003  0.4627
16843TIP3    H172020   6.232   4.433   0.048  0.6298  0.0831 -2.7654
16843TIP3    H272021   6.331   4.322   0.077 -0.1643 -0.1537 -0.9529
16844TIP3   OH272022   6.315   5.399  14.215 -0.0820 -0.0662  0.5460
16844TIP3    H172023   6.244   5.452  14.252 -0.5745 -1.2190  1.2828
16844TIP3    H272024   6.384   5.402  14.280 -0.5201 -1.1826  1.0747
16845TIP3   OH272025   5.147   3.663   3.749  0.1574  0.8265  0.2013
16845TIP3    H172026   5.195   3.607   3.810  1.7216  3.2332  1.2489
16845TIP3    H272027   5.063   3.678   3.792 -0.0271 -0.1909  0.2070
16846TIP3   OH272028   4.905   6.339  10.692  0.1921 -0.1907 -0.5903
16846TIP3    H172029   4.950   6.409  10.739  0.2806 -1.3149  1.0511
16846TIP3    H272030   4.830   6.381  10.650  0.6634  1.0114 -0.2387
16847TIP3   OH272031   0.343   6.396   2.544 -0.1510 -0.5094 -0.0782
16847TIP3    H172032   0.336   6.486   2.512  0.8168 -0.5177 -0.3233
16847TIP3    H272033   0.262   6.354   2.515  0.3394 -0.2928 -1.8192
16848TIP3   OH272034   4.976   0.914   4.462  0.2190 -0.3419  0.2230
16848TIP3    H172035   4.963   0.819   4.464  0.5258 -0.4054 -0.5745
16848TIP3    H272036   4.929   0.946   4.539  0.7213 -1.2102  0.9009
16849TIP3   OH272037   3.073   5.402  11.546  0.1588  0.5181  0.0269
16849TIP3    H172038   3.013   5.477  11.540 -0.4537  0.0368  0.0527
16849TIP3    H272039   3.130   5.410  11.470 -1.1536 -0.0586 -1.0438
16850TIP3   OH272040   4.482   6.522  14.536  0.1369 -0.7070 -0.1734
16850TIP3    H172041   4.404   6.469  14.522  2.0455 -3.0237 -2.3816
16850TIP3    H272042   4.543   6.464  14.581  0.8836  0.8552  0.8809
16851TIP3   OH272043   2.625   1.029   3.498  0.2296  0.4581 -0.4044
16851TIP3    H172044   2.619   1.101   3.435  1.9833  1.3966  0.4599
16851TIP3    H272045   2.674   1.065   3.571 -0.0653 -1.2206  0.6541
16852TIP3   OH272046   3.060   3.518  11.367  0.5270 -0.1392 -0.0221
16852TIP3    H172047   3.137   3.563  11.332  0.2657 -0.4521 -1.0227
16852TIP3    H272048   3.029   3.574  11.437  0.8954  0.6596 -0.4929
16853TIP3   OH272049   2.204   4.450  14.879  0.4115  0.3851 -0.2344
16853TIP3    H172050   2.160   4.368  14.854 -0.1896  0.9043 -0.8914
16853TIP3    H272051   2.143   4.519  14.853  0.7608  1.0344  0.6527
16854TIP3   OH272052   1.156   1.410  15.439  0.3224 -0.6164  0.8804
16854TIP3    H172053   1.106   1.491  15.428 -0.1973 -1.0812 -0.2724
16854TIP3    H272054   1.196   1.418  15.526 -0.3628  0.5206  1.1026
16855TIP3   OH272055   2.524   3.255   4.189 -0.0247 -0.5084 -0.6087
16855TIP3    H172056   2.538   3.161   4.194  0.8537 -0.3304  0.7732
16855TIP3    H272057   2.517   3.274   4.096  0.4799 -1.8469 -0.9312
16856TIP3   OH272058   5.031   5.402  14.807  0.2620  0.1796 -0.0127
16856TIP3    H172059   5.109   5.416  14.753 -0.1248 -0.8740 -0.8513
16856TIP3    H272060   5.055   5.331  14.866  0.1707  0.3157  0.1868
16857TIP3   OH272061   5.145   6.666  14.473 -0.2683 -0.6139  0.5757
16857TIP3    H172062   5.103   6.691  14.556 -1.7837 -1.7958  0.1831
16857TIP3    H272063   5.078   6.682  14.407  0.9479  0.3400 -0.4344
16858TIP3   OH272064   6.217   5.274   0.135  0.0762  0.0337 -0.0940
16858TIP3    H172065   6.219   5.274   0.039  0.0659 -0.3223 -0.0952
16858TIP3    H272066   6.289   5.216   0.160  0.3480  0.4626  0.1206
16859TIP3   OH272067   6.470   1.208   1.066  0.1255  0.0880  0.1152
16859TIP3    H172068   6.387   1.255   1.059  0.0937 -0.0976 -0.7962
16859TIP3    H272069   6.536   1.277   1.073 -0.3355  0.2372  3.9667
16860TIP3   OH272070   5.777   4.111   5.397  0.0936 -0.1462 -0.0867
16860TIP3    H172071   5.769   4.134   5.305  1.0102 -1.3687 -0.4994
16860TIP3    H272072   5.690   4.125   5.434 -0.4686 -0.3689 -1.3138
16861TIP3   OH272073   4.207   5.180   5.825 -0.9080 -0.4803  0.2131
16861TIP3    H172074   4.287   5.232   5.830 -1.5549  0.4885  0.5195
16861TIP3    H272075   4.210   5.124   5.903 -0.4970 -0.5125  0.1775
16862TIP3   OH272076   0.870   1.963   6.051  0.0301  0.8512 -0.3259
16862TIP3    H172077   0.846   1.963   5.959  0.1743  1.7073 -0.3661
16862TIP3    H272078   0.963   1.988   6.052  0.3037 -0.1069 -0.0100
16863TIP3   OH272079   4.494   3.243  15.023  0.6669 -0.2208  0.7508
16863TIP3    H172080   4.466   3.333  15.012 -2.6553 -1.0830  1.4212
16863TIP3    H272081   4.578   3.249  15.069  0.3962  2.4990  0.9510
16864TIP3   OH272082   4.807   1.002   5.017  0.1948 -0.0270  0.0107
16864TIP3    H172083   4.760   1.033   4.940  0.0229  0.3966  0.2850
16864TIP3    H272084   4.744   0.946   5.063 -0.2241  0.9753  0.6628
16865TIP3   OH272085   5.124   0.061   1.831 -0.1142 -0.5535 -0.6165
16865TIP3    H172086   5.094   0.105   1.911 -0.8131  0.0922 -1.2283
16865TIP3    H272087   5.151  -0.026   1.861  0.5049  0.0008  0.4704
16866TIP3   OH272088   6.296   1.491  16.767 -0.4647  0.4044  0.0570
16866TIP3    H172089   6.207   1.472  16.738 -0.1704 -0.8441 -0.0607
16866TIP3    H272090   6.340   1.524  16.689 -0.9878  1.6663  0.2687
16867TIP3   OH272091   0.109   2.938   5.225  0.0816 -0.3451  0.4707
16867TIP3    H172092   0.098   2.978   5.138 -0.4417 -1.3969  0.0396
16867TIP3    H272093   0.144   3.008   5.279 -0.5581  0.6174 -0.3380
16868TIP3   OH272094   3.799   5.697  14.455  0.0533  0.0840  0.8949
16868TIP3    H172095   3.801   5.757  14.530  0.7270 -0.2926  1.1894
16868TIP3    H272096   3.813   5.610  14.494 -1.2613 -0.3063  0.5114
16869TIP3   OH272097   0.158   1.618  14.224 -0.5712 -0.3256  0.0013
16869TIP3    H172098   0.238   1.639  14.175  0.2486 -0.8119  1.1222
16869TIP3    H272099   0.104   1.697  14.215  0.4706  0.4081  0.1237
16870TIP3   OH272100   2.747   4.674  13.258 -0.0674 -0.0548  0.2189
16870TIP3    H172101   2.746   4.723  13.340 -1.1094 -0.9857  0.7738
16870TIP3    H272102   2.681   4.718  13.204  0.6068  0.5470 -0.1157
16871TIP3   OH272103   0.038   0.311  15.346  0.2930 -0.0695 -0.5749
16871TIP3    H172104  -0.053   0.284  15.337  0.6049 -0.8758 -1.4292
16871TIP3    H272105   0.084   0.231  15.373  0.9063  0.0726 -1.1767
16872TIP3   OH272106   1.033   3.550   0.103  0.0507  0.3187  0.0300
16872TIP3    H172107   1.087   3.503   0.039  1.1272 -0.2762  1.3757
16872TIP3    H272108   1.050   3.642   0.086  1.1943  0.1399  0.1905
16873TIP3   OH272109   1.992   1.654  17.165  0.4484  0.1090  0.4514
16873TIP3    H172110   2.052   1.655  17.241  2.0529 -1.2471 -0.7448
16873TIP3    H272111   1.965   1.562  17.158  0.1249  0.2769 -0.4846
16874TIP3   OH272112   1.149   3.471   1.210  0.2178 -0.2269  0.2619
16874TIP3    H172113   1.111   3.513   1.133  1.5104  1.6831  0.6215
16874TIP3    H272114   1.241   3.457   1.186  0.1980 -1.3227  0.7861
16875TIP3   OH272115   1.779   0.145  12.584  0.1316 -0.3855  0.0192
16875TIP3    H172116   1.873   0.140  12.568  0.0787 -1.8522  0.1324
16875TIP3    H272117   1.764   0.089  12.659 -0.8188 -0.0082  0.1263
16876TIP3   OH272118   5.049   1.847  16.874 -0.2204 -0.0303 -0.5765
16876TIP3    H172119   5.142   1.862  16.856 -0.0863 -0.9118 -0.6611
16876TIP3    H272120   5.046   1.827  16.968 -0.3677  0.3523 -0.5024
16877TIP3   OH272121   3.442   0.216  16.878  0.2478  0.1781  0.4214
16877TIP3    H172122   3.404   0.158  16.944 -0.7791  0.2725 -0.0689
16877TIP3    H272123   3.385   0.294  16.879 -0.4624 -0.2732 -1.3264
16878TIP3   OH272124   3.783   4.577   4.438 -0.1745 -1.0126 -0.2854
16878TIP3    H172125   3.872   4.556   4.409 -0.0432  1.4287 -1.7850
16878TIP3    H272126   3.726   4.545   4.367 -0.5323 -2.7765  0.7754
16879TIP3   OH272127   0.147   0.292  14.141 -0.3857  0.6864  0.2003
16879TIP3    H172128   0.191   0.318  14.060  0.7833 -0.7928  0.3489
16879TIP3    H272129   0.209   0.233  14.184 -1.6958  0.1538  1.3771
16880TIP3   OH272130   1.935   1.829   1.638 -0.1121 -0.2212 -0.2427
16880TIP3    H172131   1.947   1.845   1.732  1.4509  1.1151 -0.6424
16880TIP3    H272132   1.869   1.893   1.612  1.0163  0.8859 -0.4508
16881TIP3   OH272133   5.248   1.310   2.544  0.2460  0.9565 -0.2206
16881TIP3    H172134   5.217   1.380   2.602  0.8351  0.5964  0.5456
16881TIP3    H272135   5.267   1.354   2.461  3.0206  2.1805  0.9990
16882TIP3   OH272136   2.834   0.815  13.313  0.5462 -0.5597 -0.7151
16882TIP3    H172137   2.740   0.821  13.296  0.4720  0.0535 -0.1333
16882TIP3    H272138   2.842   0.742  13.374  0.2639  0.3825  0.4711
16883TIP3   OH272139   4.905   0.506  15.211  0.0254 -0.1052 -0.3504
16883TIP3    H172140   4.867   0.487  15.297  0.6474  1.8529  0.4063
16883TIP3    H272141   4.851   0.577  15.176 -0.4435 -1.1403 -1.7508
16884TIP3   OH272142   0.530   4.311   4.489 -0.0457 -0.0013 -0.1307
16884TIP3    H172143   0.508   4.225   4.453 -0.0585 -0.0873  0.0796
16884TIP3    H272144   0.512   4.302   4.583  0.8430 -0.0605  0.0381
16885TIP3   OH272145   4.276   0.276   6.174  0.1996 -0.3335  0.1639
16885TIP3    H172146   4.245   0.327   6.099 -0.4385  0.1116  0.7159
16885TIP3    H272147   4.360   0.241   6.147  0.5533  0.8462 -0.3105
16886TIP3   OH272148   2.526   2.717  14.151  0.1127 -0.2711 -0.0108
16886TIP3    H172149   2.607   2.665  14.149  1.2608  1.4498 -3.6624
16886TIP3    H272150   2.557   2.807  14.156 -1.4292  0.5406 -3.7014
16887TIP3   OH272151   5.548   1.786   4.163 -0.6624 -0.1367 -0.1166
16887TIP3    H172152   5.483   1.743   4.108  0.8978  0.7027 -2.7638
16887TIP3    H272153   5.504   1.864   4.196 -1.0215  0.4354 -1.8909
16888TIP3   OH272154   1.614   4.470  11.770 -0.1495  0.1120  0.7429
16888TIP3    H172155   1.695   4.435  11.733  0.2680  0.7314  1.0590
16888TIP3    H272156   1.550   4.463  11.699  0.8259  1.9842 -0.3622
16889TIP3   OH272157   2.407   3.120   6.197  0.1921 -0.1727  0.4886
16889TIP3    H172158   2.415   3.192   6.260 -0.5397 -0.1661  0.5753
16889TIP3    H272159   2.495   3.110   6.162  0.9558 -1.1755  2.5989
16890TIP3   OH272160   4.615   4.886   3.513  0.0090 -0.1616  0.3752
16890TIP3    H172161   4.642   4.963   3.462  0.0035  0.1957  0.8976
16890TIP3    H272162   4.527   4.907   3.544 -0.7914 -1.2234 -1.1095
16891TIP3   OH272163   1.053   3.337  13.050  0.5100 -0.0585  0.6133
16891TIP3    H172164   1.054   3.432  13.042 -1.4987 -0.2135 -2.3901
16891TIP3    H272165   1.099   3.306  12.972  1.7152 -1.5693  1.8875
16892TIP3   OH272166   5.919   0.901  16.795  0.2905  0.4623  0.0632
16892TIP3    H172167   5.842   0.948  16.827  0.7021  1.7943 -0.8589
16892TIP3    H272168   5.906   0.811  16.825 -0.8536  1.0080  1.2639
16893TIP3   OH272169   6.600   1.312  11.504 -0.2106  0.4806  0.2160
16893TIP3    H172170   6.526   1.305  11.444 -1.0072  1.9778  0.9948
16893TIP3    H272171   6.586   1.242  11.568 -1.6015  1.5048  1.0437
16894TIP3   OH272172   5.910   4.434  16.993  0.1662  0.0579  0.2267
16894TIP3    H172173   5.881   4.518  16.956 -0.0257  0.2494  0.8086
16894TIP3    H272174   5.928   4.379  16.917 -0.3450  0.4120 -0.1490
16895TIP3   OH272175   4.594   1.803   6.718  0.3184 -0.6007 -0.2678
16895TIP3    H172176   4.689   1.790   6.712  0.6839  0.1723  3.0084
16895TIP3    H272177   4.577   1.882   6.666  1.3242 -1.2603 -1.6223
16896TIP3   OH272178   4.023   1.057   0.335  0.4420  0.5009  0.2198
16896TIP3    H172179   3.974   1.138   0.351  0.0319  0.3402 -0.2017
16896TIP3    H272180   4.110   1.087   0.309  0.1822  0.8212 -0.3054
16897TIP3   OH272181   3.617   3.426  14.258 -0.4349  0.3143  0.2238
16897TIP3    H172182   3.692   3.394  14.208 -1.9986 -0.9559 -1.3902
16897TIP3    H272183   3.624   3.382  14.343 -0.1113 -0.8454 -0.3970
16898TIP3   OH272184   6.153   0.207  15.681  0.4955 -0.3236  0.5032
16898TIP3    H172185   6.063   0.227  15.709  0.0584 -1.3804 -0.0854
16898TIP3    H272186   6.141   0.145  15.608  1.6948 -0.1451  0.1571
16899TIP3   OH272187   5.331   0.728   5.907  0.1407 -0.1422  0.5358
16899TIP3    H172188   5.315   0.645   5.863  2.0956 -0.5332  0.5113
16899TIP3    H272189   5.345   0.703   5.999  1.7913  0.0054  0.3468
16900TIP3   OH272190   4.184   3.921   2.778 -0.4071  0.4125  0.2874
16900TIP3    H172191   4.185   3.846   2.718 -0.7293  0.4523  0.2339
16900TIP3    H272192   4.114   3.977   2.746  0.1725  0.9923  0.0151
16901TIP3   OH272193   5.007   1.387   0.992  0.4379  0.2123 -0.2478
16901TIP3    H172194   4.975   1.302   0.962 -1.4267 -0.0527  2.3341
16901TIP3    H272195   4.928   1.438   1.010  1.5012  1.2378  1.6570
16902TIP3   OH272196   4.499   0.115   3.705 -0.1218  0.4162 -0.5282
16902TIP3    H172197   4.527   0.180   3.770  0.4611  0.6290 -0.9920
16902TIP3    H272198   4.426   0.069   3.748 -0.6521  1.4865 -0.2620
16903TIP3   OH272199   3.331   3.822   5.641 -0.0192  0.4951  0.0931
16903TIP3    H172200   3.331   3.803   5.735 -1.6905  1.7899  0.3730
16903TIP3    H272201   3.365   3.742   5.601  2.2948  0.5250  1.8824
16904TIP3   OH272202   5.459   4.184  14.662  0.0276  0.2541  0.1105
16904TIP3    H172203   5.551   4.193  14.637 -0.6226 -1.5564 -3.3286
16904TIP3    H272204   5.414   4.253  14.613 -0.3949  1.6922  2.4466
16905TIP3   OH272205   5.047   0.849   1.803  0.6304  0.2034  0.6159
16905TIP3    H172206   5.018   0.865   1.892  0.6426 -0.0508  0.6643
16905TIP3    H272207   5.139   0.822   1.812  0.4036 -0.5820  0.5840
16906TIP3   OH272208   4.409   5.340   5.562 -0.1346  0.0665  0.1172
16906TIP3    H172209   4.363   5.335   5.646  1.6641 -1.3677  1.0456
16906TIP3    H272210   4.466   5.416   5.571  0.4710 -0.4204  0.4113
16907TIP3   OH272211   5.290   3.493  17.043 -0.0568  0.4504 -0.6095
16907TIP3    H172212   5.223   3.493  17.111  0.2343  0.2101 -0.3204
16907TIP3    H272213   5.285   3.581  17.005 -1.1639  0.1387 -1.2179
16908TIP3   OH272214   1.783   0.318   5.419  0.4585 -0.0481  0.3233
16908TIP3    H172215   1.790   0.388   5.484  0.7643  0.4698 -0.2613
16908TIP3    H272216   1.860   0.330   5.362 -0.2873  0.0716 -0.6785
16909TIP3   OH272217   6.172   4.682   2.323 -0.1940 -0.3834 -0.4170
16909TIP3    H172218   6.254   4.726   2.348  0.1155 -1.4965  0.5471
16909TIP3    H272219   6.170   4.603   2.377 -1.8196 -0.4537 -0.5717
16910TIP3   OH272220   3.830   0.349   4.023 -0.0640  0.2679 -0.1645
16910TIP3    H172221   3.826   0.260   3.988 -1.2170  0.6945 -1.1541
16910TIP3    H272222   3.799   0.404   3.952  0.3794  1.4431  0.5416
16911TIP3   OH272223   3.317   2.263   2.849 -0.2182  0.1223  0.7826
16911TIP3    H172224   3.335   2.212   2.928 -0.9160  0.6386  1.2811
16911TIP3    H272225   3.347   2.207   2.777  0.5444 -0.2997  1.4138
16912TIP3   OH272226   1.189   6.000   0.342  0.1834 -0.4867  0.4620
16912TIP3    H172227   1.101   6.034   0.362  0.3059  0.2731 -0.2523
16912TIP3    H272228   1.185   5.908   0.366 -1.3133 -0.8396 -1.0846
16913TIP3   OH272229   0.429   1.906   4.263  0.3923  0.8530 -0.0840
16913TIP3    H172230   0.396   1.864   4.183 -1.3815  0.7267  0.6996
16913TIP3    H272231   0.472   1.986   4.232 -0.5081  0.9353 -1.1518
16914TIP3   OH272232   5.615   2.435   1.773  0.2481  0.3098  0.2666
16914TIP3    H172233   5.570   2.491   1.836  0.1188  1.5290 -0.8914
16914TIP3    H272234   5.659   2.496   1.714 -1.4504 -0.7334 -2.1797
16915TIP3   OH272235   3.410   2.369  15.033  0.2511 -0.6347 -0.2315
16915TIP3    H172236   3.421   2.274  15.022  2.0849 -0.6105  1.2449
16915TIP3    H272237   3.323   2.378  15.072 -1.2320 -1.4834 -3.2077
16916TIP3   OH272238   1.339   6.805  12.230 -0.0239 -0.5029  0.6130
16916TIP3    H172239   1.248   6.831  12.241  0.2415  0.5388  0.4040
16916TIP3    H272240   1.386   6.855  12.297  0.6632  0.5203 -0.6163
16917TIP3   OH272241   0.484   1.706  17.281  0.2822 -0.5829 -0.1451
16917TIP3    H172242   0.416   1.714  17.348 -0.7006 -2.0536 -0.9452
16917TIP3    H272243   0.529   1.791  17.282 -1.6683  0.4726  0.2917
16918TIP3   OH272244   2.769   1.916   3.559  0.4594 -0.4447 -0.9935
16918TIP3    H172245   2.830   1.990   3.561  0.0340 -0.1306  0.9029
16918TIP3    H272246   2.721   1.926   3.477 -1.7581  3.1454  0.6475
16919TIP3   OH272247   5.488   5.912  17.284  0.1377 -0.2471  0.3166
16919TIP3    H172248   5.429   5.949  17.349 -0.3036  0.8673 -0.7070
16919TIP3    H272249   5.430   5.864  17.225  0.4935 -0.9155  0.5064
16920TIP3   OH272250   4.552   1.967   6.485  0.6582 -0.1562  0.5368
16920TIP3    H172251   4.515   2.025   6.419 -0.1738 -1.9521 -0.6214
16920TIP3    H272252   4.631   1.931   6.444  1.4402  0.5136  1.4322
16921TIP3   OH272253   2.720   4.683   3.679  0.9518 -0.2837 -0.3048
16921TIP3    H172254   2.687   4.605   3.634  0.6994 -0.5524  0.3416
16921TIP3    H272255   2.761   4.649   3.759 -0.8519  0.3866  0.9548
16922TIP3   OH272256   4.607   1.561   5.799 -0.0359 -0.4083 -0.0871
16922TIP3    H172257   4.518   1.578   5.771 -0.5979 -0.6750  1.4777
16922TIP3    H272258   4.637   1.488   5.744 -2.0469 -2.7316  1.7574
16923TIP3   OH272259   3.345   5.205  11.212  0.2380  0.0922  0.3245
16923TIP3    H172260   3.436   5.176  11.218  0.3618  0.5515  0.6325
16923TIP3    H272261   3.350   5.295  11.181 -0.1026  0.2477  0.7245
16924TIP3   OH272262   6.016   6.627  13.664 -0.1279 -0.1473 -0.4272
16924TIP3    H172263   6.012   6.722  13.650  1.3742  0.2069  1.3727
16924TIP3    H272264   5.967   6.613  13.745  0.0087 -0.8557 -0.4689
16925TIP3   OH272265   0.095   5.643   4.004 -0.5383  0.6426  0.0999
16925TIP3    H172266   0.097   5.574   4.069 -1.4809 -0.3831 -0.9399
16925TIP3    H272267   0.094   5.598   3.920  1.9368  1.9487 -0.7079
16926TIP3   OH272268   3.262   2.656  12.873  0.2120 -0.2999 -0.2859
16926TIP3    H172269   3.219   2.576  12.901 -1.7915  0.7140 -0.3500
16926TIP3    H272270   3.205   2.691  12.804 -0.7123  2.8086  1.9501
16927TIP3   OH272271   2.053   5.099  13.317  0.0328  0.3845 -0.2821
16927TIP3    H172272   2.020   5.188  13.327 -0.8754 -0.0854  1.0798
16927TIP3    H272273   2.064   5.088  13.222 -2.7362  0.9564 -0.7316
16928TIP3   OH272274   5.408   6.194   1.814  0.2461  0.9625  0.6851
16928TIP3    H172275   5.370   6.226   1.895  0.4335  0.7816  0.8446
16928TIP3    H272276   5.485   6.249   1.800  0.3865  0.7932  0.7909
16929TIP3   OH272277   3.089   4.212   1.705  0.3471  0.0893 -0.0566
16929TIP3    H172278   3.098   4.148   1.635 -2.1211 -1.1884  0.7371
16929TIP3    H272279   2.995   4.226   1.714  0.7590  2.6604  0.8512
16930TIP3   OH272280   0.911   0.007   2.428 -0.7085  0.6281  0.0597
16930TIP3    H172281   0.979  -0.048   2.388 -1.3478  0.4477 -0.8144
16930TIP3    H272282   0.849  -0.055   2.465 -0.4603  0.7911  0.7409
16931TIP3   OH272283   5.606   1.315   2.147  0.4462  0.3683  0.2619
16931TIP3    H172284   5.596   1.409   2.134 -0.1111  0.3267  0.3811
16931TIP3    H272285   5.694   1.305   2.184  0.2027  0.9176  1.0161
16932TIP3   OH272286   4.851   3.411   1.198 -0.6192  0.1263  0.2039
16932TIP3    H172287   4.764   3.373   1.193 -0.3167 -0.6119  0.4345
16932TIP3    H272288   4.910   3.339   1.174 -0.1337  0.8861 -0.9118
16933TIP3   OH272289   1.145   5.351  11.137 -0.0602 -0.0866  0.2351
16933TIP3    H172290   1.177   5.429  11.182  0.7287 -0.0257 -0.4202
16933TIP3    H272291   1.221   5.317  11.090 -0.1518 -1.8179  1.3025
16934TIP3   OH272292   2.417   6.808  17.092  0.0634 -0.1116 -0.1544
16934TIP3    H172293   2.441   6.738  17.031  0.9047  0.1788 -0.1733
16934TIP3    H272294   2.466   6.786  17.172 -0.4140 -0.0594  0.1502
16935TIP3   OH272295   4.662   6.540   1.659  0.2693 -0.0784 -0.1837
16935TIP3    H172296   4.677   6.602   1.730  0.7135 -0.2811 -0.1057
16935TIP3    H272297   4.726   6.563   1.592  0.3652 -0.3903 -0.1992
16936TIP3   OH272298   3.727   3.571   1.805  0.0762  0.3282  0.3556
16936TIP3    H172299   3.756   3.485   1.834 -0.1809  0.4038  0.8340
16936TIP3    H272300   3.695   3.614   1.884  1.7225  1.4787  0.4455
16937TIP3   OH272301   2.012   3.479  12.878 -0.4391 -0.5316  0.0219
16937TIP3    H172302   2.006   3.411  12.945 -1.2996  0.8631  1.3782
16937TIP3    H272303   1.930   3.529  12.887 -0.8237 -0.6527 -2.4297
16938TIP3   OH272304   5.070   1.467   5.004 -0.6458  0.7370 -0.1144
16938TIP3    H172305   4.994   1.503   4.958 -0.1037  2.0876  0.0134
16938TIP3    H272306   5.064   1.503   5.092 -0.6035 -0.2597  0.2981
16939TIP3   OH272307   0.505   2.687   2.886 -0.4568 -0.2168 -0.6918
16939TIP3    H172308   0.429   2.670   2.942 -0.7687 -1.1571 -1.3874
16939TIP3    H272309   0.521   2.781   2.895 -1.7453  0.0037 -0.5943
16940TIP3   OH272310   3.576   2.626  14.186 -0.0501  0.2380 -0.7292
16940TIP3    H172311   3.579   2.623  14.282  0.6411 -0.6596 -0.7758
16940TIP3    H272312   3.667   2.615  14.159 -0.0510  1.8504 -1.4681
16941TIP3   OH272313   3.387   5.046  16.398  0.2995  0.4626  0.8487
16941TIP3    H172314   3.316   5.109  16.408  0.6125  1.0944 -0.6712
16941TIP3    H272315   3.459   5.098  16.361 -0.3658 -1.3051 -3.2715
16942TIP3   OH272316   5.854   4.220  10.449  0.0478 -0.2735 -0.1891
16942TIP3    H172317   5.778   4.261  10.408 -0.7796 -0.6672  0.9169
16942TIP3    H272318   5.846   4.244  10.542 -0.0041 -2.2714  0.3357
16943TIP3   OH272319   6.481   2.176   2.440 -0.1447 -0.0048 -0.2106
16943TIP3    H172320   6.474   2.124   2.520  0.7626  0.4931  0.1988
16943TIP3    H272321   6.485   2.266   2.470  1.3328  0.1173 -0.7518
16944TIP3   OH272322   6.719   3.089  15.615 -0.1640 -0.1536 -0.0337
16944TIP3    H172323   6.652   3.056  15.556 -0.5749  1.0220 -0.2494
16944TIP3    H272324   6.782   3.132  15.558 -0.4253  0.7515  0.3477
16945TIP3   OH272325   1.961   0.098   1.726 -0.2434  0.1740 -0.5944
16945TIP3    H172326   2.046   0.141   1.733 -0.7256  0.8583  1.2481
16945TIP3    H272327   1.898   0.166   1.747 -1.0529 -1.2246  1.7260
16946TIP3   OH272328   6.718   0.510  14.846 -0.0700  0.4664  0.1606
16946TIP3    H172329   6.758   0.595  14.828  0.6524 -0.2509 -1.8008
16946TIP3    H272330   6.626   0.521  14.824  0.5519 -0.0229 -2.9444
16947TIP3   OH272331   5.334   0.081  16.914  0.8550 -0.2591  0.6074
16947TIP3    H172332   5.389   0.002  16.908  2.7797  0.9273  1.9869
16947TIP3    H272333   5.300   0.079  17.004  0.0896 -0.0225  0.3299
16948TIP3   OH272334   4.729   3.636  14.643  0.1896 -0.2546  0.1290
16948TIP3    H172335   4.795   3.702  14.622  0.0451 -0.2684 -0.3784
16948TIP3    H272336   4.657   3.654  14.582 -0.6336  0.2997  1.2519
16949TIP3   OH272337   3.052   2.522   1.165 -0.2589  0.4928 -0.4011
16949TIP3    H172338   2.960   2.494   1.160 -0.2866  0.4563  0.2422
16949TIP3    H272339   3.085   2.510   1.076 -0.7441  0.0381 -0.5271
16950TIP3   OH272340   5.266   4.582  15.013  0.0680 -0.1186 -0.4155
16950TIP3    H172341   5.272   4.519  15.085 -0.9264  0.0477 -0.1708
16950TIP3    H272342   5.185   4.630  15.031  0.3142  0.5623 -1.1331
16951TIP3   OH272343   3.874   0.605   5.277 -0.0245  0.3716  0.2612
16951TIP3    H172344   3.798   0.552   5.250 -1.8490  3.3181 -0.7065
16951TIP3    H272345   3.882   0.590   5.371 -1.0122 -0.9732  0.1480
16952TIP3   OH272346   6.118   2.442   2.322 -0.3583  0.3104  0.1528
16952TIP3    H172347   6.102   2.537   2.329  0.9830  0.4740  1.1266
16952TIP3    H272348   6.211   2.432   2.340 -0.3945 -1.1621 -0.4266
16953TIP3   OH272349   3.236   5.647   4.274 -0.1157  0.1554  0.3311
16953TIP3    H172350   3.325   5.668   4.246  0.1562 -1.5263 -0.1507
16953TIP3    H272351   3.236   5.659   4.369  0.4890  0.6103  0.2717
16954TIP3   OH272352   6.526   3.649   4.919  0.0392  1.0089  0.2295
16954TIP3    H172353   6.506   3.664   5.012  0.0394  0.8473  0.2546
16954TIP3    H272354   6.606   3.597   4.920  0.2214  1.2859  0.1335
16955TIP3   OH272355   4.788   4.615  14.538 -1.1704 -0.0198  0.0073
16955TIP3    H172356   4.793   4.594  14.632 -0.2891  0.4354  0.0608
16955TIP3    H272357   4.701   4.583  14.512 -1.3049 -0.4243  0.9096
16956TIP3   OH272358   2.110   4.073   5.478 -0.5993  0.1959 -0.0720
16956TIP3    H172359   2.170   4.011   5.520  0.3489  0.5907 -0.8187
16956TIP3    H272360   2.025   4.057   5.520  0.3260  0.5853  2.0098
16957TIP3   OH272361   6.691   0.973   6.310 -0.2421  0.3493  0.0473
16957TIP3    H172362   6.747   1.026   6.253  1.2016 -0.4647  0.6743
16957TIP3    H272363   6.739   0.891   6.321 -0.7059  0.3145  2.0501
16958TIP3   OH272364   4.218   4.417   3.514 -0.6775  0.8044  0.0824
16958TIP3    H172365   4.266   4.423   3.597 -0.8555 -1.2690  0.3740
16958TIP3    H272366   4.216   4.506   3.480 -2.7359  2.1713  3.5182
16959TIP3   OH272367   3.261   1.853   4.773 -0.1701  0.1650 -0.1003
16959TIP3    H172368   3.198   1.923   4.755  0.0467  0.9484  2.0015
16959TIP3    H272369   3.343   1.899   4.793  0.6030 -0.7834 -1.0650
16960TIP3   OH272370   4.761   2.868  15.800  0.4201 -0.2253 -0.0862
16960TIP3    H172371   4.851   2.843  15.782  0.4165 -0.3433  0.0558
16960TIP3    H272372   4.726   2.896  15.716  0.7603  0.3660 -0.0372
16961TIP3   OH272373   2.292   0.109  12.217  0.2458  0.1604  0.1536
16961TIP3    H172374   2.214   0.159  12.192  0.2167  1.5499  2.8414
16961TIP3    H272375   2.334   0.087  12.134 -2.7658 -0.2542 -1.3308
16962TIP3   OH272376   5.659   3.522  12.585 -0.2928 -0.5476  0.1687
16962TIP3    H172377   5.670   3.503  12.492 -0.3641  2.6559 -0.5197
16962TIP3    H272378   5.564   3.516  12.600 -0.4787  0.9893 -0.4164
16963TIP3   OH272379   3.032   3.932   6.346  0.2095  0.5899 -0.1650
16963TIP3    H172380   3.090   4.007   6.340  1.5249 -0.5056 -1.7308
16963TIP3    H272381   3.070   3.877   6.414 -2.1289  2.4237  2.7750
16964TIP3   OH272382   0.299   1.110  15.173 -0.1083 -0.5690 -0.0593
16964TIP3    H172383   0.346   1.193  15.159  2.0840 -1.9035 -0.9444
16964TIP3    H272384   0.208   1.136  15.188  0.4389  1.9677 -0.8581
16965TIP3   OH272385   3.083   6.586  15.238  0.2171 -0.3847 -0.1055
16965TIP3    H172386   3.099   6.555  15.148  2.2898  0.3338 -0.0050
16965TIP3    H272387   2.987   6.589  15.245  0.0036  0.5767 -2.6552
16966TIP3   OH272388   4.879   1.630  11.653  0.7492  0.0674 -0.4484
16966TIP3    H172389   4.799   1.627  11.601 -0.6300  1.1558  1.5707
16966TIP3    H272390   4.918   1.543  11.643 -0.3933 -0.2939 -1.8679
16967TIP3   OH272391   4.654   3.405  12.749  0.0778  0.1795  0.3884
16967TIP3    H172392   4.738   3.450  12.740  0.2219 -0.4012 -1.4909
16967TIP3    H272393   4.614   3.413  12.662 -1.1267 -0.8580  0.8477
16968TIP3   OH272394   4.754   5.635   1.080  0.2181 -0.0028 -0.1334
16968TIP3    H172395   4.770   5.632   0.986 -1.5350  0.1555 -0.4578
16968TIP3    H272396   4.839   5.617   1.120  1.1120  0.5692 -1.7422
16969TIP3   OH272397   6.506   0.108  16.430 -0.1613  0.2987 -0.2383
16969TIP3    H172398   6.474   0.113  16.520 -0.2105  0.9337 -0.2835
16969TIP3    H272399   6.466   0.184  16.387  1.0135  0.8219 -0.4223
16970TIP3   OH272400   2.099   0.544  15.650 -0.3661  0.1243  0.2317
16970TIP3    H172401   2.007   0.565  15.664 -0.6471 -0.9430 -0.0020
16970TIP3    H272402   2.115   0.468  15.706  0.1096 -0.3099 -0.4803
16971TIP3   OH272403   3.584   2.196  12.773 -0.2092 -0.0221  0.0811
16971TIP3    H172404   3.566   2.150  12.855 -0.5701 -0.5452 -0.2929
16971TIP3    H272405   3.617   2.128  12.714 -0.7914  0.1889 -0.4900
16972TIP3   OH272406   1.245   5.542   3.017 -0.0779  0.4427 -0.3316
16972TIP3    H172407   1.284   5.470   2.967  0.5594  0.6476 -0.1323
16972TIP3    H272408   1.306   5.556   3.090 -1.5537 -0.6103  1.1593
16973TIP3   OH272409   5.926   2.044  10.335  0.0555 -0.3453 -0.3099
16973TIP3    H172410   5.914   1.952  10.361  0.8309 -0.3040  0.1985
16973TIP3    H272411   6.011   2.046  10.292  0.1708  0.1943 -0.0602
16974TIP3   OH272412   3.823   6.471   0.115 -0.5440  0.1492 -0.0647
16974TIP3    H172413   3.742   6.445   0.157  0.0569 -1.7987 -0.0516
16974TIP3    H272414   3.824   6.422   0.032  0.3747  0.5297 -0.2866
16975TIP3   OH272415   4.149   1.261  11.267  0.0805  0.5693 -0.4787
16975TIP3    H172416   4.215   1.263  11.198  0.1491 -0.5436 -0.4504
16975TIP3    H272417   4.073   1.306  11.229  0.2250  0.2369 -1.1620
16976TIP3   OH272418   1.151   1.565   5.093 -0.2338  0.2470  0.2904
16976TIP3    H172419   1.085   1.505   5.127 -1.0605  0.9179 -0.1081
16976TIP3    H272420   1.110   1.652   5.101  0.7156  0.6942  0.3209
16977TIP3   OH272421   4.643   5.906   0.425  0.3080 -0.3084  0.0339
16977TIP3    H172422   4.567   5.939   0.473  0.0369 -0.8205 -0.0488
16977TIP3    H272423   4.619   5.915   0.332  1.6118  2.5917 -0.0864
16978TIP3   OH272424   4.709   3.046   5.521 -0.4524 -0.0842  0.5015
16978TIP3    H172425   4.636   3.096   5.559 -0.0985 -0.5528  1.8185
16978TIP3    H272426   4.692   3.048   5.426 -1.9405  0.1835  0.7538
16979TIP3   OH272427   4.864   2.463  11.848  0.4661  0.3363 -0.0355
16979TIP3    H172428   4.923   2.469  11.923  0.7046  2.3093 -0.3437
16979TIP3    H272429   4.913   2.415  11.782  1.2910  0.9255  0.1375
16980TIP3   OH272430   1.142   5.318  16.588  0.1824 -0.1768 -0.7208
16980TIP3    H172431   1.118   5.248  16.528  1.0720 -0.7451 -0.4299
16980TIP3    H272432   1.094   5.299  16.668  0.8022 -0.7511 -0.4727
16981TIP3   OH272433   1.200   5.708   1.020 -0.2231  0.0192 -0.5161
16981TIP3    H172434   1.290   5.741   1.026  0.1173 -1.1127  1.2051
16981TIP3    H272435   1.207   5.630   0.965 -0.4148  0.7786 -1.6248
16982TIP3   OH272436   0.389   1.472  11.040  0.4606 -0.2011  0.5800
16982TIP3    H172437   0.310   1.526  11.036 -0.5079 -1.7226 -1.0337
16982TIP3    H272438   0.460   1.536  11.049 -0.7195  1.3300 -0.7011
16983TIP3   OH272439   0.356   0.729  13.412 -0.1318  0.1111  0.9246
16983TIP3    H172440   0.429   0.669  13.428 -1.4534 -1.0765  2.6472
16983TIP3    H272441   0.383   0.811  13.454  0.5331 -0.0792  0.8777
16984TIP3   OH272442   4.993   1.900  15.567 -0.2147 -0.1394  0.0595
16984TIP3    H172443   4.961   1.979  15.611  2.3419  0.0932  1.5913
16984TIP3    H272444   5.045   1.934  15.494  0.3150 -0.4210  0.3070
16985TIP3   OH272445   0.649   0.471   4.809  0.2988 -0.2613 -0.4110
16985TIP3    H172446   0.689   0.535   4.869  0.0833 -0.3707 -0.1486
16985TIP3    H272447   0.581   0.520   4.763 -1.0432 -0.7329  1.0478
16986TIP3   OH272448   4.896   0.810  16.133  0.1808 -0.4824 -0.6104
16986TIP3    H172449   4.896   0.878  16.201  1.9832  0.7780 -1.8393
16986TIP3    H272450   4.861   0.733  16.177  0.4132  0.5674  1.4958
16987TIP3   OH272451   1.263   0.148  15.286  0.0514  0.2076  0.4023
16987TIP3    H172452   1.310   0.078  15.333  0.5178 -1.1274 -1.9585
16987TIP3    H272453   1.180   0.108  15.261 -1.0478  1.5574  1.7980
16988TIP3   OH272454   1.538   3.094  13.506  0.4201  0.4234  0.1433
16988TIP3    H172455   1.563   3.176  13.548  0.8070  1.5483 -2.2022
16988TIP3    H272456   1.577   3.099  13.418 -3.7668  0.0264 -1.8592
16989TIP3   OH272457   5.989   6.190   2.085  0.3038  0.5521  0.2414
16989TIP3    H172458   6.041   6.140   2.148  3.2065  1.4812 -1.3244
16989TIP3    H272459   5.995   6.139   2.004 -1.7857  0.3629  0.1843
16990TIP3   OH272460   6.202   5.578  11.401  0.0829 -0.0928  0.5311
16990TIP3    H172461   6.173   5.608  11.487 -1.4386  0.2502 -0.0875
16990TIP3    H272462   6.269   5.641  11.375 -0.7983  0.9122  0.6561
16991TIP3   OH272463   1.625   1.763  10.941  0.6211 -0.0202 -0.5207
16991TIP3    H172464   1.576   1.756  10.859  1.3117  0.8678 -1.0145
16991TIP3    H272465   1.715   1.747  10.916  0.5999 -1.6367  0.3900
16992TIP3   OH272466   2.882   0.653   5.339 -0.3357 -0.6135  0.1006
16992TIP3    H172467   2.908   0.722   5.278 -1.6879 -1.8365 -1.8901
16992TIP3    H272468   2.939   0.579   5.318 -2.0111 -1.6408 -0.9152
16993TIP3   OH272469   6.785   0.397  17.270 -0.1718  0.1553  0.0745
16993TIP3    H172470   6.762   0.434  17.185 -0.0905  0.3415  0.1334
16993TIP3    H272471   6.879   0.380  17.265  0.1871  1.8455  0.7644
16994TIP3   OH272472   2.802   3.839   0.554 -0.1528  0.0943 -0.2307
16994TIP3    H172473   2.878   3.782   0.559 -1.6685 -2.0803 -1.2030
16994TIP3    H272474   2.798   3.882   0.640  0.6694 -1.7258  0.7371
16995TIP3   OH272475   5.838   1.734   6.335 -0.1000  0.5645  0.1875
16995TIP3    H172476   5.885   1.711   6.415 -0.7142 -0.9569  0.1347
16995TIP3    H272477   5.864   1.824   6.316  1.4985  0.3016  1.0666
16996TIP3   OH272478   1.422   6.546  13.921  0.4402 -0.4266 -0.3010
16996TIP3    H172479   1.425   6.639  13.896  0.2981 -0.3382  0.0042
16996TIP3    H272480   1.340   6.514  13.883  0.3478 -0.3551 -0.1624
16997TIP3   OH272481   1.906   0.602  13.471 -0.5022 -0.4072 -0.1272
16997TIP3    H172482   1.926   0.542  13.399  0.6358 -1.4413  1.0096
16997TIP3    H272483   1.863   0.547  13.537 -0.4388  0.2615  0.4843
16998TIP3   OH272484   2.185   6.058  15.358 -0.2343  0.2806 -0.1626
16998TIP3    H172485   2.090   6.057  15.368 -0.2403  0.9995 -0.0937
16998TIP3    H272486   2.211   6.147  15.383  0.4874  0.0050  0.0959
16999TIP3   OH272487   4.852   2.653   1.088 -0.0773 -0.0749  0.6071
16999TIP3    H172488   4.810   2.637   1.172  0.6748  0.0273  1.0144
16999TIP3    H272489   4.865   2.567   1.050 -2.4183 -0.0117 -0.4215
17000TIP3   OH272490   6.720   6.725   1.637  0.3860 -0.5469  1.0309
17000TIP3    H172491   6.704   6.637   1.670 -1.2497  0.0883  1.9567
17000TIP3    H272492   6.644   6.744   1.583  0.5784  0.4452  1.1079
17001TIP3   OH272493   2.709   4.873   1.024  0.2378 -0.0435  0.6098
17001TIP3    H172494   2.658   4.953   1.015 -0.6190 -0.1079  4.2246
17001TIP3    H272495   2.652   4.804   0.992 -0.4072  0.3772  0.8492
17002TIP3   OH272496   2.136   5.852   6.776 -0.1322  0.1085  0.0562
17002TIP3    H172497   2.077   5.911   6.729 -0.1123 -0.6278 -0.8938
17002TIP3    H272498   2.213   5.846   6.720 -0.4214 -1.3757 -0.1955
17003TIP3   OH272499   3.647   0.875  16.470  0.3116  0.5585 -0.4769
17003TIP3    H172500   3.661   0.916  16.556  0.9487 -0.7742  0.0562
17003TIP3    H272501   3.552   0.862  16.465  0.5701 -2.4751  1.4922
17004TIP3   OH272502   1.130   4.981  15.472 -0.0674  0.2557  0.0420
17004TIP3    H172503   1.066   5.046  15.501  0.0963 -0.0162  1.0563
17004TIP3    H272504   1.213   5.012  15.510 -0.0689 -0.7823  0.9179
17005TIP3   OH272505   0.471   2.230  16.043  0.5149  0.0449 -0.4102
17005TIP3    H172506   0.502   2.319  16.060 -0.0441  0.3362 -0.8600
17005TIP3    H272507   0.517   2.203  15.964 -1.3400  0.9977 -1.8735
17006TIP3   OH272508   5.949   3.542   3.046  0.4809 -0.4290  0.4443
17006TIP3    H172509   5.930   3.549   2.953  1.4737 -1.1068  0.1783
17006TIP3    H272510   6.024   3.600   3.060  1.4348 -1.6409  0.4661
17007TIP3   OH272511   4.205   0.758  13.525  0.7778  0.2329  0.1132
17007TIP3    H172512   4.241   0.839  13.560  0.0060 -0.0382  1.6293
17007TIP3    H272513   4.125   0.744  13.577  0.3855 -0.9791 -0.7957
17008TIP3   OH272514   0.675   0.894   4.867  0.7996  0.0705  0.0774
17008TIP3    H172515   0.708   0.832   4.933 -1.8923 -1.7184 -0.1648
17008TIP3    H272516   0.691   0.850   4.784  0.6593  0.5584 -0.2030
17009TIP3   OH272517   3.673   2.558  17.285 -0.6987  0.2777 -0.0635
17009TIP3    H172518   3.731   2.546  17.361  1.4771 -1.9733 -1.9882
17009TIP3    H272519   3.602   2.495  17.300 -0.8763  0.6522  0.6733
17010TIP3   OH272520   3.470   0.617   0.965  0.3146 -0.1250 -0.1174
17010TIP3    H172521   3.514   0.605   0.880  0.0759  1.2051 -0.4472
17010TIP3    H272522   3.379   0.592   0.949  0.0976  0.8538 -0.4689
17011TIP3   OH272523   5.584   3.170  11.467  0.2327 -0.3959  0.1996
17011TIP3    H172524   5.522   3.220  11.521  1.1968  0.9924  0.0705
17011TIP3    H272525   5.529   3.122  11.405 -0.7394  0.5584  0.3018
17012TIP3   OH272526   0.455   3.653  15.689 -0.5795 -0.3384 -0.4995
17012TIP3    H172527   0.538   3.616  15.720 -1.2144 -0.4088  1.1444
17012TIP3    H272528   0.403   3.666  15.768 -1.6857  0.8556 -1.3986
17013TIP3   OH272529   0.331   5.719   0.002 -0.5224 -0.2448 -0.1066
17013TIP3    H172530   0.263   5.653   0.002 -0.7801  0.0153  0.8923
17013TIP3    H272531   0.303   5.783  -0.064 -1.1680 -0.2204  0.1883
17014TIP3   OH272532   4.671   2.033  10.815 -0.1624 -0.8647 -0.3894
17014TIP3    H172533   4.733   2.029  10.743  0.6491  2.0330  0.0691
17014TIP3    H272534   4.725   2.052  10.892 -1.1651 -2.5091  0.7370
17015TIP3   OH272535   4.492   6.576   0.842  0.4951 -1.2535 -0.6209
17015TIP3    H172536   4.433   6.506   0.871 -0.3141 -0.3416  0.0205
17015TIP3    H272537   4.528   6.546   0.759  1.5923 -3.2264  0.5469
17016TIP3   OH272538   5.546   2.366  16.264 -0.3620 -0.2256  0.2684
17016TIP3    H172539   5.506   2.291  16.306  0.7152 -0.8096  0.2838
17016TIP3    H272540   5.566   2.427  16.335 -0.2663 -0.3923  0.3853
17017TIP3   OH272541   5.962   2.381  15.134  0.0108 -0.5448 -0.0566
17017TIP3    H172542   5.946   2.357  15.225 -2.8065  0.1916 -0.3015
17017TIP3    H272543   5.905   2.322  15.084 -1.4263  1.6270 -1.0730
17018TIP3   OH272544   3.537   4.925  12.127  0.0530 -0.0630 -0.1089
17018TIP3    H172545   3.468   4.977  12.168  0.1148 -0.0010 -0.0824
17018TIP3    H272546   3.572   4.870  12.198  0.2579  0.1498 -0.0433
17019TIP3   OH272547   3.208   1.104  14.845 -0.4536 -0.4667 -0.3511
17019TIP3    H172548   3.139   1.060  14.894 -0.1444  0.0605  0.5674
17019TIP3    H272549   3.286   1.094  14.899 -0.2840  0.8276 -0.3307
17020TIP3   OH272550   4.826   0.516  16.093  0.6664  0.1552 -0.9108
17020TIP3    H172551   4.774   0.452  16.043 -0.6394  0.3528  0.1698
17020TIP3    H272552   4.872   0.463  16.158  1.1881  0.0778 -1.3406
17021TIP3   OH272553   3.806   0.838   3.191  0.3661  0.0869  0.2811
17021TIP3    H172554   3.737   0.894   3.228 -0.0102 -1.0853  1.4200
17021TIP3    H272555   3.770   0.749   3.198  2.0583 -0.5542  1.0422
17022TIP3   OH272556   5.136   1.203   5.386  0.0146 -0.0554 -0.0522
17022TIP3    H172557   5.207   1.149   5.352 -0.6028 -2.2667  2.0342
17022TIP3    H272558   5.179   1.265   5.445  0.4018 -0.1575 -0.2265
17023TIP3   OH272559   5.012   2.836   2.957 -0.0940  0.8701  0.6023
17023TIP3    H172560   4.919   2.858   2.948 -0.6539 -2.1870 -1.6033
17023TIP3    H272561   5.057   2.909   2.915 -1.6970  0.3243 -2.1768
17024TIP3   OH272562   5.617   2.299  14.771 -0.3058 -0.2892 -0.2714
17024TIP3    H172563   5.669   2.258  14.840  1.6042 -0.6548 -1.9092
17024TIP3    H272564   5.654   2.387  14.764 -0.5678 -0.2223 -0.7731
17025TIP3   OH272565   0.515   4.005   6.767  0.5784 -0.3200  0.1800
17025TIP3    H172566   0.438   4.057   6.788 -0.5303 -1.4281 -1.0176
17025TIP3    H272567   0.587   4.067   6.765  0.0959  0.4061  3.4240
17026TIP3   OH272568   2.926   5.694  13.115  0.2696  0.1720  0.3398
17026TIP3    H172569   2.853   5.739  13.158 -1.4312 -1.9677 -0.2283
17026TIP3    H272570   2.929   5.607  13.155  2.6128  0.2516  0.4326
17027TIP3   OH272571   2.875   1.918   4.154 -0.1752 -0.1414  0.5018
17027TIP3    H172572   2.965   1.947   4.163 -0.2841  0.3264  0.0726
17027TIP3    H272573   2.825   1.971   4.216 -0.3387  0.4465 -0.1243
17028TIP3   OH272574   5.148   5.457  15.407 -0.0123  0.0900  0.5685
17028TIP3    H172575   5.072   5.483  15.355 -0.9276 -2.1950  0.7041
17028TIP3    H272576   5.223   5.495  15.361 -1.2821  3.1462  0.9362
17029TIP3   OH272577   2.433   1.584   0.236 -0.0398  0.3839 -0.3249
17029TIP3    H172578   2.347   1.600   0.275  0.0139  1.8138 -0.7609
17029TIP3    H272579   2.426   1.497   0.197 -1.1154  0.2723  0.1071
17030TIP3   OH272580   3.237   0.727   2.333  0.5872  0.1648  1.1976
17030TIP3    H172581   3.328   0.722   2.363  1.3518  1.4707 -0.8027
17030TIP3    H272582   3.235   0.805   2.277 -1.3774 -0.8028 -0.1054
17031TIP3   OH272583   1.966   6.430  16.381  0.1462  0.2030  0.1187
17031TIP3    H172584   1.973   6.363  16.312  1.9879 -0.1110  0.5772
17031TIP3    H272585   1.898   6.397  16.440  0.2477 -0.7250 -0.2704
17032TIP3   OH272586   2.662   1.753  16.268 -0.4327  0.2905  0.7069
17032TIP3    H172587   2.757   1.754  16.280 -0.2121 -1.5843 -0.6715
17032TIP3    H272588   2.649   1.773  16.176 -1.4467  1.6495  1.1294
17033TIP3   OH272589   2.549   2.145   0.744 -0.0290  0.4547  0.6927
17033TIP3    H172590   2.462   2.171   0.713 -0.3480 -0.2932  0.9309
17033TIP3    H272591   2.542   2.150   0.839  0.4653  1.2533  0.6850
17034TIP3   OH272592   6.792   5.181  13.216  0.3326 -0.4347  0.2184
17034TIP3    H172593   6.829   5.263  13.248  0.2022 -0.0080 -0.6849
17034TIP3    H272594   6.717   5.208  13.163  0.1965 -1.1431  0.0461
17035TIP3   OH272595   2.861   5.668   2.516  0.3499 -0.0859  0.0844
17035TIP3    H172596   2.817   5.742   2.474 -2.2196 -1.9966 -0.7196
17035TIP3    H272597   2.929   5.642   2.454  0.4481  0.8077 -0.1860
17036TIP3   OH272598   5.332   4.674   5.373  0.2586  0.4031 -0.5709
17036TIP3    H172599   5.292   4.711   5.452  1.6069  1.4191 -0.3505
17036TIP3    H272600   5.267   4.611   5.341 -0.5286  0.3563  1.0522
17037TIP3   OH272601   5.933   3.225  15.851  0.7277 -0.1614 -0.1431
17037TIP3    H172602   5.855   3.170  15.840 -0.8083  2.0460 -0.6857
17037TIP3    H272603   5.990   3.200  15.778 -0.2545 -0.5459 -0.7949
17038TIP3   OH272604   3.676   1.812   2.575 -0.3078  0.1298  0.2337
17038TIP3    H172605   3.697   1.786   2.664 -0.4459 -1.6316 -0.2395
17038TIP3    H272606   3.748   1.870   2.549 -1.5207  2.6648  2.3353
17039TIP3   OH272607   5.940   5.442  13.702 -0.7061  0.6393  0.2254
17039TIP3    H172608   6.007   5.408  13.643  0.2083  0.8843  1.1068
17039TIP3    H272609   5.881   5.368  13.716 -1.3859  0.8197 -1.6244
17040TIP3   OH272610   1.974   5.509   1.916  0.3918 -0.0769 -0.0334
17040TIP3    H172611   1.894   5.558   1.934 -1.2648 -2.3891 -0.8089
17040TIP3    H272612   1.992   5.524   1.823 -0.8442 -1.8829 -0.5955
17041TIP3   OH272613   4.532   1.215   0.252  0.1719 -0.6659 -0.2402
17041TIP3    H172614   4.482   1.135   0.237 -0.3846 -0.2721 -0.5237
17041TIP3    H272615   4.540   1.221   0.347 -0.0107 -0.9230 -0.2076
17042TIP3   OH272616   2.591   6.722  16.132 -0.2530 -0.3670 -0.2879
17042TIP3    H172617   2.565   6.734  16.040  0.5873 -1.3471 -0.6574
17042TIP3    H272618   2.680   6.688  16.128 -0.4775 -1.1277  0.8821
17043TIP3   OH272619   0.782   5.749   5.111  0.3094 -0.0765  0.3115
17043TIP3    H172620   0.835   5.672   5.089  1.8700  1.2072 -0.5764
17043TIP3    H272621   0.698   5.733   5.069 -0.0056 -2.1253  1.6742
17044TIP3   OH272622   5.316   1.643  14.215 -0.1117 -0.1792 -0.1321
17044TIP3    H172623   5.253   1.591  14.264  0.4523  1.2787  2.2012
17044TIP3    H272624   5.266   1.677  14.140 -1.1949 -1.7737 -0.1557
17045TIP3   OH272625   1.713   4.903   0.117  0.5597 -0.2969 -0.7587
17045TIP3    H172626   1.738   4.887   0.208  0.4027  1.4362 -0.3993
17045TIP3    H272627   1.627   4.946   0.123 -0.2513 -1.7391 -1.7962
17046TIP3   OH272628   6.691   6.196   3.174  0.7400 -0.3789  0.1120
17046TIP3    H172629   6.674   6.203   3.080 -0.4642  0.6553  0.3872
17046TIP3    H272630   6.756   6.264   3.191 -1.5973  1.8483  0.5860
17047TIP3   OH272631   0.155   0.826  16.032 -0.4693  0.4071 -0.0803
17047TIP3    H172632   0.147   0.748  16.087 -0.3905  1.0813  0.8998
17047TIP3    H272633   0.185   0.894  16.091  3.2807  0.2733 -1.6890
17048TIP3   OH272634   1.408   1.426  15.987  0.2543  0.0852  0.2962
17048TIP3    H172635   1.437   1.440  16.078  0.7112  1.4708 -0.0481
17048TIP3    H272636   1.476   1.468  15.934  0.1291 -0.9666 -0.7009
17049TIP3   OH272637   0.075   0.079   1.767 -0.4408  0.2874  0.3332
17049TIP3    H172638   0.097   0.014   1.833  1.9087  0.4376 -0.2677
17049TIP3    H272639  -0.014   0.056   1.740 -0.2493 -1.6944  1.2837
17050TIP3   OH272640   4.217   5.508  12.706  0.0786  0.7507 -0.5918
17050TIP3    H172641   4.194   5.419  12.732 -0.3233  0.2245 -2.7090
17050TIP3    H272642   4.273   5.540  12.778 -2.6094  0.0713  1.8912
17051TIP3   OH272643   0.557   0.861   1.602  0.6499  0.0839 -0.0136
17051TIP3    H172644   0.594   0.939   1.559  0.1523 -0.1069 -0.8106
17051TIP3    H272645   0.462   0.873   1.595  0.5703 -0.7363 -0.4060
17052TIP3   OH272646   3.372   2.744  11.523 -0.4757 -0.0256 -0.2798
17052TIP3    H172647   3.463   2.722  11.544 -0.4067 -0.0141 -0.5662
17052TIP3    H272648   3.320   2.684  11.577 -0.2742 -2.2979 -2.5092
17053TIP3   OH272649   1.435   5.343   3.287 -0.7397  0.1024  0.6157
17053TIP3    H172650   1.351   5.358   3.330 -2.3090 -1.0617 -1.9534
17053TIP3    H272651   1.449   5.248   3.295  1.6790  0.6041  3.3350
17054TIP3   OH272652   4.202   2.745   5.189  0.6379 -0.6191 -0.0483
17054TIP3    H172653   4.109   2.753   5.210  0.8304  1.6005  0.1312
17054TIP3    H272654   4.207   2.760   5.095  0.8808 -0.0317  0.0559
17055TIP3   OH272655   5.214   5.360   5.597 -0.5901  0.8773  0.2419
17055TIP3    H172656   5.309   5.361   5.613 -0.7635 -0.3544  1.4249
17055TIP3    H272657   5.175   5.359   5.685 -1.6909  0.5838 -0.2438
17056TIP3   OH272658   5.522   3.530   2.046 -0.1298  0.1768  0.0997
17056TIP3    H172659   5.476   3.447   2.059  1.1530 -0.1690  2.8615
17056TIP3    H272660   5.593   3.508   1.986 -0.4357 -0.4691 -0.0407
17057TIP3   OH272661   1.168   6.427   6.191 -0.0320  0.6016  0.0586
17057TIP3    H172662   1.136   6.483   6.262  2.6704  2.7560 -0.3114
17057TIP3    H272663   1.180   6.488   6.118 -0.7425 -1.2124 -1.5810
17058TIP3   OH272664   2.477   0.289   5.564 -0.0691  0.1077  0.3273
17058TIP3    H172665   2.472   0.278   5.659  1.4047 -0.9048  0.2969
17058TIP3    H272666   2.568   0.311   5.546 -0.2596 -0.0524 -0.8911
17059TIP3   OH272667   3.680   5.204   6.574  0.5113  0.6559  0.6213
17059TIP3    H172668   3.624   5.256   6.517  2.1014  1.3940 -0.2942
17059TIP3    H272669   3.738   5.268   6.615  0.1403 -0.0015  2.2259
17060TIP3   OH272670   1.425   3.344   5.110  0.0753 -0.0016 -0.0543
17060TIP3    H172671   1.500   3.302   5.069 -0.7543 -1.7568  0.1873
17060TIP3    H272672   1.435   3.324   5.203 -0.9666 -0.7175 -0.0884
17061TIP3   OH272673   2.873   5.629  11.198  1.0928 -0.5612  0.3556
17061TIP3    H172674   2.809   5.682  11.151  0.2804 -2.4107 -0.6703
17061TIP3    H272675   2.934   5.599  11.130  1.7452 -0.6805  0.9865
17062TIP3   OH272676   3.906   0.839  12.009 -0.3115 -0.2556 -0.4237
17062TIP3    H172677   3.822   0.880  11.988 -0.1297 -0.2368 -1.1217
17062TIP3    H272678   3.908   0.760  11.956 -0.2672 -0.7152  0.2530
17063TIP3   OH272679   2.947   0.802  11.691 -0.4449 -0.2351 -0.1426
17063TIP3    H172680   2.911   0.814  11.603  0.6678  0.8214 -0.4679
17063TIP3    H272681   3.023   0.746  11.678  0.8114  1.4256 -0.1272
17064TIP3   OH272682   5.725   3.704   1.297  0.4071  0.8857 -0.7220
17064TIP3    H172683   5.804   3.665   1.335 -1.8181 -2.3879  0.7230
17064TIP3    H272684   5.671   3.629   1.273 -3.6478  3.0636  1.2317
17065TIP3   OH272685   5.520   2.655  11.202 -0.6354  0.8662  0.0603
17065TIP3    H172686   5.588   2.710  11.164 -1.3169  1.8421  0.2306
17065TIP3    H272687   5.503   2.588  11.135  0.2348  0.8192 -0.1175
17066TIP3   OH272688   3.765   4.158  10.710  0.1394 -0.5615 -0.2873
17066TIP3    H172689   3.769   4.185  10.618 -1.2021  0.3523 -0.0868
17066TIP3    H272690   3.753   4.239  10.759  0.2279 -1.1087  0.6600
17067TIP3   OH272691   2.416   3.584  16.174  0.3532  0.0047 -0.4663
17067TIP3    H172692   2.449   3.561  16.261  0.8891  0.0776 -0.6442
17067TIP3    H272693   2.495   3.595  16.121 -0.0016 -2.4326 -1.5967
17068TIP3   OH272694   0.256   1.105  16.960 -0.5160  0.5880  0.1070
17068TIP3    H172695   0.238   1.182  16.906  1.3340  1.2813  0.4373
17068TIP3    H272696   0.340   1.071  16.928  0.0883  0.3871  1.8029
17069TIP3   OH272697   5.981   0.679   0.794 -0.4945 -0.2187 -0.1868
17069TIP3    H172698   5.972   0.628   0.874 -1.5090 -0.7621 -0.6340
17069TIP3    H272699   5.953   0.768   0.817 -2.5739 -0.7981 -0.3799
17070TIP3   OH272700   2.303   3.927   5.611  0.0073 -0.3243  0.5864
17070TIP3    H172701   2.384   3.934   5.560 -0.8633  1.3334 -0.5948
17070TIP3    H272702   2.278   3.835   5.602 -0.2232 -0.0394 -2.1485
17071TIP3   OH272703   5.722   3.364   6.187 -0.5962 -0.3344  0.5555
17071TIP3    H172704   5.636   3.331   6.213 -1.3781  1.4437  0.3030
17071TIP3    H272705   5.708   3.457   6.170  0.7058 -0.6662 -2.5827
17072TIP3   OH272706   0.246   2.879   6.364  0.7920 -0.3311 -0.3843
17072TIP3    H172707   0.285   2.829   6.435 -1.9347 -0.5721  1.0220
17072TIP3    H272708   0.167   2.830   6.341 -0.1891  1.5955 -1.2241
17073TIP3   OH272709   4.742   3.535   1.801 -0.3383 -0.5272 -0.3710
17073TIP3    H172710   4.827   3.496   1.784 -0.2700 -0.7713  0.5335
17073TIP3    H272711   4.762   3.623   1.833 -0.3984 -0.9646  0.8639
17074TIP3   OH272712   6.045   4.099   5.468 -0.6622 -0.0880 -0.2611
17074TIP3    H172713   6.092   4.125   5.389 -0.8663 -0.0437 -0.3709
17074TIP3    H272714   5.953   4.118   5.447 -0.7016  0.0417  0.0333
17075TIP3   OH272715   0.660   2.303  13.382  0.0457  0.2868 -0.0643
17075TIP3    H172716   0.717   2.269  13.451 -1.1956 -0.9665  0.3775
17075TIP3    H272717   0.628   2.224  13.338 -2.5469  0.8885  0.6826
17076TIP3   OH272718   5.067   1.920   4.236  0.2130  0.1418  0.1574
17076TIP3    H172719   5.084   1.836   4.280 -1.4565 -0.1787  0.2280
17076TIP3    H272720   4.973   1.932   4.244  0.4311  1.9997  0.0661
17077TIP3   OH272721   2.280   0.768   5.452 -0.9029  0.4117 -0.7291
17077TIP3    H172722   2.197   0.769   5.404 -1.0375 -1.0986 -0.5635
17077TIP3    H272723   2.293   0.675   5.474 -0.2019  0.9127  1.0290
17078TIP3   OH272724   4.124   5.917   5.563 -0.3783  0.3498 -0.0683
17078TIP3    H172725   4.189   5.982   5.538 -0.5755  1.3468  1.9238
17078TIP3    H272726   4.126   5.917   5.659 -2.3071 -0.6246 -0.0150
17079TIP3   OH272727   2.810   5.579   5.617  0.4179  0.2028 -0.3871
17079TIP3    H172728   2.901   5.597   5.642  0.1367  1.2408 -0.1057
17079TIP3    H272729   2.759   5.648   5.659 -0.5070 -0.3606 -0.5640
17080TIP3   OH272730   5.373   6.329   0.228 -0.2870 -0.5823  0.3002
17080TIP3    H172731   5.364   6.342   0.323  2.5800  2.5725  0.2103
17080TIP3    H272732   5.307   6.386   0.190  1.2247  1.2547  0.3508
17081TIP3   OH272733   6.088   0.300   0.056  0.0383  0.2434  0.5441
17081TIP3    H172734   6.001   0.332   0.078  0.5218  0.5079  2.1908
17081TIP3    H272735   6.097   0.219   0.107  0.4772 -0.1682 -0.1833
17082TIP3   OH272736   3.444   5.294   4.568  0.0653  0.5331  0.2281
17082TIP3    H172737   3.433   5.260   4.480  2.1792 -0.9931  0.5135
17082TIP3    H272738   3.418   5.221   4.625 -0.4035  1.1898  0.8600
17083TIP3   OH272739   2.709   3.360   2.865 -0.1370  0.0525  0.2722
17083TIP3    H172740   2.714   3.307   2.785 -0.6470 -0.8090  0.8036
17083TIP3    H272741   2.670   3.301   2.930  0.8111  0.5529  1.3143
17084TIP3   OH272742   6.170   1.366   3.351 -0.4971 -0.4284  0.7015
17084TIP3    H172743   6.094   1.418   3.378 -0.6879  0.8348 -2.0351
17084TIP3    H272744   6.138   1.313   3.278  1.4187  0.7360 -1.0430
17085TIP3   OH272745   3.519   1.421  11.899 -0.0868  0.0016 -0.1909
17085TIP3    H172746   3.455   1.481  11.862  1.2730  0.5323 -1.7664
17085TIP3    H272747   3.538   1.456  11.985 -2.2202 -0.4175  0.4767
17086TIP3   OH272748   2.498   4.513   1.111 -0.0752 -0.4632 -0.5386
17086TIP3    H172749   2.436   4.582   1.134  0.9731  0.2051  0.3376
17086TIP3    H272750   2.563   4.514   1.182  1.3979 -0.5867 -1.8450
17087TIP3   OH272751   6.784   3.234   0.689  0.5087 -0.5424  0.2746
17087TIP3    H172752   6.869   3.229   0.644  0.8451  2.6641  0.4296
17087TIP3    H272753   6.733   3.296   0.636 -1.9162 -2.7214 -0.0427
17088TIP3   OH272754   1.670   4.707  11.500  0.2684  0.7787  0.1167
17088TIP3    H172755   1.730   4.750  11.561 -1.9980  1.1845  2.1640
17088TIP3    H272756   1.602   4.773  11.483 -2.6472 -1.4688  2.3964
17089TIP3   OH272757   1.554   2.128  10.809  0.1485 -0.1575  0.0984
17089TIP3    H172758   1.529   2.214  10.841  0.4606 -0.6734  1.7524
17089TIP3    H272759   1.633   2.105  10.857  0.5352 -1.0313 -0.9121
17090TIP3   OH272760   0.605   3.573  16.759 -0.4290  0.0650  0.2760
17090TIP3    H172761   0.688   3.528  16.770  0.5369  1.9930  1.0890
17090TIP3    H272762   0.585   3.609  16.845 -0.3008  2.6158 -0.7222
17091TIP3   OH272763   1.075   1.717   6.044  1.0951  0.6259 -0.1525
17091TIP3    H172764   1.077   1.681   5.956 -0.1729  0.7388 -0.2350
17091TIP3    H272765   1.155   1.770   6.051  0.7984  1.2695 -1.5129
17092TIP3   OH272766   6.320   2.484  14.955 -0.3818  0.3708  0.5208
17092TIP3    H172767   6.281   2.397  14.965 -0.5630  0.6072  2.1283
17092TIP3    H272768   6.392   2.471  14.894 -1.6951 -0.4866 -0.8883
17093TIP3   OH272769   4.609   1.498   3.162 -0.1435  0.1654 -0.2348
17093TIP3    H172770   4.648   1.568   3.110  1.8257 -1.0625 -0.4643
17093TIP3    H272771   4.666   1.422   3.146 -0.3872 -0.6300  2.5032
17094TIP3   OH272772   0.696   1.612   4.310  0.0713 -0.1259  0.3099
17094TIP3    H172773   0.690   1.654   4.224 -0.7850 -0.3884  0.2335
17094TIP3    H272774   0.694   1.518   4.290  0.9854 -0.2013  0.5457
17095TIP3   OH272775   6.748   2.485  16.714  0.0613  0.6783  0.0889
17095TIP3    H172776   6.668   2.461  16.759 -0.6608  1.7327 -0.6055
17095TIP3    H272777   6.749   2.429  16.636 -1.3891  2.4922 -1.2931
17096TIP3   OH272778   2.753   3.737  12.807  0.5283  0.5027  0.5369
17096TIP3    H172779   2.762   3.831  12.825  2.1760  0.4409  0.0370
17096TIP3    H272780   2.842   3.706  12.790 -0.1525 -0.8703 -0.7043
17097TIP3   OH272781   6.798   1.897   3.817  0.1429  0.1406 -0.0948
17097TIP3    H172782   6.851   1.974   3.838  1.7466 -1.0637  0.4001
17097TIP3    H272783   6.849   1.823   3.849  0.3721 -1.4281 -3.7305
17098TIP3   OH272784   0.629   4.902   4.641  0.2987 -0.3206  0.1233
17098TIP3    H172785   0.699   4.839   4.656 -0.1437 -0.8619 -0.0603
17098TIP3    H272786   0.570   4.890   4.715 -0.2459 -0.7542 -0.3752
17099TIP3   OH272787   3.111   4.709  14.657  0.2548 -0.1146  0.3678
17099TIP3    H172788   3.106   4.742  14.747 -2.0652 -1.4565  0.7595
17099TIP3    H272789   3.052   4.766  14.608  1.8901  0.9231 -0.4363
17100TIP3   OH272790   4.846   5.463  10.798  0.1524 -0.3500  0.5111
17100TIP3    H172791   4.773   5.522  10.781  0.7177 -0.3656 -2.1536
17100TIP3    H272792   4.923   5.521  10.801  0.3698 -0.6403  0.5558
17101TIP3   OH272793   6.551   5.041  16.891  0.3189 -0.2439  0.0684
17101TIP3    H172794   6.519   5.108  16.952  1.8247 -0.1997  0.8316
17101TIP3    H272795   6.619   4.994  16.940 -0.7412 -2.3860 -0.4237
17102TIP3   OH272796   0.027   1.737  14.514  0.2761  0.4919 -0.0264
17102TIP3    H172797  -0.060   1.759  14.547  1.0774  1.7664  1.3462
17102TIP3    H272798   0.031   1.775  14.426 -0.0442  1.7254  0.4846
17103TIP3   OH272799   6.261   2.981   3.060 -0.1911  0.3372  0.2003
17103TIP3    H172800   6.206   2.926   3.115 -3.5049  2.4270 -0.8560
17103TIP3    H272801   6.279   2.928   2.982 -1.9989  0.1250 -0.0963
17104TIP3   OH272802   4.106   6.516  16.762  0.1213 -0.3963 -0.3224
17104TIP3    H172803   4.141   6.474  16.841  1.0591 -0.4872 -0.7880
17104TIP3    H272804   4.183   6.546  16.714 -0.4668  0.0387 -0.9980
17105TIP3   OH272805   1.639   1.139  14.551 -0.1504  0.2669  0.4548
17105TIP3    H172806   1.651   1.233  14.565 -1.5117  0.6995 -1.1029
17105TIP3    H272807   1.663   1.126  14.459 -2.3534 -0.4481 -0.0531
17106TIP3   OH272808   4.810   1.723   3.221  0.0009  0.6973  0.0297
17106TIP3    H172809   4.900   1.753   3.216 -0.2885  1.3941 -1.1854
17106TIP3    H272810   4.810   1.638   3.177 -0.1788  1.2723 -1.0807
17107TIP3   OH272811   6.273   2.966  10.822 -0.0761 -0.2942  0.2470
17107TIP3    H172812   6.223   2.935  10.898 -1.7126 -1.0675 -1.1076
17107TIP3    H272813   6.222   3.039  10.788  1.3087  0.8559  0.6133
17108TIP3   OH272814   4.959   6.091   1.011 -0.1566 -0.3652  0.0193
17108TIP3    H172815   4.906   6.165   1.040  2.0348  1.1236  0.3914
17108TIP3    H272816   4.943   6.023   1.076 -1.0520  0.3169  0.5262
17109TIP3   OH272817   2.657   4.241  14.854 -0.3965  0.2214 -0.0803
17109TIP3    H172818   2.736   4.246  14.800 -0.0347 -0.6252  0.3697
17109TIP3    H272819   2.670   4.307  14.922 -0.2390  0.3230 -0.2077
17110TIP3   OH272820   3.001   6.393  11.894 -0.0406 -0.0162 -0.1762
17110TIP3    H172821   3.011   6.352  11.808 -0.8231  0.4776 -0.5008
17110TIP3    H272822   2.981   6.485  11.875  1.4943  0.4739  0.5540
17111TIP3   OH272823   6.727   6.816  15.890 -0.0375 -0.4409  0.4392
17111TIP3    H172824   6.753   6.815  15.982 -0.4002  1.3976  0.5930
17111TIP3    H272825   6.638   6.851  15.892 -1.2483 -3.3369 -0.3702
17112TIP3   OH272826   1.218   3.306  13.285  0.3452  0.0220  0.1073
17112TIP3    H172827   1.164   3.281  13.211  1.0467 -0.8003 -0.1320
17112TIP3    H272828   1.276   3.374  13.251  0.1660  0.1660  0.0919
17113TIP3   OH272829   1.307   3.486   0.871  0.1431 -0.4230  0.4293
17113TIP3    H172830   1.216   3.515   0.869  0.1425 -0.3749  1.0804
17113TIP3    H272831   1.343   3.524   0.951  0.8074 -0.2295  0.0421
17114TIP3   OH272832   0.582   5.540   0.408  0.7345  0.7509 -0.5227
17114TIP3    H172833   0.517   5.497   0.464  1.5744 -0.3183 -0.3385
17114TIP3    H272834   0.534   5.611   0.365 -0.6485 -0.2178 -0.6415
17115TIP3   OH272835   4.208   6.197   5.880 -0.6195 -0.0182 -0.2166
17115TIP3    H172836   4.160   6.139   5.939 -1.3711  2.1230  1.3328
17115TIP3    H272837   4.260   6.253   5.938  0.6235  0.4162 -1.7075
17116TIP3   OH272838   5.179   0.446  16.835 -0.9048  0.2278  0.1187
17116TIP3    H172839   5.217   0.364  16.803 -0.4533  0.0356  1.1437
17116TIP3    H272840   5.223   0.462  16.919 -1.1303  1.4145  0.0171
17117TIP3   OH272841   0.798   0.297   1.614 -0.0301  0.6793 -0.4010
17117TIP3    H172842   0.713   0.298   1.570 -0.1893 -1.1432 -0.1719
17117TIP3    H272843   0.856   0.346   1.556 -1.1249  1.5822 -0.7613
17118TIP3   OH272844   4.052   4.544   4.369  0.3728  0.0570  0.6758
17118TIP3    H172845   4.143   4.528   4.347  0.4263 -0.4128  1.2564
17118TIP3    H272846   4.054   4.581   4.457 -0.0215 -0.2860  0.8317
17119TIP3   OH272847   3.493   2.250   3.610 -0.1376 -0.4198 -0.1116
17119TIP3    H172848   3.417   2.193   3.613 -0.5692  0.1546 -0.0558
17119TIP3    H272849   3.478   2.314   3.679  1.1616 -1.2534  0.9763
17120TIP3   OH272850   1.430   0.911   0.226 -0.0087  0.4914 -0.3778
17120TIP3    H172851   1.484   0.923   0.149 -0.4886 -1.6691 -1.0877
17120TIP3    H272852   1.483   0.856   0.285  0.1061  1.5943  0.5639
17121TIP3   OH272853   0.963   5.435   5.506  0.2509 -0.7135 -0.0632
17121TIP3    H172854   0.901   5.453   5.577  2.6635  0.1450  1.9117
17121TIP3    H272855   0.998   5.348   5.526  2.7007  0.5170  1.2062
17122TIP3   OH272856   2.514   2.309  14.952 -0.2898  0.2919 -0.7363
17122TIP3    H172857   2.604   2.339  14.937  0.0496 -0.5021 -0.3048
17122TIP3    H272858   2.462   2.389  14.953  0.5310  0.8271 -0.1251
17123TIP3   OH272859   0.920   1.872  12.271 -0.2423  0.0147  0.0158
17123TIP3    H172860   0.924   1.861  12.176 -1.9855 -1.4885  0.0957
17123TIP3    H272861   0.955   1.790  12.306  0.8235  0.7416  0.7028
17124TIP3   OH272862   1.853   3.011  15.286  0.0806  0.7563  0.5303
17124TIP3    H172863   1.762   3.034  15.305 -0.4123 -1.1805  0.6063
17124TIP3    H272864   1.891   2.993  15.372  0.6048  1.7749  0.5175
17125TIP3   OH272865   2.266   2.346  12.830  0.3724 -0.3972  0.5011
17125TIP3    H172866   2.255   2.274  12.892 -1.0815  0.1129  0.8630
17125TIP3    H272867   2.184   2.395  12.836  1.6856  1.7834  0.8725
17126TIP3   OH272868   5.490   4.091  11.802 -0.2620 -0.5475 -0.3934
17126TIP3    H172869   5.510   4.066  11.892  2.1201  1.1989 -0.4013
17126TIP3    H272870   5.436   4.170  11.811 -0.0795 -0.4109 -0.4907
17127TIP3   OH272871   4.525   3.472   1.482 -0.7927  0.0654 -0.4647
17127TIP3    H172872   4.553   3.382   1.497 -1.9841  0.0291  1.6954
17127TIP3    H272873   4.438   3.464   1.443 -0.8234  0.2698 -0.4387
17128TIP3   OH272874   5.909   3.540  13.538  0.0392 -0.0766  0.0881
17128TIP3    H172875   5.920   3.528  13.444  1.2776  0.1060  0.2003
17128TIP3    H272876   5.904   3.452  13.574  2.7531 -0.2252  0.1966
17129TIP3   OH272877   6.751   0.750  16.539  0.5451 -0.5126 -0.4969
17129TIP3    H172878   6.833   0.704  16.523 -0.1707 -1.4202 -1.5963
17129TIP3    H272879   6.778   0.840  16.559  1.7960 -0.7986 -0.8527
17130TIP3   OH272880   5.682   4.300  16.348  0.1612 -0.0965 -0.3827
17130TIP3    H172881   5.675   4.390  16.319 -1.6409 -0.0503  0.1697
17130TIP3    H272882   5.770   4.294  16.387  0.2794  1.4162 -0.4032
17131TIP3   OH272883   4.592   6.811  13.266  0.1426  0.4459 -0.1262
17131TIP3    H172884   4.511   6.761  13.276  1.2181 -1.0856  1.3618
17131TIP3    H272885   4.611   6.844  13.354  0.3420  2.0923 -0.7713
17132TIP3   OH272886   1.446   4.266   4.210  0.1064 -0.0099  0.7128
17132TIP3    H172887   1.525   4.319   4.210 -0.2911  0.6143 -0.9070
17132TIP3    H272888   1.477   4.176   4.198  0.5693  0.2118  0.2430
17133TIP3   OH272889   4.281   5.299   3.512  0.1401 -0.1226  0.7014
17133TIP3    H172890   4.247   5.210   3.510 -0.2989  0.0094  1.8712
17133TIP3    H272891   4.213   5.350   3.555  0.9090  0.5506  1.1483
17134TIP3   OH272892   1.652   3.949  14.798 -0.1986 -0.6007 -0.0568
17134TIP3    H172893   1.687   4.037  14.812  0.6099 -0.5097 -2.4627
17134TIP3    H272894   1.584   3.960  14.731 -2.0500 -1.4106  1.6244
17135TIP3   OH272895   4.041   1.776   1.677  0.2327 -0.4977 -0.8108
17135TIP3    H172896   3.987   1.698   1.685  1.6325 -1.5993 -1.7290
17135TIP3    H272897   4.127   1.749   1.708  0.4837  0.9811 -0.1782
17136TIP3   OH272898   4.218   2.645  14.746 -0.6559 -0.2802 -0.2611
17136TIP3    H172899   4.123   2.644  14.737 -0.5828 -0.4241 -1.0713
17136TIP3    H272900   4.234   2.700  14.822 -1.2919  1.5611 -1.4274
17137TIP3   OH272901   6.694   4.911  11.440 -0.1779  0.1590 -0.3069
17137TIP3    H172902   6.731   4.999  11.426 -0.5130  0.4112  0.3592
17137TIP3    H272903   6.658   4.915  11.529  0.1586 -0.7826 -0.1273
17138TIP3   OH272904   2.341   3.252  11.259  0.2915 -1.0095 -0.3256
17138TIP3    H172905   2.312   3.169  11.297 -0.2488 -0.5478  0.2812
17138TIP3    H272906   2.280   3.317  11.294  2.4509  0.0895  1.5861
17139TIP3   OH272907   2.425   1.779  15.229 -0.4549 -0.6842  0.5797
17139TIP3    H172908   2.510   1.818  15.208 -0.6740 -0.0320  0.9006
17139TIP3    H272909   2.432   1.754  15.321 -0.7092 -0.3716  0.6843
17140TIP3   OH272910   0.192   5.405   4.153  0.2461 -0.1038 -0.0305
17140TIP3    H172911   0.166   5.460   4.227  0.1389  1.0943 -0.9475
17140TIP3    H272912   0.208   5.319   4.192  0.0170  0.4654  1.3565
17141TIP3   OH272913   3.500   4.576  10.631 -0.3398  0.3468 -0.4617
17141TIP3    H172914   3.428   4.633  10.658 -0.2524 -0.1172  0.7841
17141TIP3    H272915   3.575   4.634  10.622 -0.6066  0.6586 -0.6510
17142TIP3   OH272916   1.292   3.748   2.443 -0.2646 -0.2380  0.1184
17142TIP3    H172917   1.225   3.729   2.377 -0.2053 -3.0466  0.7890
17142TIP3    H272918   1.245   3.748   2.526  0.4788 -1.8607  0.5558
17143TIP3   OH272919   0.686   6.488   3.936 -0.0786  0.3111 -0.1906
17143TIP3    H172920   0.729   6.462   3.855  2.0610 -0.8016  1.2234
17143TIP3    H272921   0.737   6.563   3.967 -2.1858  2.0869 -0.9212
17144TIP3   OH272922   3.759   0.137   5.812  0.2587  0.1284 -0.2432
17144TIP3    H172923   3.813   0.064   5.840  0.0766  0.3075  0.5940
17144TIP3    H272924   3.713   0.165   5.891  0.2313  1.0614 -0.5720
17145TIP3   OH272925   5.696   4.693  12.347 -0.3853  0.2211  0.0088
17145TIP3    H172926   5.661   4.725  12.430 -1.4052  0.1010 -0.3603
17145TIP3    H272927   5.748   4.765  12.313 -0.6744  0.5912  0.3469
17146TIP3   OH272928   6.401   1.393   0.631  0.4419  0.0007 -1.0759
17146TIP3    H172929   6.411   1.417   0.723  2.4962 -1.1797 -0.9603
17146TIP3    H272930   6.363   1.471   0.590 -2.8326 -0.2858  1.1803
17147TIP3   OH272931   2.321   3.430  15.954 -0.1151 -0.3279  0.1421
17147TIP3    H172932   2.293   3.451  16.043  0.3677 -0.4847  0.3295
17147TIP3    H272933   2.379   3.502  15.929 -0.6068 -0.0516 -0.2138
17148TIP3   OH272934   6.269   2.201   0.537 -0.2531 -0.5275  0.2551
17148TIP3    H172935   6.262   2.287   0.496  0.5847 -0.8669 -0.6143
17148TIP3    H272936   6.194   2.152   0.503  1.6992 -1.5810 -2.8042
17149TIP3   OH272937   1.891   5.852   4.426  0.5656  0.2233 -0.6261
17149TIP3    H172938   1.935   5.768   4.417  1.4623  0.5361  0.7950
17149TIP3    H272939   1.962   5.916   4.434 -0.1287  0.9263 -0.0151
17150TIP3   OH272940   4.703   2.750   2.318 -0.0521  0.2010 -0.0213
17150TIP3    H172941   4.774   2.694   2.288 -0.5561 -0.2188 -0.4401
17150TIP3    H272942   4.625   2.695   2.313 -0.6395  1.1049 -0.9708
17151TIP3   OH272943   5.876   1.487  16.022  0.0544 -0.6196  0.1902
17151TIP3    H172944   5.939   1.446  15.962 -2.0109 -1.5709 -1.3625
17151TIP3    H272945   5.881   1.434  16.102  1.2603 -0.6312  0.1241
17152TIP3   OH272946   0.913   4.968  11.085  0.3014  0.0132 -0.0654
17152TIP3    H172947   0.908   4.912  11.007 -0.2825 -0.6588  0.4415
17152TIP3    H272948   0.851   5.039  11.067  1.9877  1.2208 -1.2589
17153TIP3   OH272949   0.417   2.232   0.246  0.0037 -0.0205  0.0532
17153TIP3    H172950   0.388   2.145   0.219 -0.0195  0.4167 -1.3418
17153TIP3    H272951   0.360   2.292   0.198  1.2485  0.7961 -0.3981
17154TIP3   OH272952   4.354   2.179   3.192  0.0926 -0.5436 -0.4303
17154TIP3    H172953   4.285   2.245   3.184 -0.0378 -0.6010  0.1836
17154TIP3    H272954   4.343   2.144   3.280  1.4770  0.0666 -0.0124
17155TIP3   OH272955   4.713   4.800   2.119 -0.7731  0.7747  0.0053
17155TIP3    H172956   4.683   4.803   2.028 -0.6113 -0.2615 -0.0837
17155TIP3    H272957   4.794   4.749   2.116  0.0841  2.0700  0.5044
17156TIP3   OH272958   4.878   6.018   5.419 -0.1777  0.4026 -0.3972
17156TIP3    H172959   4.961   5.981   5.390  0.6276  1.6419  0.2730
17156TIP3    H272960   4.891   6.036   5.512 -0.5223  2.4013 -0.7215
17157TIP3   OH272961   3.561   6.520  16.590 -0.3679 -0.0935  0.2191
17157TIP3    H172962   3.598   6.534  16.503 -0.2050  0.1711  0.3327
17157TIP3    H272963   3.572   6.603  16.635 -1.5212  0.1453  0.0933
17158TIP3   OH272964   5.189   1.287  11.649  0.1181  1.2483  0.0871
17158TIP3    H172965   5.184   1.194  11.625 -1.2695  1.0940  0.9689
17158TIP3    H272966   5.279   1.312  11.627  0.3560 -0.1769 -0.6144
17159TIP3   OH272967   4.289   4.937   2.461  0.6339  0.6193  0.3162
17159TIP3    H172968   4.355   4.873   2.437 -0.8659  0.0189 -2.3548
17159TIP3    H272969   4.215   4.885   2.491 -0.4387  1.0678 -1.4721
17160TIP3   OH272970   4.430   5.275  11.916 -0.1284  0.2786 -0.5185
17160TIP3    H172971   4.478   5.348  11.955 -0.5956  1.4394 -2.0269
17160TIP3    H272972   4.497   5.211  11.894  0.2726  0.1743  0.9568
17161TIP3   OH272973   3.351   6.043  11.414  0.0508 -0.0611  0.5283
17161TIP3    H172974   3.401   5.965  11.438 -0.0989 -0.4561 -0.4217
17161TIP3    H272975   3.408   6.091  11.353  1.2904  1.9867  3.1843
17162TIP3   OH272976   4.322   2.072   0.822 -0.1898 -0.3757 -0.0441
17162TIP3    H172977   4.346   1.989   0.863 -0.6777 -0.4789  0.0364
17162TIP3    H272978   4.376   2.077   0.744  1.8494  0.5314  1.3924
17163TIP3   OH272979   1.425   0.624  12.442 -0.1502  0.0807 -0.2846
17163TIP3    H172980   1.416   0.529  12.448 -2.4304  0.3188  0.5685
17163TIP3    H272981   1.447   0.640  12.351 -1.4660 -1.1514 -0.8313
17164TIP3   OH272982   3.307   4.015  11.300  0.4512 -0.6557 -0.3421
17164TIP3    H172983   3.393   4.036  11.262  0.1597  3.4129  0.9876
17164TIP3    H272984   3.324   3.942  11.359  2.4009 -1.8245 -2.2396
17165TIP3   OH272985   5.879   2.890   1.039 -0.3089 -0.2490 -0.0778
17165TIP3    H172986   5.793   2.851   1.055  0.1541 -0.5896  1.7002
17165TIP3    H272987   5.932   2.863   1.114  1.6991 -1.0088 -1.7217
17166TIP3   OH272988   1.294   0.321   5.316  0.2033  0.1166  0.5441
17166TIP3    H172989   1.313   0.413   5.303  1.2321 -0.0471  0.8467
17166TIP3    H272990   1.380   0.280   5.330 -0.2537 -0.8535  0.5809
17167TIP3   OH272991   3.104   4.661   6.495  0.2254 -0.2831 -0.2174
17167TIP3    H172992   3.185   4.711   6.501  0.9309 -1.4456  0.0774
17167TIP3    H272993   3.037   4.726   6.473  1.3642  0.5771 -1.2304
17168TIP3   OH272994   1.902   0.142   1.409 -0.1218 -0.6967  0.3766
17168TIP3    H172995   1.874   0.081   1.477 -0.6887 -0.2631  0.5343
17168TIP3    H272996   1.822   0.186   1.381  0.0445 -1.1594 -0.8662
17169TIP3   OH272997   3.818   0.309   2.797 -0.6550 -0.0077  0.0451
17169TIP3    H172998   3.837   0.403   2.791  0.3865 -0.1057  1.5517
17169TIP3    H272999   3.826   0.277   2.707 -0.7869  1.2964 -0.4403
17170TIP3   OH273000   5.605   1.751   4.981  0.3299 -0.1937 -0.2769
17170TIP3    H173001   5.529   1.698   5.006  0.4066 -0.7767 -1.2614
17170TIP3    H273002   5.605   1.824   5.044 -0.8939 -0.3195 -0.1164
17171TIP3   OH273003   1.141   1.870   0.845 -0.1477  0.2468  0.2754
17171TIP3    H173004   1.150   1.850   0.939  0.9617  1.2058  0.3869
17171TIP3    H273005   1.154   1.964   0.840 -1.5820  0.4026 -0.6944
17172TIP3   OH273006   2.104   2.539   0.047  0.6574 -0.1636 -0.0683
17172TIP3    H173007   2.136   2.472  -0.014 -0.9442 -2.0356  1.0629
17172TIP3    H273008   2.165   2.535   0.121  1.5782  0.8814 -0.7520
17173TIP3   OH273009   5.185   2.966  16.729 -0.3667 -0.5578  0.6126
17173TIP3    H173010   5.265   2.930  16.691 -0.4039  0.1763 -0.1714
17173TIP3    H273011   5.209   2.992  16.817  0.2890 -0.2105  0.3295
17174TIP3   OH273012   0.109   4.503  10.898 -0.5609 -0.7468 -0.2325
17174TIP3    H173013   0.081   4.578  10.846 -1.1496  0.5336  1.8630
17174TIP3    H273014   0.198   4.525  10.925 -1.3951  0.1123  1.9472
17175TIP3   OH273015   4.729   1.956   5.970  0.9826  0.0819  0.0844
17175TIP3    H173016   4.763   1.992   6.052  1.1122  0.3283 -0.0758
17175TIP3    H273017   4.712   2.033   5.916  1.4372 -0.1055 -0.3310
17176TIP3   OH273018   3.330   2.529  13.638 -0.1502 -0.0330  0.8347
17176TIP3    H173019   3.350   2.438  13.663 -0.7142 -0.7034 -1.0503
17176TIP3    H273020   3.391   2.582  13.690  1.5489 -1.6157  0.5380
17177TIP3   OH273021   4.777   1.061  15.153 -0.0113  0.0327 -0.9209
17177TIP3    H173022   4.815   0.982  15.113  1.3824  0.4419 -0.4291
17177TIP3    H273023   4.820   1.134  15.108  1.4970  0.5024  1.2033
17178TIP3   OH273024   3.697   6.789   0.948  0.0707  0.1349 -0.0805
17178TIP3    H173025   3.670   6.724   0.883 -3.2839  0.0157  1.3176
17178TIP3    H273026   3.688   6.873   0.903 -1.5172 -0.0005 -0.0537
17179TIP3   OH273027   1.079   5.891  13.291 -0.2392 -0.0190 -0.0107
17179TIP3    H173028   1.057   5.894  13.198  0.4400  2.2384 -0.1410
17179TIP3    H273029   1.145   5.960  13.302 -0.8971  0.2843  2.2743
17180TIP3   OH273030   1.178   5.300  12.438 -0.4089 -0.3566 -0.3433
17180TIP3    H173031   1.152   5.267  12.524  0.4116 -2.6191 -0.9099
17180TIP3    H273032   1.246   5.365  12.457  1.2436 -2.3080  0.6709
17181TIP3   OH273033   3.637   5.327   2.269 -0.7780 -0.1670 -0.4373
17181TIP3    H173034   3.690   5.265   2.318 -0.0308 -0.6077 -1.7804
17181TIP3    H273035   3.562   5.345   2.326  0.1871 -0.4785  0.9585
17182TIP3   OH273036   3.816   6.380  13.410  0.1626 -0.5470  0.5413
17182TIP3    H173037   3.740   6.428  13.443 -0.3353 -1.3853  0.6355
17182TIP3    H273038   3.881   6.447  13.392 -0.1789  0.0759  1.5918
17183TIP3   OH273039   5.995   6.412  12.734  0.3531  0.0422 -0.3681
17183TIP3    H173040   5.947   6.334  12.705 -0.8210  0.6567 -0.1314
17183TIP3    H273041   5.934   6.485  12.719  1.0963  0.8094  0.2473
17184TIP3   OH273042   6.181   0.045   5.062 -0.3204  0.0930 -0.2892
17184TIP3    H173043   6.147   0.077   4.979 -0.8480  2.4252  0.7817
17184TIP3    H273044   6.103   0.029   5.115  0.0663  0.3793  0.3726
17185TIP3   OH273045   1.458   5.712   5.385  0.0329  0.2210 -0.2043
17185TIP3    H173046   1.499   5.635   5.425  0.9775  0.8534  0.0731
17185TIP3    H273047   1.492   5.785   5.436 -0.8295  0.8240 -0.4970
17186TIP3   OH273048   0.610   4.925   1.437  0.2572 -0.2624  0.5085
17186TIP3    H173049   0.597   4.981   1.514 -0.0418 -1.5218  1.3772
17186TIP3    H273050   0.699   4.944   1.408 -0.4166  1.9381 -0.2451
17187TIP3   OH273051   2.140   2.602  16.248  0.1485 -0.0337 -0.1651
17187TIP3    H173052   2.054   2.599  16.289  0.4614  0.7819  0.5680
17187TIP3    H273053   2.140   2.530  16.185 -0.7335 -0.5925  0.4814
17188TIP3   OH273054   1.375   0.379  14.305 -0.4635 -0.4190 -0.1065
17188TIP3    H173055   1.441   0.442  14.276  0.4649 -0.6972  1.3196
17188TIP3    H273056   1.426   0.307  14.342 -1.5281 -1.8585 -1.4173
17189TIP3   OH273057   2.448   0.040  11.666  0.3554 -0.2660 -0.2501
17189TIP3    H173058   2.407   0.122  11.636 -0.0904 -0.9459 -1.5697
17189TIP3    H273059   2.376  -0.011  11.703  0.4771 -0.3895 -0.1834
17190TIP3   OH273060   5.089   1.881   2.745  0.5964  0.7367  0.2268
17190TIP3    H173061   5.107   1.907   2.654  0.6071 -0.4250 -0.1083
17190TIP3    H273062   5.121   1.791   2.751  1.6130  1.1745  1.7000
17191TIP3   OH273063   1.528   3.695   2.303  0.1235  0.7112 -0.1678
17191TIP3    H173064   1.453   3.709   2.362  0.5093  1.2377  0.2003
17191TIP3    H273065   1.513   3.755   2.230  0.2523  0.9099 -0.0313
17192TIP3   OH273066   1.723   3.095   1.903  0.3611 -0.0206 -0.1669
17192TIP3    H173067   1.734   3.027   1.970 -1.8166 -1.1350 -0.9152
17192TIP3    H273068   1.768   3.172   1.940  1.8224 -1.4861  1.2083
17193TIP3   OH273069   5.818   4.900   5.725  0.1997 -0.1602 -0.3338
17193TIP3    H173070   5.767   4.981   5.731  0.4186 -0.2039  4.6409
17193TIP3    H273071   5.753   4.832   5.705 -0.8977  0.5192  0.8605
17194TIP3   OH273072   3.858   5.752  16.240  0.8297  0.1415 -0.8809
17194TIP3    H173073   3.867   5.847  16.247 -0.7962  0.2290  0.0819
17194TIP3    H273074   3.805   5.739  16.161  1.5023  0.0162 -1.3123
17195TIP3   OH273075   0.993   4.955  17.154  0.8402  0.3609  0.1639
17195TIP3    H173076   1.005   4.972  17.061 -1.8069  1.6527 -0.0087
17195TIP3    H273077   0.951   4.869  17.158 -0.0324  0.7728  0.0696
17196TIP3   OH273078   3.597   0.169  13.508 -0.3427  0.1191 -0.0209
17196TIP3    H173079   3.513   0.177  13.552  0.7607  1.2239  1.9131
17196TIP3    H273080   3.626   0.080  13.527 -0.2269  0.3417  0.8622
17197TIP3   OH273081   6.175   1.634  16.192 -0.5358 -0.0659 -0.1115
17197TIP3    H173082   6.268   1.615  16.191 -0.8272 -1.5580  0.2760
17197TIP3    H273083   6.153   1.643  16.285 -0.9994 -0.8562 -0.1444
17198TIP3   OH273084   6.574   5.699  13.930 -0.0267  0.1925 -0.1604
17198TIP3    H173085   6.496   5.709  13.985 -1.2110  0.1018 -1.8049
17198TIP3    H273086   6.638   5.656  13.987 -0.8248  1.1790  1.5209
17199TIP3   OH273087   0.502   2.973  15.608 -0.6209  0.4063  0.8717
17199TIP3    H173088   0.591   2.965  15.642 -1.0292 -2.8972  1.3277
17199TIP3    H273089   0.455   2.899  15.646 -2.9371  0.6695 -1.3398
17200TIP3   OH273090   3.824   1.689   3.941 -0.1169 -0.4531  0.5636
17200TIP3    H173091   3.832   1.774   3.985  2.3314  0.0545 -0.7727
17200TIP3    H273092   3.734   1.661   3.958 -0.3639  1.5018  2.6553
17201TIP3   OH273093   3.568   0.385   0.339  0.2144 -0.3045  0.3663
17201TIP3    H173094   3.656   0.422   0.336  1.0020 -2.1396  0.2246
17201TIP3    H273095   3.580   0.298   0.379 -1.4310 -0.8257 -0.2317
17202TIP3   OH273096   1.884   1.223   5.489  0.1165  0.1640 -0.3838
17202TIP3    H173097   1.879   1.276   5.569 -1.0447 -0.9355  0.2896
17202TIP3    H273098   1.833   1.273   5.425 -0.4973  0.1326  0.0816
17203TIP3   OH273099   2.120   4.322  12.338 -0.4560  0.9136  0.0896
17203TIP3    H173100   2.197   4.360  12.297 -0.8194  1.7536  0.1719
17203TIP3    H273101   2.149   4.297  12.426  0.0307  0.1241 -0.2912
17204TIP3   OH273102   2.165   3.388   5.910 -0.4070  0.1828 -0.1758
17204TIP3    H173103   2.181   3.431   5.994 -1.2732  0.7716 -0.3082
17204TIP3    H273104   2.104   3.317   5.931 -0.0601 -0.1206 -0.1901
17205TIP3   OH273105   2.902   0.921   3.162 -0.3736 -0.5601  0.3407
17205TIP3    H173106   2.911   0.906   3.068  1.5747  0.8336  0.2889
17205TIP3    H273107   2.817   0.965   3.172 -0.4526 -0.4557 -0.7780
17206TIP3   OH273108   6.232   6.426  15.200 -0.0852  0.1603  0.4613
17206TIP3    H173109   6.187   6.397  15.121  1.8928 -1.6074 -0.0639
17206TIP3    H273110   6.168   6.413  15.270 -0.8145 -1.0853 -0.4224
17207TIP3   OH273111   3.744   5.424   4.529  0.7597  0.7453 -0.8263
17207TIP3    H173112   3.729   5.437   4.623 -1.5479  0.7167 -1.1723
17207TIP3    H273113   3.834   5.391   4.524 -0.2517 -2.6214  1.6604
17208TIP3   OH273114   1.606   3.097   5.347  0.1326  0.3152 -0.1231
17208TIP3    H173115   1.651   3.118   5.266  0.4128  0.8768  0.1722
17208TIP3    H273116   1.628   3.169   5.406 -0.0453 -0.1012  0.4574
17209TIP3   OH273117   2.645   2.756   2.135  0.6102  0.2762  0.1029
17209TIP3    H173118   2.694   2.676   2.116  0.3419 -0.1089  1.0427
17209TIP3    H273119   2.590   2.770   2.058  1.2853  0.0262 -0.4262
17210TIP3   OH273120   4.016   4.931  12.946 -0.0479 -0.3529  0.0447
17210TIP3    H173121   4.034   4.838  12.958 -1.6894 -0.4284  2.1787
17210TIP3    H273122   4.062   4.974  13.018 -1.7941  0.1794  0.8679
17211TIP3   OH273123   0.356   2.662  15.120 -0.3595 -0.5005  0.4118
17211TIP3    H173124   0.325   2.640  15.208  0.6454 -0.7434  0.7107
17211TIP3    H273125   0.446   2.629  15.117 -0.2250 -0.0695 -0.5432
17212TIP3   OH273126   6.057   1.383  11.449 -0.2069  0.0502 -0.2444
17212TIP3    H173127   6.150   1.384  11.428  0.0297  2.5575  0.7004
17212TIP3    H273128   6.014   1.411  11.368 -0.0476  0.0067 -0.3458
17213TIP3   OH273129   2.537   6.410  13.695  0.5866 -0.5877  0.3206
17213TIP3    H173130   2.449   6.399  13.659  1.2310 -1.4488 -1.0176
17213TIP3    H273131   2.587   6.452  13.625  1.3634 -0.5381  0.8967
17214TIP3   OH273132   5.653   4.685   5.278 -0.4803  0.6702 -0.6246
17214TIP3    H173133   5.618   4.748   5.341 -0.9042  0.0274 -0.2145
17214TIP3    H273134   5.738   4.660   5.313 -1.7711 -1.5570  0.9949
17215TIP3   OH273135   2.251   5.954   0.724 -0.9623 -0.5413 -0.0956
17215TIP3    H173136   2.186   5.923   0.660 -0.9970 -0.6022 -0.0309
17215TIP3    H273137   2.268   5.878   0.780 -0.0011 -0.8519 -0.7939
17216TIP3   OH273138   3.633   2.651   0.674 -0.2303 -0.1217 -0.1316
17216TIP3    H173139   3.678   2.637   0.591  0.2853 -0.5386  0.2137
17216TIP3    H273140   3.672   2.586   0.733 -0.1850  0.5531  0.5821
17217TIP3   OH273141   2.169   2.684   3.652  0.1020  0.0797 -0.1276
17217TIP3    H173142   2.115   2.652   3.724  2.0559  0.2150  1.4556
17217TIP3    H273143   2.147   2.777   3.645  1.0710  0.4526  1.4242
17218TIP3   OH273144   2.123   6.560  14.117  0.5004 -0.0555  0.2097
17218TIP3    H173145   2.214   6.540  14.141 -0.1175 -0.9075  1.9477
17218TIP3    H273146   2.130   6.623  14.046  2.4592 -0.0236  0.4070
17219TIP3   OH273147   2.427   4.797  16.640  0.0286  0.2217 -0.2443
17219TIP3    H173148   2.507   4.821  16.687 -0.0595 -1.0376  0.5899
17219TIP3    H273149   2.415   4.704  16.661 -0.7272 -0.0196 -1.7257
17220TIP3   OH273150   3.400   0.202   5.840  0.0758  0.0779  0.3478
17220TIP3    H173151   3.472   0.140   5.829 -0.6385 -1.2625  3.0103
17220TIP3    H273152   3.415   0.242   5.925 -1.7620  0.5135  0.4909
17221TIP3   OH273153   3.964   6.601   4.270 -0.2235  0.4421 -0.0813
17221TIP3    H173154   4.025   6.548   4.217 -0.7918 -0.5676  0.2715
17221TIP3    H273155   3.887   6.610   4.215 -0.1203  0.9348 -0.1487
17222TIP3   OH273156   1.675   3.991   3.846  0.3842 -0.2802  0.3075
17222TIP3    H173157   1.672   3.962   3.755 -0.5987 -0.9085  0.5303
17222TIP3    H273158   1.736   3.930   3.888  1.3440  0.4170 -0.0668
17223TIP3   OH273159   2.259   6.130  16.748  0.0995  0.3103  0.0432
17223TIP3    H173160   2.219   6.152  16.664  0.3983 -1.2188 -0.5229
17223TIP3    H273161   2.187   6.133  16.811 -0.4521 -0.0872 -0.5545
17224TIP3   OH273162   3.163   5.310   6.416  0.7728 -0.0967 -0.2880
17224TIP3    H173163   3.230   5.276   6.475 -0.8783 -2.2185  0.4400
17224TIP3    H273164   3.086   5.256   6.434 -0.6835  1.2924 -2.1724
17225TIP3   OH273165   4.123   6.313   1.148 -0.1547  0.4136 -0.0217
17225TIP3    H173166   4.087   6.271   1.226 -1.2586  1.3914  0.0145
17225TIP3    H273167   4.096   6.404   1.155  1.1681  0.8720 -0.7107
17226TIP3   OH273168   4.990   0.753   0.424 -0.1836 -0.6418 -0.2528
17226TIP3    H173169   4.946   0.765   0.508 -1.3613  0.2034 -0.9732
17226TIP3    H273170   4.921   0.766   0.359  0.4161 -2.5913 -1.3314
17227TIP3   OH273171   4.199   1.662  12.819  0.2118  0.3540 -0.2324
17227TIP3    H173172   4.216   1.634  12.909 -0.1171 -0.7661 -0.5045
17227TIP3    H273173   4.108   1.692  12.820 -0.0246 -0.3366 -0.3377
17228TIP3   OH273174   0.616   2.168   2.695  0.1262  0.2356 -0.3556
17228TIP3    H173175   0.681   2.153   2.626 -0.1802 -0.5709 -0.4693
17228TIP3    H273176   0.552   2.227   2.654 -0.7578 -1.2970 -1.2034
17229TIP3   OH273177   0.701   4.886   6.668  0.3292  0.0226  0.2767
17229TIP3    H173178   0.766   4.842   6.613  0.7408 -0.2894  1.0099
17229TIP3    H273179   0.633   4.821   6.683 -0.2315  0.3875 -0.5942
17230TIP3   OH273180   0.202   6.617  13.588  0.6494 -0.2698 -0.7565
17230TIP3    H173181   0.157   6.650  13.510 -2.1430 -2.0570 -0.0035
17230TIP3    H273182   0.157   6.660  13.661  1.9914 -0.0512 -0.0402
17231TIP3   OH273183   3.981   1.614   5.196  0.4823 -0.3376  0.0416
17231TIP3    H173184   3.896   1.660   5.191  0.5729 -0.0371  1.0994
17231TIP3    H273185   3.958   1.522   5.207  0.2818 -0.1991  0.8271
17232TIP3   OH273186   2.736   4.436   3.098 -0.0986  0.4026  0.2185
17232TIP3    H173187   2.659   4.380   3.096  0.2970 -0.0794 -1.9320
17232TIP3    H273188   2.713   4.510   3.042  0.8452  0.4691 -0.0878
17233TIP3   OH273189   6.693   2.378   0.909  0.2055  0.0906 -0.3396
17233TIP3    H173190   6.658   2.467   0.917 -0.4527 -0.1596 -0.3731
17233TIP3    H273191   6.642   2.327   0.972 -0.1067 -0.4613 -1.0305
17234TIP3   OH273192   3.593   2.201   5.167  0.3600  0.1400  0.4887
17234TIP3    H173193   3.508   2.157   5.172  0.4571 -0.5237 -2.7330
17234TIP3    H273194   3.571   2.294   5.165 -0.3104 -0.0326 -0.3991
17235TIP3   OH273195   5.332   1.889  16.812  0.3163 -0.0552 -0.1975
17235TIP3    H173196   5.340   1.959  16.876 -1.7647  1.6235 -1.7083
17235TIP3    H273197   5.416   1.842  16.817  0.9774  1.2830  2.2383
17236TIP3   OH273198   1.827   5.002   1.826  0.6862 -0.8680  0.7767
17236TIP3    H173199   1.890   5.074   1.833  0.2692 -0.6704  2.7326
17236TIP3    H273200   1.862   4.934   1.883  0.6839 -1.9491 -0.4801
17237TIP3   OH273201   5.687   2.904   2.710  0.2335  0.2225  0.0282
17237TIP3    H173202   5.726   2.928   2.626 -0.9913  0.6200 -0.4349
17237TIP3    H273203   5.631   2.978   2.732  0.3410  0.0030  1.0730
17238TIP3   OH273204   0.549   2.823  11.782  0.4217  0.1328  0.3297
17238TIP3    H173205   0.616   2.756  11.783  0.7652  0.4573 -0.4653
17238TIP3    H273206   0.550   2.858  11.692 -0.7598  0.1796  0.3206
17239TIP3   OH273207   4.173   2.521   0.928  0.3346 -0.1670  0.4746
17239TIP3    H173208   4.196   2.449   0.987  0.8610 -0.5206 -0.1528
17239TIP3    H273209   4.256   2.548   0.890  0.0236  0.1697  0.0253
17240TIP3   OH273210   0.042   1.845  12.768  0.1319 -0.6085 -0.4317
17240TIP3    H173211  -0.007   1.771  12.732 -0.2140 -0.7892  0.4046
17240TIP3    H273212   0.019   1.846  12.860  0.0831  0.5916 -0.4547
17241TIP3   OH273213   1.053   2.903  14.615  0.2927 -0.2507 -0.1158
17241TIP3    H173214   1.122   2.969  14.612 -2.0293  2.2535 -0.6345
17241TIP3    H273215   1.020   2.906  14.705  0.6271 -1.2393  0.0545
17242TIP3   OH273216   0.270   0.679  14.027 -0.4521  0.3214 -0.5307
17242TIP3    H173217   0.285   0.659  14.119  0.6493  1.3228 -0.4833
17242TIP3    H273218   0.229   0.600  13.992 -1.0392 -0.0103  0.8467
17243TIP3   OH273219   4.360   5.139   1.623 -0.5817 -0.1655 -0.1143
17243TIP3    H173220   4.304   5.189   1.562 -1.6172  0.5295  1.3632
17243TIP3    H273221   4.376   5.056   1.578 -1.0226  0.4671 -1.4899
17244TIP3   OH273222   1.524   1.671   6.574 -0.5615  0.2507 -0.3312
17244TIP3    H173223   1.590   1.647   6.639 -1.3439  0.1414  0.4144
17244TIP3    H273224   1.502   1.761   6.594  0.9947  1.0314 -1.9739
17245TIP3   OH273225   5.231   3.126  15.375  0.3005  0.2819  0.9385
17245TIP3    H173226   5.244   3.036  15.345 -0.1007 -0.2277  2.2566
17245TIP3    H273227   5.224   3.119  15.470  2.5026  1.9834  1.2468
17246TIP3   OH273228   3.424   3.699   4.318 -0.2034  0.3709  0.0925
17246TIP3    H173229   3.357   3.763   4.294 -0.6955  0.9664  2.8762
17246TIP3    H273230   3.394   3.664   4.403  2.3201 -0.3161  0.7296
17247TIP3   OH273231   3.138   5.241  16.406  0.3237  0.9448  0.4163
17247TIP3    H173232   3.159   5.322  16.358  1.8447  1.9592  2.6473
17247TIP3    H273233   3.064   5.265  16.462 -0.5283  0.1899 -0.3824
17248TIP3   OH273234   1.871   3.760   0.580  0.3007  0.2702  0.4190
17248TIP3    H173235   1.859   3.698   0.508 -0.6982  0.4913  0.3983
17248TIP3    H273236   1.961   3.790   0.569  0.3161 -0.0599 -0.4540
17249TIP3   OH273237   0.724   3.861   2.669 -0.5055  0.4859  0.2097
17249TIP3    H173238   0.772   3.943   2.683  0.8851 -0.0989 -0.9711
17249TIP3    H273239   0.703   3.831   2.758  1.0717  0.9087  0.7531
17250TIP3   OH273240   3.601   0.717   0.455  0.0819  0.5228  0.2088
17250TIP3    H173241   3.547   0.683   0.526 -1.3894  1.3825 -0.4713
17250TIP3    H273242   3.544   0.716   0.379  1.4921  0.0967 -0.8479
17251TIP3   OH273243   0.477   0.446  11.331 -0.2966  0.1573  0.2860
17251TIP3    H173244   0.402   0.410  11.378 -0.8947  0.3067 -0.5450
17251TIP3    H273245   0.522   0.369  11.296  0.7841 -0.0328  2.0192
17252TIP3   OH273246   4.721   1.743   0.345 -0.3716 -0.3670  0.4829
17252TIP3    H173247   4.800   1.744   0.399  1.8737 -0.0397 -2.7128
17252TIP3    H273248   4.683   1.656   0.361  1.6485 -1.2467  0.6904
17253TIP3   OH273249   5.790   0.668  11.263  0.0247 -0.0818 -0.2742
17253TIP3    H173250   5.776   0.758  11.232 -0.0299 -0.5706 -1.7256
17253TIP3    H273251   5.768   0.614  11.187  2.0421 -1.2250 -0.0803
17254TIP3   OH273252   3.577   4.629  13.297  0.3276 -0.9608  0.6846
17254TIP3    H173253   3.660   4.674  13.283  0.7091 -2.0113 -0.4753
17254TIP3    H273254   3.526   4.646  13.218 -0.5892 -0.3019  1.3973
17255TIP3   OH273255   3.534   4.945   0.085  0.2478  0.2870  0.2734
17255TIP3    H173256   3.463   4.964   0.023  0.1658  1.9911  0.8524
17255TIP3    H273257   3.490   4.909   0.162  0.1331  0.1766  0.1555
17256TIP3   OH273258   1.716   5.458  15.085  0.0195  0.0399 -0.0945
17256TIP3    H173259   1.727   5.385  15.146 -0.4196 -1.0352 -1.2703
17256TIP3    H273260   1.775   5.437  15.013 -0.7540  0.4132 -0.8352
17257TIP3   OH273261   3.441   4.107  16.388 -0.0655 -0.4578 -0.1017
17257TIP3    H173262   3.520   4.079  16.432 -0.6553 -1.0783  0.5644
17257TIP3    H273263   3.471   4.138  16.302  1.2100  1.6667  1.0683
17258TIP3   OH273264   6.797   2.360  13.614  0.1013  0.8056 -0.5099
17258TIP3    H173265   6.709   2.347  13.579 -1.6038  3.2805  2.5968
17258TIP3    H273266   6.849   2.290  13.575 -3.2856 -0.8940 -2.1812
17259TIP3   OH273267   2.915   2.153   3.562 -0.9006  0.2257  0.0051
17259TIP3    H173268   2.917   2.246   3.541  0.8379  0.2649  0.2414
17259TIP3    H273269   2.870   2.147   3.646 -0.7510  0.8907  0.1321
17260TIP3   OH273270   6.314   5.598  13.315  0.2191 -0.7946  0.8083
17260TIP3    H173271   6.297   5.538  13.243  0.6347 -1.8731  1.6020
17260TIP3    H273272   6.379   5.554  13.369  0.8650  0.5572  1.1731
17261TIP3   OH273273   6.242   5.099  11.533  0.6757 -0.0941  0.1233
17261TIP3    H173274   6.299   5.160  11.579  1.0081 -0.0210 -0.3821
17261TIP3    H273275   6.268   5.012  11.565  0.1077  0.0387  0.9438
17262TIP3   OH273276   0.989   4.331   5.987  0.1944 -0.0471 -0.5361
17262TIP3    H173277   1.029   4.257   6.032  0.8636 -1.3126 -3.1752
17262TIP3    H273278   0.915   4.293   5.940  0.4293  0.9866 -1.7598
17263TIP3   OH273279   4.085   5.872   3.011 -0.0651 -0.0040  0.6981
17263TIP3    H173280   4.039   5.803   3.059 -0.6284 -1.0506 -1.2893
17263TIP3    H273281   4.177   5.848   3.017 -0.2540 -0.9403  0.0521
17264TIP3   OH273282   4.290   1.668  16.670  0.0205 -0.2043 -0.1357
17264TIP3    H173283   4.355   1.658  16.600  0.4846  2.1341 -0.0848
17264TIP3    H273284   4.215   1.616  16.641  0.5944 -0.0657 -1.9132
17265TIP3   OH273285   4.329   5.572  16.142  0.2062 -0.3218 -0.2778
17265TIP3    H173286   4.292   5.645  16.093  0.6564 -0.4425 -0.7939
17265TIP3    H273287   4.399   5.538  16.086  0.3640 -0.7966  0.2073
17266TIP3   OH273288   1.106   4.788   0.748 -0.0190  0.0694 -0.4212
17266TIP3    H173289   1.113   4.760   0.656  0.5185 -0.4015 -0.2357
17266TIP3    H273290   1.178   4.744   0.792  0.1097  0.8063  0.1118
17267TIP3   OH273291   4.850   2.095  12.293  0.2288  0.4373 -0.2743
17267TIP3    H173292   4.887   2.116  12.379  0.2148  1.2859 -0.4755
17267TIP3    H273293   4.846   1.999  12.292  2.6884  0.2962 -0.3498
17268TIP3   OH273294   3.760   5.892   3.891  0.1779 -0.6673  0.2766
17268TIP3    H173295   3.708   5.935   3.959 -1.6470  1.0841 -2.1832
17268TIP3    H273296   3.702   5.826   3.854  0.8188 -0.8821 -0.3585
17269TIP3   OH273297   5.950   6.440  14.811  0.1761  0.6463  0.2538
17269TIP3    H173298   5.865   6.461  14.774  0.1619  1.2011  0.5886
17269TIP3    H273299   5.986   6.372  14.754 -0.7033  0.0518  0.4089
17270TIP3   OH273300   6.062   0.976  13.817 -0.4954  0.3580 -0.1757
17270TIP3    H173301   6.053   1.054  13.873  0.0557 -1.1488  2.0815
17270TIP3    H273302   6.075   1.012  13.729  0.6800  2.8603  0.9454
17271TIP3   OH273303   3.318   2.157   0.750  0.2073 -0.2762 -0.3224
17271TIP3    H173304   3.244   2.102   0.725  0.3881 -0.9026  0.4773
17271TIP3    H273305   3.293   2.192   0.836 -0.2013  1.4403 -1.1341
17272TIP3   OH273306   6.474   5.194  15.988  0.2090 -0.1277 -0.1440
17272TIP3    H173307   6.533   5.213  15.915 -0.2263  2.7488  0.2043
17272TIP3    H273308   6.387   5.193  15.949  0.2757 -2.2431 -0.2801
17273TIP3   OH273309   3.399   1.815  13.429 -0.6064  0.2882  0.5832
17273TIP3    H173310   3.335   1.769  13.483 -0.7079 -0.3903 -0.1143
17273TIP3    H273311   3.470   1.753  13.417 -0.9193  0.1601 -0.6917
17274TIP3   OH273312   4.523   4.798  14.630 -0.6802  0.1870  0.0571
17274TIP3    H173313   4.546   4.891  14.621  0.7206 -0.0711  0.9141
17274TIP3    H273314   4.490   4.790  14.719 -0.3448 -0.2353  0.1439
17275TIP3   OH273315   2.817   2.051  14.096  0.4340  0.3430  0.0996
17275TIP3    H173316   2.810   1.984  14.164  0.5579 -0.4367 -0.6503
17275TIP3    H273317   2.796   2.005  14.014  1.0373  1.0969 -0.4889
17276TIP3   OH273318   3.672   2.125   0.226  0.0466  0.2066 -0.4664
17276TIP3    H173319   3.618   2.189   0.272  0.4278  2.0023 -2.4337
17276TIP3    H273320   3.704   2.067   0.295 -0.8257  1.7352  1.2877
17277TIP3   OH273321   0.082   1.957  14.835  0.0073 -0.0903  0.3851
17277TIP3    H173322   0.104   2.050  14.836 -0.2928  0.0090  2.9379
17277TIP3    H273323  -0.007   1.954  14.802 -0.4969  0.6915  1.6244
17278TIP3   OH273324   6.191   1.146   1.430 -0.0878  0.6472 -0.4895
17278TIP3    H173325   6.285   1.127   1.425  0.0627  1.4171 -0.5502
17278TIP3    H273326   6.153   1.067   1.470  0.9039  1.2890  1.8397
17279TIP3   OH273327   1.227   3.204   4.061 -0.5389 -0.0089 -0.0450
17279TIP3    H173328   1.138   3.181   4.084 -1.0972  0.9305 -1.1897
17279TIP3    H273329   1.272   3.215   4.145 -1.1742 -1.6569  0.5176
17280TIP3   OH273330   6.192   4.359  14.087  0.1524  0.2980  0.3119
17280TIP3    H173331   6.150   4.290  14.035 -1.2292  1.2429  0.1526
17280TIP3    H273332   6.274   4.377  14.041 -1.8175  2.3271 -2.5787
17281TIP3   OH273333   3.633   1.210   5.592  0.0616  0.3694  0.6681
17281TIP3    H173334   3.571   1.226   5.663 -2.1092 -3.8087 -0.1373
17281TIP3    H273335   3.623   1.286   5.533 -0.6534  2.1342  3.0044
17282TIP3   OH273336   4.635   1.367   5.608 -0.2798  0.2879 -0.4755
17282TIP3    H173337   4.585   1.320   5.674 -2.6060  1.5162 -1.2951
17282TIP3    H273338   4.721   1.326   5.609 -0.4317 -0.1193  2.8876
17283TIP3   OH273339   1.875   3.177   3.885 -0.5352  0.2626  0.4372
17283TIP3    H173340   1.879   3.251   3.826 -0.5370 -1.6244 -2.0087
17283TIP3    H273341   1.929   3.110   3.844 -0.2803 -1.0140  2.7341
17284TIP3   OH273342   0.932   0.526  11.895 -0.1966 -0.1077  0.3472
17284TIP3    H173343   0.981   0.495  11.972  2.1375  0.7214 -0.7461
17284TIP3    H273344   0.988   0.503  11.821 -2.1668 -0.3981 -1.0697
17285TIP3   OH273345   3.918   6.220   5.075  0.0010  0.2186 -0.3893
17285TIP3    H173346   3.905   6.168   5.154  0.8432 -0.0861 -0.4361
17285TIP3    H273347   3.976   6.166   5.021 -1.6125 -0.1728 -1.7897
17286TIP3   OH273348   3.345   4.420  14.442  0.0671  0.5545 -0.5220
17286TIP3    H173349   3.381   4.497  14.487  0.1585 -0.6179  1.4763
17286TIP3    H273350   3.392   4.417  14.359  0.6192  2.2210 -0.3000
17287TIP3   OH273351   3.819   2.159  14.919 -0.2344  0.3926  0.1259
17287TIP3    H173352   3.767   2.239  14.929 -4.4673 -2.0735 -0.6475
17287TIP3    H273353   3.824   2.122  15.007 -1.2975 -0.1901 -0.0436
17288TIP3   OH273354   1.360   4.806   2.764 -0.0602  0.4907  0.0267
17288TIP3    H173355   1.277   4.789   2.718 -0.3708  1.7676  0.1036
17288TIP3    H273356   1.390   4.890   2.729  0.9511  0.2812  0.3752
17289TIP3   OH273357   5.561   2.267  13.335  0.2000  0.0673 -0.3767
17289TIP3    H173358   5.590   2.320  13.261 -0.2252  1.0725  0.1721
17289TIP3    H273359   5.475   2.303  13.358  0.5155  0.0369  0.8754
17290TIP3   OH273360   6.766   0.997   5.364  0.4087  0.0563 -0.2541
17290TIP3    H173361   6.684   0.966   5.404 -0.3153  1.5007 -0.5879
17290TIP3    H273362   6.752   1.090   5.350  2.2125  0.3695 -0.1222
17291TIP3   OH273363   2.511   3.873   4.573  0.1750 -0.2558 -0.4744
17291TIP3    H173364   2.566   3.943   4.610  0.5276 -0.1044 -1.2567
17291TIP3    H273365   2.563   3.794   4.585 -0.4176 -0.4568  0.8138
17292TIP3   OH273366   2.267   6.192   0.937 -0.2382 -0.8209 -0.0122
17292TIP3    H173367   2.271   6.144   0.855  0.7013 -0.4728 -0.1738
17292TIP3    H273368   2.354   6.231   0.947 -0.6128 -0.1490  0.7170
17293TIP3   OH273369   4.406   1.507  15.638 -0.3841  0.2197 -0.5833
17293TIP3    H173370   4.389   1.438  15.702  0.5644  2.2368  1.9564
17293TIP3    H273371   4.458   1.465  15.570  0.3438 -1.5106  1.0080
17294TIP3   OH273372   4.324   6.218   4.521  0.5292 -0.0899  0.3959
17294TIP3    H173373   4.365   6.142   4.480  0.1825 -1.0550  1.8080
17294TIP3    H273374   4.351   6.214   4.613 -0.8310  0.5751  0.8448
17295TIP3   OH273375   4.686   2.681  13.110 -0.4775  0.1508 -0.0499
17295TIP3    H173376   4.690   2.773  13.085 -1.1949  0.3651  0.6123
17295TIP3    H273377   4.617   2.677  13.176  0.1001 -0.7246  0.5114
17296TIP3   OH273378   4.304   1.718  15.993 -0.1295 -0.9619 -0.6152
17296TIP3    H173379   4.283   1.639  16.042  0.5690 -0.4855  0.4648
17296TIP3    H273380   4.400   1.719  15.988 -0.1094  0.0760 -0.1860
17297TIP3   OH273381   3.172   5.960  16.523 -0.0986 -0.1200 -0.0513
17297TIP3    H173382   3.156   5.953  16.617  2.0788 -0.8270  0.2957
17297TIP3    H273383   3.215   6.044  16.512  0.2164 -0.3130 -0.3171
17298TIP3   OH273384   2.277   0.862  12.044  0.1818  0.4233 -0.4794
17298TIP3    H173385   2.272   0.932  12.109  0.9511 -0.6762  0.7850
17298TIP3    H273386   2.341   0.893  11.981  1.8707  0.0921  1.0448
17299TIP3   OH273387   3.310   6.406   3.916 -0.3164 -0.2785 -0.8571
17299TIP3    H173388   3.303   6.429   3.823  0.4861  2.7639 -0.2472
17299TIP3    H273389   3.221   6.417   3.950 -0.5443 -1.0721 -1.1832
17300TIP3   OH273390   3.148   3.565  12.287 -0.4185 -0.0179  0.1647
17300TIP3    H173391   3.173   3.555  12.196 -0.7430  2.9421 -0.2959
17300TIP3    H273392   3.096   3.487  12.307 -3.0153  0.7917 -3.1113
17301TIP3   OH273393   5.372   6.365   3.628  0.5245  0.1641  0.3792
17301TIP3    H173394   5.439   6.341   3.563 -0.3704  1.9190 -1.2519
17301TIP3    H273395   5.376   6.461   3.631 -2.8628  0.4037 -0.8266
17302TIP3   OH273396   1.385   5.572   2.332  0.2719  0.5988  0.0581
17302TIP3    H173397   1.318   5.621   2.379 -1.4600  0.0662 -1.7518
17302TIP3    H273398   1.339   5.495   2.299  1.3613  1.0102 -2.5637
17303TIP3   OH273399   5.328   1.467   3.020 -0.1302  0.9879  0.2038
17303TIP3    H173400   5.276   1.452   3.099  0.6834  1.6995  0.8899
17303TIP3    H273401   5.277   1.532   2.970  0.6298  2.5579  1.4214
17304TIP3   OH273402   5.606   6.342  16.771  0.1063 -0.3721 -0.4246
17304TIP3    H173403   5.566   6.285  16.705  1.4220  0.0107 -1.5812
17304TIP3    H273404   5.551   6.420  16.772 -0.4938 -0.7893 -0.3480
17305TIP3   OH273405   0.920   3.244  13.735  0.0702  0.4801  0.2989
17305TIP3    H173406   0.827   3.259  13.721 -0.2857 -0.1482  1.8625
17305TIP3    H273407   0.963   3.295  13.667 -1.4924 -1.1773 -2.0002
17306TIP3   OH273408   3.408   1.654   0.008  0.2413  0.8968 -0.3885
17306TIP3    H173409   3.409   1.639   0.102 -3.0875  2.0018 -0.0967
17306TIP3    H273410   3.471   1.724  -0.006  0.7698  0.7132  1.0128
17307TIP3   OH273411   0.166   5.753  13.553 -0.1056  0.1951 -0.2115
17307TIP3    H173412   0.213   5.674  13.579  1.3095  0.3789 -2.1512
17307TIP3    H273413   0.076   5.723  13.536  0.5733 -1.1467 -1.5870
17308TIP3   OH273414   0.280   3.038   2.994  0.0107  0.4416 -0.4806
17308TIP3    H173415   0.290   3.128   3.024  0.2854  0.4386 -0.5633
17308TIP3    H273416   0.369   3.009   2.974  0.0228 -0.1256  0.3523
17309TIP3   OH273417   3.746   1.823  11.379  0.4713 -0.0642  0.0201
17309TIP3    H173418   3.797   1.795  11.455 -2.0062 -1.6680  1.1473
17309TIP3    H273419   3.738   1.744  11.325 -0.9743  0.1101 -0.0452
17310TIP3   OH273420   1.069   0.394   3.187 -0.1182 -0.1215  0.1538
17310TIP3    H173421   1.129   0.419   3.258  1.7621 -1.5221 -0.8882
17310TIP3    H273422   1.084   0.459   3.119  0.4281 -0.6187 -0.2084
17311TIP3   OH273423   1.893   5.805   0.154 -0.4594 -0.0289 -0.1283
17311TIP3    H173424   1.898   5.869   0.084  0.3727  0.8905  0.7458
17311TIP3    H273425   1.985   5.785   0.175 -0.7042 -1.3059 -0.2155
17312TIP3   OH273426   1.523   5.587  14.836  0.0348 -0.7535 -0.0095
17312TIP3    H173427   1.536   5.544  14.752 -0.9904  2.1785 -1.7584
17312TIP3    H273428   1.604   5.635  14.851 -0.3576 -0.0556 -0.0949
17313TIP3   OH273429   1.493   3.280  17.055 -0.5328  0.6000  0.0146
17313TIP3    H173430   1.412   3.301  17.008  0.0184 -2.6226 -2.5720
17313TIP3    H273431   1.551   3.244  16.988  1.9898  0.1263  2.3666
17314TIP3   OH273432   3.756   1.678  16.440 -0.1061 -0.2275  0.5139
17314TIP3    H173433   3.780   1.763  16.403 -0.6799 -0.2716  0.0271
17314TIP3    H273434   3.795   1.614  16.381 -0.5141 -0.2995  0.3183
17315TIP3   OH273435   6.816   1.099   4.810  0.0976 -0.2197 -0.0626
17315TIP3    H173436   6.851   1.021   4.767 -2.6875 -1.5638  0.0350
17315TIP3    H273437   6.820   1.078   4.903  0.1373  0.0842  0.0035
17316TIP3   OH273438   2.452   2.719   4.810  0.1051 -0.5613 -0.6988
17316TIP3    H173439   2.370   2.670   4.811  1.4292 -2.8501  0.9172
17316TIP3    H273440   2.511   2.667   4.755  1.2898 -0.3919  0.3915
17317TIP3   OH273441   0.731   2.738   4.301  0.1858 -0.2706  0.3005
17317TIP3    H173442   0.707   2.829   4.281  0.3439  0.0153  1.3902
17317TIP3    H273443   0.823   2.742   4.325 -0.0085 -0.5878  1.1326
17318TIP3   OH273444   3.398   2.175   5.527  0.3601  0.2247 -0.0821
17318TIP3    H173445   3.411   2.188   5.621  0.0289  0.5346 -0.0789
17318TIP3    H273446   3.303   2.177   5.515  0.3511 -1.1439 -0.2367
17319TIP3   OH273447   2.147   1.244  12.494  0.3085 -0.0187  0.8819
17319TIP3    H173448   2.157   1.317  12.433  0.2635 -1.1069 -0.4551
17319TIP3    H273449   2.059   1.254  12.529 -0.2702 -0.2954 -0.4621
17320TIP3   OH273450   5.246   4.223   0.307  0.0791 -0.3248 -0.3265
17320TIP3    H173451   5.328   4.196   0.267 -0.7487 -2.7177 -0.4471
17320TIP3    H273452   5.255   4.318   0.319  2.2166 -0.3298 -1.7700
17321TIP3   OH273453   6.376   4.406   1.484  0.5094  0.1475  0.7283
17321TIP3    H173454   6.367   4.472   1.416  1.9730 -1.5770 -1.2173
17321TIP3    H273455   6.305   4.344   1.467  0.3294  0.1841  1.3362
17322TIP3   OH273456   0.591   0.204  11.296  0.0187  0.3786 -0.0459
17322TIP3    H173457   0.658   0.136  11.304 -0.5886 -0.2405 -0.1404
17322TIP3    H273458   0.539   0.178  11.220  1.0760  2.1103 -1.4066
17323TIP3   OH273459   5.691   4.931   1.853  0.3640 -0.0696  0.5161
17323TIP3    H173460   5.697   4.912   1.759  0.0132 -0.5215  0.5818
17323TIP3    H273461   5.781   4.927   1.884  0.4750  0.0105  0.2095
17324TIP3   OH273462   2.139   4.263   6.537 -0.2237  0.6455  0.1364
17324TIP3    H173463   2.149   4.181   6.487  1.4461  1.6357 -1.2401
17324TIP3    H273464   2.069   4.310   6.492  0.1230  0.7924 -0.2593
17325TIP3   OH273465   5.542   0.529   2.906 -0.0800  0.0645 -0.5027
17325TIP3    H173466   5.602   0.459   2.932  0.3474  0.4197 -0.5358
17325TIP3    H273467   5.468   0.520   2.965 -0.2131 -0.6750 -0.7675
17326TIP3   OH273468   2.388   3.561   3.127 -0.1823  0.1498 -0.1188
17326TIP3    H173469   2.445   3.484   3.124 -0.2739 -0.0537  2.0881
17326TIP3    H273470   2.444   3.629   3.165 -0.4341  0.8846 -1.0473
17327TIP3   OH273471   1.866   5.492   3.368  0.1446  0.5316 -0.0289
17327TIP3    H173472   1.789   5.477   3.422 -0.2773 -2.2510 -1.2964
17327TIP3    H273473   1.922   5.415   3.385  0.5341  0.2141 -2.6140
17328TIP3   OH273474   3.600   3.229  12.666 -0.4802  0.1567 -0.1778
17328TIP3    H173475   3.538   3.296  12.638 -1.0944 -0.6677 -0.8182
17328TIP3    H273476   3.673   3.237  12.605 -1.4249 -1.0461 -1.5033
17329TIP3   OH273477   6.571   4.694  10.755  0.0705  0.2878 -0.2384
17329TIP3    H173478   6.657   4.734  10.763 -0.1335  0.6356  0.2059
17329TIP3    H273479   6.543   4.678  10.846 -1.3341  2.3058 -0.3012
17330TIP3   OH273480   2.116   1.100   6.011 -0.5477 -0.1220 -0.7734
17330TIP3    H173481   2.189   1.147   5.970 -1.2109  0.1894 -1.6116
17330TIP3    H273482   2.095   1.030   5.949 -0.2918 -0.8524 -0.0455
17331TIP3   OH273483   2.483   3.965  10.667 -0.3124 -0.0672  0.2749
17331TIP3    H173484   2.433   4.006  10.597 -0.3489  1.5626  1.2542
17331TIP3    H273485   2.437   3.988  10.748 -0.0624 -1.6316  0.8914
17332TIP3   OH273486   5.870   5.807   5.200  0.0922  0.2298  0.1595
17332TIP3    H173487   5.917   5.730   5.231  1.3165  0.9875  0.1789
17332TIP3    H273488   5.919   5.882   5.233 -2.1527  1.0601  1.7671
17333TIP3   OH273489   2.562   0.829   5.407 -0.3703 -0.0110 -0.6238
17333TIP3    H173490   2.587   0.746   5.367  0.8705  0.6135 -1.1675
17333TIP3    H273491   2.470   0.817   5.432 -0.2208 -1.5093 -0.7702
17334TIP3   OH273492   4.222   3.045   1.862  0.4295  0.0444 -0.1681
17334TIP3    H173493   4.129   3.033   1.844  0.2433  0.4055  0.5320
17334TIP3    H273494   4.261   2.959   1.843 -0.3046 -0.5984  1.1158
17335TIP3   OH273495   6.454   2.960  15.153  0.3561 -0.1127 -0.3978
17335TIP3    H173496   6.541   2.976  15.118  0.4904  0.8259  0.3431
17335TIP3    H273497   6.426   2.877  15.113  1.1511  0.1250 -1.4446
17336TIP3   OH273498   1.989   3.250   3.438  0.0724 -0.0373  0.6270
17336TIP3    H173499   2.066   3.256   3.494  0.2707  1.7746  0.1793
17336TIP3    H273500   1.917   3.284   3.492 -0.7763 -3.2983  1.6506
17337TIP3   OH273501   0.268   4.079  11.470  0.2750 -0.0902 -0.4148
17337TIP3    H173502   0.204   4.139  11.431  2.6528  2.6608 -0.2372
17337TIP3    H273503   0.347   4.092  11.418  1.8901 -0.3737  1.9317
17338TIP3   OH273504   3.941   3.268  16.746 -0.1415  0.1461  0.9848
17338TIP3    H173505   3.918   3.192  16.799 -0.5831  0.7522  1.6749
17338TIP3    H273506   4.034   3.258  16.728 -0.0908 -0.2973  1.4871
17339TIP3   OH273507   0.033   5.641  12.865 -0.1543  0.2456 -0.2701
17339TIP3    H173508   0.013   5.710  12.927 -0.4284  1.6872 -1.9234
17339TIP3    H273509   0.116   5.666  12.826  0.0257 -0.6480 -0.4845
17340TIP3   OH273510   1.091   4.657  13.731 -0.6909  0.0191 -0.1935
17340TIP3    H173511   1.129   4.612  13.807  0.4268 -2.0161 -1.9168
17340TIP3    H273512   1.001   4.677  13.758 -0.4793 -1.1363  1.4811
17341TIP3   OH273513   5.537   6.337  15.327  0.5916 -0.3640 -0.5560
17341TIP3    H173514   5.621   6.296  15.309  0.1659 -1.3741 -0.2917
17341TIP3    H273515   5.559   6.423  15.365  1.5404 -1.5470  1.6866
17342TIP3   OH273516   1.705   5.360  15.521  0.0392 -0.1032 -0.1572
17342TIP3    H173517   1.627   5.416  15.510 -0.5591 -0.8045  0.5066
17342TIP3    H273518   1.779   5.421  15.513 -0.6394  1.2491  3.1236
17343TIP3   OH273519   5.537   6.438   2.823 -0.6329 -0.3154  0.5474
17343TIP3    H173520   5.476   6.502   2.860  0.9438  0.6736  1.4672
17343TIP3    H273521   5.579   6.484   2.751  1.1206 -0.0059  1.7373
17344TIP3   OH273522   0.860   3.100   1.093  0.0227  0.3955 -0.4118
17344TIP3    H173523   0.775   3.114   1.134 -1.6386 -0.8138 -3.2994
17344TIP3    H273524   0.918   3.162   1.137 -2.2973  1.1854  1.6725
17345TIP3   OH273525   4.042   5.561   5.197  0.4012  0.1400  0.4367
17345TIP3    H173526   4.130   5.581   5.229  0.5357 -1.8782  1.4115
17345TIP3    H273527   3.996   5.526   5.273 -2.1609  3.7509  0.6447
17346TIP3   OH273528   0.239   3.025  14.889 -0.6203 -0.0564 -0.6743
17346TIP3    H173529   0.221   2.955  14.826 -1.2276  0.9011 -1.5799
17346TIP3    H273530   0.166   3.020  14.951  0.6232 -1.8068  0.7138
17347TIP3   OH273531   2.729   3.659  13.877 -0.2584  0.4415  0.6518
17347TIP3    H173532   2.765   3.588  13.930 -2.4728 -1.0532  0.2108
17347TIP3    H273533   2.771   3.650  13.792  0.0336  0.1395  0.8264
17348TIP3   OH273534   3.143   6.040   4.773 -0.5776  0.3011 -0.1741
17348TIP3    H173535   3.173   6.122   4.733  2.5467 -0.5118  0.3778
17348TIP3    H273536   3.190   6.036   4.856 -0.1231 -2.3868 -0.5139
17349TIP3   OH273537   2.931   1.822   6.743  0.1917 -0.5215 -0.9880
17349TIP3    H173538   3.007   1.855   6.790 -0.4178  0.4755 -0.6823
17349TIP3    H273539   2.908   1.741   6.788  0.9650 -0.7249 -0.9693
17350TIP3   OH273540   5.906   2.031   0.894 -0.4716  0.0185  0.3999
17350TIP3    H173541   5.840   2.041   0.825 -0.3313  0.1544  0.2867
17350TIP3    H273542   5.971   2.099   0.875 -0.5605  0.2153  0.8096
17351TIP3   OH273543   3.256   1.195  10.961  0.0765 -0.3647  0.2467
17351TIP3    H173544   3.161   1.188  10.970  0.0168  1.0020  0.6865
17351TIP3    H273545   3.284   1.247  11.036  1.4134 -2.3700  1.2058
17352TIP3   OH273546   6.123   2.929  15.672 -0.4390 -0.1185 -0.2392
17352TIP3    H173547   6.084   2.965  15.752  1.3633  0.7314  0.2998
17352TIP3    H273548   6.207   2.891  15.702 -0.4222 -1.1044 -1.4923
17353TIP3   OH273549   1.654   5.663  11.568  0.5459  0.3337 -0.2980
17353TIP3    H173550   1.560   5.679  11.553  0.7463  2.8852  0.9476
17353TIP3    H273551   1.694   5.673  11.481 -0.1765  0.4389 -0.6256
17354TIP3   OH273552   3.421   5.205  12.418 -0.2191  0.2822  0.3475
17354TIP3    H173553   3.363   5.275  12.448  0.4963  1.1399 -0.2259
17354TIP3    H273554   3.394   5.190  12.327  1.2601  1.5530 -0.3195
17355TIP3   OH273555   0.713   1.849  14.048 -0.0325  0.1391 -0.7855
17355TIP3    H173556   0.793   1.828  14.000  0.8530 -1.5577  1.3372
17355TIP3    H273557   0.742   1.912  14.114 -0.3499 -0.7573  0.2250
17356TIP3   OH273558   5.069   1.506   2.266  0.2858 -0.4289  0.6261
17356TIP3    H173559   5.055   1.546   2.352 -0.6002 -1.1262  0.8118
17356TIP3    H273560   4.981   1.489   2.233  0.5059  2.1585 -1.5323
17357TIP3   OH273561   6.261   5.678   1.003 -0.4273  0.3047 -0.4817
17357TIP3    H173562   6.222   5.613   1.061 -2.0449  2.2596  0.6814
17357TIP3    H273563   6.350   5.690   1.036  0.0651 -1.6801 -1.0444
17358TIP3   OH273564   5.563   2.634   1.531 -0.3029 -0.2278  0.1566
17358TIP3    H173565   5.567   2.728   1.547  1.7882 -0.4031  0.8244
17358TIP3    H273566   5.655   2.606   1.529 -0.8900 -2.2127 -0.2382
17359TIP3   OH273567   2.945   3.253   5.494 -0.3890  0.2330 -0.1636
17359TIP3    H173568   2.996   3.173   5.506 -1.1575 -0.3620 -0.8202
17359TIP3    H273569   2.857   3.222   5.471 -0.5737  1.2728 -0.8609
17360TIP3   OH273570   1.251   3.399  16.689  0.0427  0.1388  0.3902
17360TIP3    H173571   1.327   3.436  16.645  0.5359 -1.2302  0.0748
17360TIP3    H273572   1.183   3.398  16.621 -0.4326  1.8562  0.8179
17361TIP3   OH273573   1.322   6.141  13.006  0.3496 -0.3589 -0.7739
17361TIP3    H173574   1.314   6.154  12.912 -0.0632 -0.4733 -0.7539
17361TIP3    H273575   1.238   6.170  13.042  0.0734 -1.4341 -0.5544
17362TIP3   OH273576   3.811   0.466   4.887  0.8087  0.2920  0.3619
17362TIP3    H173577   3.882   0.491   4.946 -0.7245  0.8094  2.0265
17362TIP3    H273578   3.742   0.529   4.905  0.7182  1.1967 -2.8623
17363TIP3   OH273579   3.382   6.600   0.286  0.2806  0.3858 -0.0860
17363TIP3    H173580   3.353   6.552   0.364 -0.6025  2.0387  0.6317
17363TIP3    H273581   3.307   6.596   0.227  1.2886 -1.6885 -1.2730
17364TIP3   OH273582   3.254   6.270  15.605  0.2651  0.1484  0.0849
17364TIP3    H173583   3.187   6.296  15.668 -0.0491  1.8859 -0.9321
17364TIP3    H273584   3.319   6.340  15.608  0.4945  0.0041 -1.1354
17365TIP3   OH273585   0.062   1.969  16.558 -0.0268  0.0866  0.1640
17365TIP3    H173586   0.020   1.988  16.474  2.7525  1.3388 -1.0299
17365TIP3    H273587   0.055   1.874  16.567 -3.0931  0.2587  0.0707
17366TIP3   OH273588   6.683   5.601  14.170  0.1670 -0.1549  0.0123
17366TIP3    H173589   6.596   5.585  14.208  0.2419 -1.6384 -0.3799
17366TIP3    H273590   6.710   5.685  14.206 -1.2768  0.1440  0.4369
17367TIP3   OH273591   3.403   2.186   4.179 -0.0483  0.4136  0.4619
17367TIP3    H173592   3.428   2.094   4.185 -2.7820 -0.3426  0.8173
17367TIP3    H273593   3.369   2.197   4.090 -1.9882  0.4416  1.1708
17368TIP3   OH273594   5.451   1.549   3.322 -0.0283  0.4170 -0.2653
17368TIP3    H173595   5.364   1.528   3.287 -0.0320  1.1851 -0.7182
17368TIP3    H273596   5.511   1.494   3.273 -0.3945 -1.2771  1.1134
17369TIP3   OH273597   3.323   0.035   0.324  0.0587 -0.3416 -0.0649
17369TIP3    H173598   3.367   0.094   0.263 -0.0338 -0.9300 -0.7170
17369TIP3    H273599   3.336  -0.052   0.286  1.6386 -0.9245  1.7657
17370TIP3   OH273600   4.825   3.700   5.167  0.4703 -0.2948  0.2830
17370TIP3    H173601   4.841   3.785   5.127 -2.9986  0.1209 -0.3929
17370TIP3    H273602   4.797   3.720   5.256 -2.9340 -0.4684 -0.6677
17371TIP3   OH273603   0.342   4.162   3.010  0.1388 -0.4070  0.1537
17371TIP3    H173604   0.339   4.098   2.940  1.0364  0.2583 -0.4947
17371TIP3    H273605   0.250   4.187   3.023 -0.0861 -0.9358 -0.4054
17372TIP3   OH273606   0.113   6.624  16.386 -0.1728  0.0460  0.0462
17372TIP3    H173607   0.067   6.559  16.440 -1.4101  0.6598 -0.2526
17372TIP3    H273608   0.204   6.619  16.415  0.2172 -3.4786 -1.5443
17373TIP3   OH273609   3.051   5.647  15.016  0.1268  0.1809  0.0157
17373TIP3    H173610   3.027   5.737  15.036  0.6446  0.6553 -1.4537
17373TIP3    H273611   2.980   5.594  15.054 -0.9711  1.2922 -0.4649
17374TIP3   OH273612   0.042   2.992  12.233 -0.0232 -0.1769 -0.3316
17374TIP3    H173613  -0.050   2.965  12.245 -0.3008  1.3460  1.1998
17374TIP3    H273614   0.037   3.073  12.183  0.5972 -0.9398 -1.6469
17375TIP3   OH273615   4.278   4.054  15.062  0.1542  0.5021  0.8026
17375TIP3    H173616   4.332   4.093  15.131 -0.0084 -1.1181  1.8919
17375TIP3    H273617   4.326   3.976  15.035 -0.6542  0.1575  0.3409
17376TIP3   OH273618   4.405   0.378  16.265  0.2115 -0.1070  0.3833
17376TIP3    H173619   4.329   0.416  16.220  1.3790  0.6188 -1.0337
17376TIP3    H273620   4.470   0.449  16.265 -0.1907  0.3742  4.4467
17377TIP3   OH273621   0.244   0.823   2.462 -1.0288 -0.2054 -0.3910
17377TIP3    H173622   0.252   0.756   2.393 -0.2982 -0.6650  0.1359
17377TIP3    H273623   0.150   0.839   2.469 -1.0861  0.1105 -1.7509
17378TIP3   OH273624   1.871   4.051  16.611 -0.0354  0.1737  0.1597
17378TIP3    H173625   1.797   4.063  16.670 -1.5350 -1.8320 -1.2278
17378TIP3    H273626   1.937   4.007  16.664 -1.5711 -2.1177  0.2430
17379TIP3   OH273627   2.816   3.488   3.270 -0.0391 -0.6527 -0.4800
17379TIP3    H173628   2.872   3.554   3.312 -0.9057  0.3156 -0.8325
17379TIP3    H273629   2.874   3.443   3.208  0.0214  1.3613 -1.9470
17380TIP3   OH273630   1.692   6.252   1.072  0.4116 -0.0166 -0.0999
17380TIP3    H173631   1.738   6.199   1.006  0.9035 -0.2700  0.4414
17380TIP3    H273632   1.731   6.225   1.155 -0.8674 -0.3920  0.3940
17381TIP3   OH273633   2.093   6.511   3.495  0.2689 -0.3852 -0.6826
17381TIP3    H173634   2.132   6.566   3.427 -0.4585  0.9812 -0.0122
17381TIP3    H273635   2.012   6.479   3.456 -0.4902  0.9551 -0.2256
17382TIP3   OH273636   3.845   0.313  12.562 -0.0458  0.2601  0.6081
17382TIP3    H173637   3.868   0.313  12.469 -0.3047  0.2479  0.5425
17382TIP3    H273638   3.749   0.315  12.563 -0.0623 -0.5279  0.8693
17383TIP3   OH273639   4.632   4.642  16.173  0.0751  0.1026  0.0827
17383TIP3    H173640   4.689   4.704  16.218  0.3990 -2.2609  3.1904
17383TIP3    H273641   4.545   4.681  16.178  0.5736  1.1946  0.2705
17384TIP3   OH273642   2.181   1.885  11.420  0.4202  0.3918  0.1428
17384TIP3    H173643   2.173   1.794  11.449  1.1780  0.3483  0.2191
17384TIP3    H273644   2.122   1.891  11.345  1.2518 -0.4776 -0.5900
17385TIP3   OH273645   3.082   3.781   0.503 -0.0072  0.0757  0.2700
17385TIP3    H173646   3.129   3.698   0.517 -0.8632 -0.1615  1.8559
17385TIP3    H273647   3.148   3.839   0.464  0.8717 -1.0463  0.0355
17386TIP3   OH273648   6.613   4.647  13.609  0.3437  0.3995 -0.1050
17386TIP3    H173649   6.518   4.657  13.598  0.3283  1.0641  0.5789
17386TIP3    H273650   6.622   4.604  13.694  0.7223  2.4259  0.9223
17387TIP3   OH273651   0.032   1.616   0.060  0.0510 -0.4463  0.4119
17387TIP3    H173652   0.119   1.655   0.066 -0.9674  2.0385 -0.2787
17387TIP3    H273653   0.029   1.577  -0.027 -0.2670  1.4009 -0.4266
17388TIP3   OH273654   4.168   2.373   3.274  0.2222  0.2056 -0.7518
17388TIP3    H173655   4.239   2.432   3.299  1.2010 -1.5573  0.6439
17388TIP3    H273656   4.110   2.371   3.350  1.8962 -3.1714  0.5292
17389TIP3   OH273657   5.785   1.357  16.519 -0.0956 -0.4003 -0.0620
17389TIP3    H173658   5.728   1.432  16.530 -0.9369 -1.1367  0.5681
17389TIP3    H273659   5.811   1.331  16.607  2.0021  0.5170 -0.3638
17390TIP3   OH273660   3.113   4.958  16.440 -0.7022  0.0225  0.4391
17390TIP3    H173661   3.092   5.036  16.492 -0.4027  0.2935  0.1587
17390TIP3    H273662   3.200   4.977  16.403 -0.8807 -0.1999 -0.0972
17391TIP3   OH273663   1.497   1.883   6.307 -0.0969  0.7379 -0.3501
17391TIP3    H173664   1.432   1.832   6.354  1.1494 -0.6297 -0.0668
17391TIP3    H273665   1.552   1.922   6.376  2.2805 -1.9937 -0.6073
17392TIP3   OH273666   2.177   1.614  15.476 -0.2198 -0.4151 -0.0662
17392TIP3    H173667   2.151   1.583  15.562  0.8609  0.5884  0.6397
17392TIP3    H273668   2.111   1.680  15.454  1.5977  2.0848  1.6970
17393TIP3   OH273669   6.050   2.396  17.258  0.3052  0.0441 -0.2690
17393TIP3    H173670   6.116   2.448  17.211 -0.4329  0.4149 -0.9094
17393TIP3    H273671   6.099   2.324  17.296  1.6034  1.9334  1.7834
17394TIP3   OH273672   5.555   5.579  16.441 -0.4202 -0.6389  0.2396
17394TIP3    H173673   5.608   5.500  16.441 -0.1622 -0.4636  1.7425
17394TIP3    H273674   5.605   5.642  16.491 -2.1645 -0.5665  1.9410
17395TIP3   OH273675   3.949   3.237   1.592  0.6182  0.0244  0.3425
17395TIP3    H173676   3.939   3.163   1.652 -2.1269  0.4666  0.4644
17395TIP3    H273677   3.918   3.313   1.642 -0.2022  0.6464 -1.0986
17396TIP3   OH273678   1.170   4.159   0.832  0.0989  0.2628 -0.1462
17396TIP3    H173679   1.104   4.218   0.869  0.8788 -0.8449  3.1345
17396TIP3    H273680   1.236   4.150   0.901  0.5477 -3.6029 -0.9963
17397TIP3   OH273681   6.356   5.280  14.742 -0.0794 -0.1939 -0.2095
17397TIP3    H173682   6.287   5.277  14.676  0.4959 -0.9742 -0.7683
17397TIP3    H273683   6.339   5.362  14.790 -2.5013 -1.2933  0.8765
17398TIP3   OH273684   3.159   0.934  12.511  0.0608  0.3813 -0.1991
17398TIP3    H173685   3.069   0.935  12.479 -0.5591  1.4147  1.4968
17398TIP3    H273686   3.209   0.893  12.441 -1.6878  0.0350 -1.2742
17399TIP3   OH273687   1.163   6.381  11.783 -0.4506 -0.0816 -0.3049
17399TIP3    H173688   1.226   6.314  11.809 -1.3399 -0.4268  1.0424
17399TIP3    H273689   1.189   6.406  11.694  2.7249  1.1477  0.9082
17400TIP3   OH273690   4.679   1.393   4.460  0.1476  0.2261 -0.0111
17400TIP3    H173691   4.626   1.390   4.380  0.5077 -5.1815 -0.2359
17400TIP3    H273692   4.615   1.411   4.530 -1.1342 -0.7447 -0.8964
17401TIP3   OH273693   5.731   0.917  14.185 -0.5513 -0.3355 -0.2613
17401TIP3    H173694   5.664   0.918  14.253  0.2812  0.3905  0.5637
17401TIP3    H273695   5.772   1.004  14.189 -0.0071 -0.5326 -1.2054
17402TIP3   OH273696   0.353   2.504  12.403  0.8938  0.0642  0.1342
17402TIP3    H173697   0.374   2.428  12.349  0.6618  0.0260  0.0976
17402TIP3    H273698   0.358   2.579  12.344 -4.3214 -0.4386 -1.2241
17403TIP3   OH273699   2.625   1.411  14.637 -0.0913  0.2605 -0.0391
17403TIP3    H173700   2.612   1.386  14.728  0.7551 -0.1660 -0.0336
17403TIP3    H273701   2.563   1.483  14.623 -1.3107 -0.6821  0.4295
17404TIP3   OH273702   4.731   1.596  13.556  0.6263  0.3368 -0.3390
17404TIP3    H173703   4.743   1.629  13.467  1.6055 -1.3563 -0.8531
17404TIP3    H273704   4.701   1.672  13.606 -2.3686  0.7593 -2.6091
17405TIP3   OH273705   3.714   3.505   0.417  0.0036 -0.0418 -0.2610
17405TIP3    H173706   3.752   3.430   0.462  1.3248  1.2891  0.8853
17405TIP3    H273707   3.788   3.564   0.402 -1.5600  2.5268  1.8518
17406TIP3   OH273708   3.776   2.419  15.266 -0.2945  0.2874 -0.0591
17406TIP3    H173709   3.851   2.371  15.303 -0.9365 -0.9312 -0.3367
17406TIP3    H273710   3.814   2.502  15.237  1.1346 -0.6641 -1.0087
17407TIP3   OH273711   4.168   4.337   2.381  0.1179 -0.5430 -0.1754
17407TIP3    H173712   4.073   4.350   2.377 -0.1642 -2.2636  0.3904
17407TIP3    H273713   4.185   4.311   2.472  0.8203 -2.3693 -0.8014
17408TIP3   OH273714   3.502   3.249   2.966 -0.1739 -0.0547  0.3912
17408TIP3    H173715   3.582   3.207   2.996  0.3589  0.3801 -0.3878
17408TIP3    H273716   3.492   3.326   3.023  0.3761  0.3030  0.0158
17409TIP3   OH273717   3.614   4.700   3.123  0.2801  0.1361 -0.2175
17409TIP3    H173718   3.528   4.741   3.132 -0.5804 -1.3607 -1.6004
17409TIP3    H273719   3.615   4.632   3.190 -0.2170 -0.8648 -1.2173
17410TIP3   OH273720   0.522   1.463  15.881  0.5602  0.0843 -0.9691
17410TIP3    H173721   0.472   1.390  15.916  1.2374  0.7868  1.6275
17410TIP3    H273722   0.501   1.465  15.788 -1.6314 -1.6621 -0.5556
17411TIP3   OH273723   4.679   6.616  16.515  0.7675  0.4422 -0.0115
17411TIP3    H173724   4.746   6.586  16.454 -0.1986 -0.3310 -0.6882
17411TIP3    H273725   4.729   6.648  16.591  1.9451  1.0068 -1.0072
17412TIP3   OH273726   2.408   2.052  14.855  0.5081  0.0991  0.6961
17412TIP3    H173727   2.458   2.064  14.774  1.9555  0.6973  1.6597
17412TIP3    H273728   2.409   2.139  14.896  0.8519 -0.5104  1.9748
17413TIP3   OH273729   1.338   0.884  10.853  0.6287 -0.2599  0.2918
17413TIP3    H173730   1.326   0.938  10.931  1.4861  2.2891 -1.2810
17413TIP3    H273731   1.432   0.887  10.835  0.5461 -1.4114 -0.4469
17414TIP3   OH273732   0.013   6.189   6.472 -0.5319 -0.1230  0.3666
17414TIP3    H173733   0.003   6.158   6.562 -1.7568  2.0590  1.0490
17414TIP3    H273734  -0.056   6.256   6.463  0.6763  0.8922 -1.6324
17415TIP3   OH273735   4.239   4.736  14.954  0.1154 -0.0122 -0.2859
17415TIP3    H173736   4.168   4.737  14.890 -0.2823 -1.0877  0.1258
17415TIP3    H273737   4.267   4.644  14.956  0.7874  0.2056  0.3564
17416TIP3   OH273738   4.344   0.422   6.685 -0.0766  0.3427  0.5528
17416TIP3    H173739   4.328   0.499   6.739  0.1277  0.2274  0.7780
17416TIP3    H273740   4.279   0.357   6.715 -1.6158  1.1097 -1.0211
17417TIP3   OH273741   5.389   4.366  15.189 -0.2554  0.3400 -0.1770
17417TIP3    H173742   5.298   4.338  15.196  0.0385 -0.3661  0.8389
17417TIP3    H273743   5.424   4.314  15.116 -0.8528  1.1409 -1.0459
17418TIP3   OH273744   2.115   3.935   0.891  0.4719  0.0103  0.1927
17418TIP3    H173745   2.131   4.004   0.954 -0.9971  0.0470  0.5428
17418TIP3    H273746   2.042   3.966   0.838 -0.6447 -1.5267  0.7763
17419TIP3   OH273747   4.163   5.277   6.324 -0.6766  0.0110  0.8309
17419TIP3    H173748   4.127   5.195   6.359  0.2621 -0.6144  0.3441
17419TIP3    H273749   4.245   5.289   6.372 -0.6948  0.5468  0.7279
17420TIP3   OH273750   6.624   6.102   3.622 -0.1950  0.2020 -0.4629
17420TIP3    H173751   6.651   6.027   3.675  2.1781  2.1658  1.2000
17420TIP3    H273752   6.573   6.157   3.682 -1.5908  0.1612 -1.5683
17421TIP3   OH273753   4.688   6.243   5.547  0.4706 -0.2729  0.2097
17421TIP3    H173754   4.708   6.150   5.556 -0.4279 -0.6609 -1.6341
17421TIP3    H273755   4.753   6.276   5.486 -0.6543 -0.2180 -0.9848
17422TIP3   OH273756   5.958   4.220   2.975  0.3046 -0.1894 -0.3794
17422TIP3    H173757   5.978   4.306   3.012  0.9762 -1.8326  3.2509
17422TIP3    H273758   5.868   4.202   3.004  1.1184 -1.8421  1.1278
17423TIP3   OH273759   0.724   3.002   4.236  0.0799 -0.6763 -0.2887
17423TIP3    H173760   0.774   3.080   4.261 -0.6248 -0.3053 -0.0391
17423TIP3    H273761   0.667   3.032   4.165 -0.9381 -0.7139  0.5072
17424TIP3   OH273762   6.782   5.119   6.718  0.1697  0.3420  0.4400
17424TIP3    H173763   6.701   5.123   6.769  0.3403 -1.5590  0.9218
17424TIP3    H273764   6.767   5.177   6.644 -0.8968  1.4976  1.5413
17425TIP3   OH273765   1.561   2.572   4.904  0.2534 -0.0921 -0.2965
17425TIP3    H173766   1.495   2.505   4.923  0.7695 -0.5172  0.0130
17425TIP3    H273767   1.529   2.651   4.948 -1.0723  0.2524 -1.8220
17426TIP3   OH273768   0.346   0.027  14.011  0.2651 -0.1488 -0.2435
17426TIP3    H173769   0.261   0.001  13.976  0.1085 -0.7738  0.5892
17426TIP3    H273770   0.376  -0.049  14.061  1.3581  0.0318 -0.6138
17427TIP3   OH273771   2.414   5.533  13.511  0.3552 -0.0110  0.5624
17427TIP3    H173772   2.463   5.459  13.548  0.7719 -0.3696 -0.6752
17427TIP3    H273773   2.479   5.581  13.459  0.4737  2.1718  2.6825
17428TIP3   OH273774   3.352   3.232   1.203  0.0638 -0.7554  0.3797
17428TIP3    H173775   3.409   3.210   1.276 -0.1812 -0.9761  0.5064
17428TIP3    H273776   3.263   3.223   1.239 -0.0927 -2.2108 -0.3257
17429TIP3   OH273777   6.151   2.005   6.273 -0.4108 -0.6690  0.0910
17429TIP3    H173778   6.180   1.989   6.183 -0.8726  0.1487 -0.2052
17429TIP3    H273779   6.056   2.011   6.266 -0.2950  1.6406  0.2846
17430TIP3   OH273780   2.283   0.180   5.398  0.2200  0.8305 -0.2834
17430TIP3    H173781   2.212   0.238   5.370  1.7913  2.1150 -1.6998
17430TIP3    H273782   2.320   0.223   5.475 -0.8692 -0.1150  0.7775
17431TIP3   OH273783   1.332   1.023  15.869 -0.1522 -0.2310 -0.2213
17431TIP3    H173784   1.311   0.994  15.780  0.5778  0.2888 -0.5704
17431TIP3    H273785   1.264   1.087  15.889  1.6628  2.2915 -1.7869
17432TIP3   OH273786   4.329   6.355  14.791 -0.5173 -0.3816 -0.2338
17432TIP3    H173787   4.269   6.300  14.841  0.4496 -0.4063  0.9245
17432TIP3    H273788   4.301   6.345  14.700 -1.7192 -1.0633  0.2008
17433TIP3   OH273789   0.748   4.639  13.234 -0.1241  0.5548  0.4125
17433TIP3    H173790   0.657   4.656  13.208  0.0132  1.2234  0.3668
17433TIP3    H273791   0.760   4.690  13.314  0.3511  0.8327  0.1656
17434TIP3   OH273792   0.052   1.319   4.095  0.4806  0.3608 -0.0347
17434TIP3    H173793   0.109   1.302   4.170  0.6290 -0.4465 -0.3246
17434TIP3    H273794  -0.034   1.289   4.123  0.8331 -1.3417 -0.7079
17435TIP3   OH273795   2.785   2.559  12.805  0.2025 -0.0779 -0.5817
17435TIP3    H173796   2.734   2.479  12.786  0.4340 -0.1416 -0.9416
17435TIP3    H273797   2.719   2.622  12.835 -0.0096 -0.3455 -0.4793
17436TIP3   OH273798   0.400   2.638   2.557 -0.4755 -0.1698  0.1715
17436TIP3    H173799   0.326   2.637   2.496 -0.6793  0.2867  0.4054
17436TIP3    H273800   0.363   2.674   2.638  0.6553  2.6003 -0.5168
17437TIP3   OH273801   2.821   3.130   1.470  0.2109  0.3616 -0.0695
17437TIP3    H173802   2.848   3.175   1.550 -0.9036  2.4546 -0.8250
17437TIP3    H273803   2.881   3.056   1.462  1.6533  1.3263  1.5992
17438TIP3   OH273804   6.490   0.948  15.468  0.5427  0.2677  0.2839
17438TIP3    H173805   6.398   0.921  15.470  1.0222 -1.4104  0.1949
17438TIP3    H273806   6.535   0.884  15.523  1.8382  0.3832 -0.6384
17439TIP3   OH273807   1.548   6.611  12.444  0.0851  0.6162 -0.1241
17439TIP3    H173808   1.490   6.549  12.400 -0.7620  1.2782  0.0326
17439TIP3    H273809   1.522   6.607  12.536  0.3161  0.8808 -0.0454
17440TIP3   OH273810   3.026   0.072  14.041 -0.2019  0.3418 -0.0411
17440TIP3    H173811   3.055   0.097  14.129 -1.7772 -1.7813  1.1354
17440TIP3    H273812   3.102   0.028  14.002  0.0908  0.1499  0.7388
17441TIP3   OH273813   6.538   3.484   2.467  0.5249 -0.0171  0.2320
17441TIP3    H173814   6.464   3.535   2.499  0.8502  1.0397 -0.6531
17441TIP3    H273815   6.511   3.393   2.479 -0.5331  0.3561  0.7901
17442TIP3   OH273816   2.807   5.689  15.500  0.0866 -0.2322  0.1664
17442TIP3    H173817   2.847   5.724  15.421 -2.2211 -0.2248 -1.0311
17442TIP3    H273818   2.829   5.753  15.568  0.5175  0.7081 -0.8405
17443TIP3   OH273819   0.127   1.219  11.578  0.2244  0.0034 -0.1685
17443TIP3    H173820   0.216   1.250  11.596 -0.6483  0.6078  3.6073
17443TIP3    H273821   0.075   1.299  11.573 -0.8251 -0.4913  2.2529
17444TIP3   OH273822   0.869   1.377   1.890 -0.3723 -0.5937  0.1562
17444TIP3    H173823   0.864   1.302   1.948 -2.8522 -1.3019 -0.9047
17444TIP3    H273824   0.803   1.438   1.923  0.3548  0.3329 -0.0755
17445TIP3   OH273825   1.763   5.707  14.901  0.4867 -0.0397  0.1102
17445TIP3    H173826   1.805   5.641  14.847 -0.7853 -1.7390  1.1280
17445TIP3    H273827   1.780   5.679  14.991 -1.2931  0.1926  0.5413
17446TIP3   OH273828   0.366   4.070   1.179 -0.1757  0.6283  0.3722
17446TIP3    H173829   0.383   4.164   1.166  1.0832  0.4460  0.6570
17446TIP3    H273830   0.271   4.063   1.174 -0.3989  2.1648  1.8745
17447TIP3   OH273831   0.947   5.682   4.560  0.1561  0.7365  0.0078
17447TIP3    H173832   0.891   5.754   4.529  0.9139  0.9018 -1.0342
17447TIP3    H273833   1.035   5.707   4.530  0.7607  0.3869  1.4499
17448TIP3   OH273834   3.849   2.934  14.803  0.5206 -0.4826  0.3403
17448TIP3    H173835   3.942   2.924  14.782  0.1146 -0.6018 -1.4266
17448TIP3    H273836   3.818   3.002  14.744 -0.3665  0.0427  1.4043
17449TIP3   OH273837   6.722   0.769  15.272 -0.6075  0.1538 -0.3073
17449TIP3    H173838   6.743   0.858  15.300 -1.4204  0.0900  0.5106
17449TIP3    H273839   6.807   0.731  15.249 -0.3080  1.2956 -1.1480
17450TIP3   OH273840   6.230   3.647  10.539  0.2769 -0.5580 -0.0941
17450TIP3    H173841   6.207   3.712  10.605 -2.5364 -0.4508 -1.1351
17450TIP3    H273842   6.253   3.698  10.462 -1.3880 -0.7774 -0.7405
17451TIP3   OH273843   4.567   6.811   5.836 -0.2070 -0.4211  0.2863
17451TIP3    H173844   4.612   6.786   5.916  0.5355  3.2563  1.1156
17451TIP3    H273845   4.495   6.867   5.866  0.4130  1.4559 -1.6097
17452TIP3   OH273846   6.244   0.652  11.646  0.2232  0.2344 -0.2774
17452TIP3    H173847   6.248   0.593  11.720  2.5351  1.8294  0.9034
17452TIP3    H273848   6.231   0.739  11.684 -0.6243  0.8368 -1.8548
17453TIP3   OH273849   6.142   5.332  12.418  0.1777 -0.1990  0.2446
17453TIP3    H173850   6.059   5.329  12.370  0.9908 -1.0650 -1.1478
17453TIP3    H273851   6.191   5.403  12.375  0.1045  0.4019  1.1534
17454TIP3   OH273852   5.051   4.333   1.431  0.4493  0.2164 -0.0676
17454TIP3    H173853   5.082   4.363   1.517  1.1970 -2.0939  0.5234
17454TIP3    H273854   5.061   4.409   1.374  2.5283  1.0071  1.2676
17455TIP3   OH273855   4.720   5.377  14.017 -0.6056 -0.2459  0.0126
17455TIP3    H173856   4.814   5.394  14.019 -0.6883  0.6798 -2.0711
17455TIP3    H273857   4.687   5.411  14.100  0.6128  1.2493 -0.1032
17456TIP3   OH273858   0.501   6.199   5.709 -0.2495 -0.4471  0.1690
17456TIP3    H173859   0.433   6.262   5.683  0.6100  0.6529  0.5394
17456TIP3    H273860   0.488   6.125   5.651  0.8539  1.4719 -2.6694
17457TIP3   OH273861   2.571   2.998  11.677 -0.5824  0.0822  0.2328
17457TIP3    H173862   2.630   3.073  11.676 -0.8763  0.3203  0.6348
17457TIP3    H273863   2.519   3.007  11.597  1.2550 -1.2002 -1.1265
17458TIP3   OH273864   4.141   0.425   5.704  0.4690 -1.0134 -0.5833
17458TIP3    H173865   4.154   0.465   5.619 -2.4015  2.3962  0.4682
17458TIP3    H273866   4.061   0.373   5.694 -1.1645  1.2147  0.5753
17459TIP3   OH273867   5.032   4.140   5.176 -0.5657 -0.1652 -0.9792
17459TIP3    H173868   5.084   4.062   5.195 -0.0530  0.2840 -0.5162
17459TIP3    H273869   4.972   4.147   5.250  1.1415  1.3421  0.3025
17460TIP3   OH273870   0.873   0.486   1.404  0.0411 -0.1748  0.1075
17460TIP3    H173871   0.962   0.516   1.422  0.3559 -0.9013 -0.2484
17460TIP3    H273872   0.820   0.566   1.411  0.6625  0.1949  0.6716
17461TIP3   OH273873   2.641   1.890   1.356 -0.6006 -0.6747  0.1618
17461TIP3    H173874   2.620   1.804   1.392  1.7891 -1.1764  0.4715
17461TIP3    H273875   2.664   1.873   1.265 -4.0537  0.2321 -0.9437
17462TIP3   OH273876   1.380   5.026  15.618  0.0490  0.6877  0.2725
17462TIP3    H173877   1.452   5.030  15.681  1.2826 -0.0812 -1.0568
17462TIP3    H273878   1.377   4.935  15.590 -1.4924  0.6984  0.3477
17463TIP3   OH273879   1.405   3.629   5.155  0.1394  0.2765  0.3299
17463TIP3    H173880   1.360   3.614   5.239 -2.7321  2.2309 -0.7798
17463TIP3    H273881   1.431   3.542   5.126 -1.7709 -0.7953  1.7009
17464TIP3   OH273882   6.119   3.183  13.708 -0.1230  0.6592 -0.1938
17464TIP3    H173883   6.087   3.176  13.798 -2.3721  0.4647 -0.9539
17464TIP3    H273884   6.197   3.128  13.705 -0.2919  0.3178  1.5287
17465TIP3   OH273885   5.807   5.643  13.868 -0.0696  0.3589  0.2076
17465TIP3    H173886   5.834   5.636  13.960 -2.1384  0.7942  0.8762
17465TIP3    H273887   5.882   5.611  13.819  1.2950  0.6682  2.0284
17466TIP3   OH273888   3.504   1.124   4.713 -0.1086 -0.3763  0.1796
17466TIP3    H173889   3.470   1.172   4.637 -2.1139 -0.5899  0.9179
17466TIP3    H273890   3.565   1.185   4.754 -0.9551  0.7141 -0.1587
17467TIP3   OH273891   0.467   3.524   6.145 -0.1181  0.2078 -0.3065
17467TIP3    H173892   0.450   3.432   6.125  0.3625  0.1170 -0.3092
17467TIP3    H273893   0.528   3.552   6.077  1.9496 -0.2432  1.3227
17468TIP3   OH273894   5.517   0.322   1.412  0.5975 -0.2282 -0.3709
17468TIP3    H173895   5.579   0.326   1.485  0.3207  0.0919 -0.1542
17468TIP3    H273896   5.457   0.395   1.427  0.5937 -0.1102 -0.9703
17469TIP3   OH273897   0.349   3.787   5.409 -0.1650  0.2410 -0.2119
17469TIP3    H173898   0.376   3.801   5.500  1.9025 -0.1081 -0.7365
17469TIP3    H273899   0.302   3.703   5.411  2.1677 -1.0968  0.1187
17470TIP3   OH273900   4.303   3.405   2.753 -0.3319 -0.3652 -0.1251
17470TIP3    H173901   4.345   3.359   2.680  1.0463  0.9503 -0.1758
17470TIP3    H273902   4.302   3.340   2.824 -1.6318 -1.6313 -1.2580
17471TIP3   OH273903   2.328   4.026   1.119  0.2367 -0.4467 -0.5282
17471TIP3    H173904   2.412   4.071   1.107 -0.5032  1.4331  1.0294
17471TIP3    H273905   2.263   4.097   1.124 -1.3667 -1.8499 -1.1215
17472TIP3   OH273906   0.866   3.489  16.767  0.6413 -0.0467  0.2286
17472TIP3    H173907   0.890   3.537  16.846 -0.4118 -0.8518  1.0603
17472TIP3    H273908   0.936   3.508  16.705  0.7976  1.6653  0.9030
17473TIP3   OH273909   5.935   0.873  12.318  0.0356  0.1253  0.0497
17473TIP3    H173910   5.890   0.846  12.398 -0.2786  0.0444 -0.1528
17473TIP3    H273911   5.999   0.803  12.302  0.0782  0.1268  0.2142
17474TIP3   OH273912   5.382   0.895  17.117  0.3261 -0.5455  0.1610
17474TIP3    H173913   5.420   0.971  17.160 -0.1287 -1.1081  1.5784
17474TIP3    H273914   5.432   0.820  17.149 -0.8111 -1.1011  0.6820
17475TIP3   OH273915   6.055   1.370  17.033  0.2332  0.4581  0.7391
17475TIP3    H173916   5.992   1.310  17.073 -1.5540  1.1317 -0.9792
17475TIP3    H273917   6.135   1.319  17.026 -0.4019 -0.7684  2.0055
17476TIP3   OH273918   5.653   4.881  16.006 -0.6894  0.3450 -0.0286
17476TIP3    H173919   5.577   4.826  16.026 -0.1829  0.0551  1.1447
17476TIP3    H273920   5.671   4.927  16.088  0.5881  0.1869 -0.2195
17477TIP3   OH273921   1.859   4.741   4.258 -0.1827  0.1126 -1.0037
17477TIP3    H173922   1.796   4.681   4.297  0.8635 -0.0705  0.4707
17477TIP3    H273923   1.858   4.720   4.165 -0.5769 -1.5015 -0.6511
17478TIP3   OH273924   4.747   6.516  11.255 -0.2090 -0.1464 -0.0391
17478TIP3    H173925   4.791   6.507  11.170  1.4430 -0.6730  0.8675
17478TIP3    H273926   4.671   6.571  11.236  0.4758  0.2419 -1.7584
17479TIP3   OH273927   6.300   4.961   6.728 -0.1384 -0.1904 -0.3061
17479TIP3    H173928   6.221   4.973   6.675  0.3419  0.3768 -0.8994
17479TIP3    H273929   6.335   4.877   6.700  0.5533  0.4683 -1.4829
17480TIP3   OH273930   2.881   6.504  12.466  0.8927 -0.2582  0.4468
17480TIP3    H173931   2.835   6.462  12.393 -0.4656  0.8040  0.6745
17480TIP3    H273932   2.953   6.553  12.425 -0.5090  1.2065 -0.3093
17481TIP3   OH273933   5.011   1.615  14.850  0.2133 -0.6892  0.1110
17481TIP3    H173934   5.072   1.658  14.909  0.0143 -0.7825  0.3834
17481TIP3    H273935   4.968   1.686  14.804 -0.1393 -0.5933  0.5852
17482TIP3   OH273936   0.313   2.355  11.333 -0.0400 -0.3873 -0.1468
17482TIP3    H173937   0.239   2.314  11.287 -0.2189  1.3653 -1.4494
17482TIP3    H273938   0.379   2.286  11.336 -1.6191 -1.9118  0.8225
17483TIP3   OH273939   6.031   4.571  12.850  0.0291  0.1363  0.1129
17483TIP3    H173940   6.102   4.618  12.807  0.5207 -0.4571  0.2654
17483TIP3    H273941   5.963   4.563  12.783  0.3495  0.1767 -0.2168
17484TIP3   OH273942   3.955   2.999   4.826  0.4556  0.0484 -0.0290
17484TIP3    H173943   3.987   2.913   4.797 -0.1339 -0.5583  1.0772
17484TIP3    H273944   3.954   3.052   4.746  1.1174 -0.8786 -0.6689
17485TIP3   OH273945   2.622   4.954  15.839 -0.1964  0.2322  0.5203
17485TIP3    H173946   2.688   5.003  15.887  0.2325  1.3974 -1.2108
17485TIP3    H273947   2.563   4.920  15.906  2.0417 -0.6850  2.0895
17486TIP3   OH273948   2.861   4.770   5.018 -0.7091 -0.2848 -0.7003
17486TIP3    H173949   2.806   4.691   5.025  1.6147 -1.9960 -1.1378
17486TIP3    H273950   2.942   4.739   4.978  1.5081  1.6842  2.0734
17487TIP3   OH273951   3.654   2.973   0.576 -0.3992 -0.0968 -0.2367
17487TIP3    H173952   3.684   2.885   0.557  1.0004  0.6987 -1.9033
17487TIP3    H273953   3.714   3.005   0.643 -2.0982 -1.0528  1.8028
17488TIP3   OH273954   5.134   4.674  15.689 -0.0251 -0.2093 -0.0374
17488TIP3    H173955   5.097   4.592  15.656  0.4122 -0.7248  0.7432
17488TIP3    H273956   5.119   4.671  15.783 -1.0067  1.1245 -0.1225
17489TIP3   OH273957   3.229   5.329   5.308  0.5817 -0.1627 -0.1480
17489TIP3    H173958   3.314   5.288   5.328  0.9949  0.2183 -1.1100
17489TIP3    H273959   3.249   5.421   5.296  0.2930 -0.3162 -1.9380
17490TIP3   OH273960   3.590   4.842  15.009 -0.2331 -0.6618  0.3991
17490TIP3    H173961   3.541   4.779  14.956  0.0168 -0.0658 -0.5542
17490TIP3    H273962   3.676   4.847  14.968  0.4780 -1.3340  1.7758
17491TIP3   OH273963   5.091   0.370   0.014  0.9931  0.1277  0.1936
17491TIP3    H173964   5.121   0.297   0.069 -1.1722 -0.2410  0.9416
17491TIP3    H273965   5.062   0.328  -0.067  0.3332  0.2180  0.3802
17492TIP3   OH273966   5.132   1.944   0.099  0.3954  0.0767  0.3354
17492TIP3    H173967   5.190   1.954   0.175 -0.8347  0.8024  1.2008
17492TIP3    H273968   5.046   1.971   0.131  0.1417  1.8121 -1.7327
17493TIP3   OH273969   6.223   6.467  13.808  0.4342  0.1881 -0.4663
17493TIP3    H173970   6.288   6.530  13.778  0.1169  0.5036 -0.4980
17493TIP3    H273971   6.244   6.386  13.761  0.0858  0.6115 -1.3646
17494TIP3   OH273972   4.183   4.043  14.587 -0.1065 -0.1956  0.0409
17494TIP3    H173973   4.145   3.958  14.568 -0.3173  0.0842 -0.7731
17494TIP3    H273974   4.264   4.023  14.635 -0.9508 -0.8004  1.2495
17495TIP3   OH273975   1.128   6.746  13.916  0.1189 -0.1214 -0.9012
17495TIP3    H173976   1.164   6.659  13.896 -1.1761 -1.1683  1.1142
17495TIP3    H273977   1.178   6.776  13.992 -0.2895  0.3463 -0.8154
17496TIP3   OH273978   0.259   1.709   5.928  0.0383  0.0712  0.0847
17496TIP3    H173979   0.255   1.670   5.840 -0.5669 -1.9361  0.9803
17496TIP3    H273980   0.208   1.650   5.983  0.6402  1.1648  1.8613
17497TIP3   OH273981   1.400   1.467   0.595 -0.2394 -0.4743 -0.3937
17497TIP3    H173982   1.431   1.379   0.618  0.0538  0.2502  2.0235
17497TIP3    H273983   1.369   1.505   0.677 -3.0836  0.6482 -1.8836
17498TIP3   OH273984   5.229   1.339  13.591 -0.2141  0.5978 -0.0026
17498TIP3    H173985   5.137   1.341  13.619 -0.2902  1.3797 -0.3183
17498TIP3    H273986   5.279   1.338  13.672 -0.5073 -0.6583  0.1826
17499TIP3   OH273987   3.494   2.386  15.303  0.0177  0.0252 -0.7946
17499TIP3    H173988   3.588   2.406  15.303 -0.2703  1.4335  0.1339
17499TIP3    H273989   3.478   2.346  15.217  1.2286  0.9243 -1.4432
17500TIP3   OH273990   3.590   4.885  15.356  0.5752  0.1467 -0.6126
17500TIP3    H173991   3.586   4.892  15.261  1.4208  0.3920 -0.6387
17500TIP3    H273992   3.500   4.869  15.383  0.2482  0.6067 -1.4119
17501TIP3   OH273993   0.269   4.944   2.082  0.3467  0.2408 -0.3565
17501TIP3    H173994   0.207   4.941   2.010  1.3448 -0.7593 -1.1981
17501TIP3    H273995   0.246   4.870   2.137 -0.4358  1.0235  0.3792
17502TIP3   OH273996   3.942   5.636  14.216 -0.3520 -0.2793 -0.1910
17502TIP3    H173997   3.873   5.658  14.279 -1.3116  1.3563 -1.7408
17502TIP3    H273998   3.969   5.721  14.180 -0.4417 -1.2208 -2.5860
17503TIP3   OH273999   3.558   3.022   3.996  0.4062  0.0248 -0.3089
17503TIP3    H174000   3.574   2.955   3.930 -1.9509 -0.3560 -0.5510
17503TIP3    H274001   3.502   2.979   4.061 -0.1666  1.4203  0.1326
17504TIP3   OH274002   4.576   6.375   2.234  0.8556  0.3853 -0.1975
17504TIP3    H174003   4.541   6.431   2.304  0.6564  1.9860 -1.5513
17504TIP3    H274004   4.557   6.286   2.264 -1.5242  1.1099  0.6156
17505TIP3   OH274005   0.805   4.256  16.406  0.0027 -0.2863 -0.2088
17505TIP3    H174006   0.774   4.342  16.377 -1.8768  0.0697  2.6935
17505TIP3    H274007   0.727   4.201  16.404  1.4222 -2.3601 -3.2629
17506TIP3   OH274008   3.664   5.657   2.007  0.2626  0.0480  0.1656
17506TIP3    H174009   3.725   5.655   1.933  0.9072  0.3395  0.6827
17506TIP3    H274010   3.721   5.654   2.085 -0.3840  0.3971  0.6509
17507TIP3   OH274011   2.977   1.956  11.899 -0.1770  0.0796  0.0547
17507TIP3    H174012   2.948   1.974  11.989  0.6615 -0.8980  0.5203
17507TIP3    H274013   2.909   1.898  11.863 -0.9032  1.0671 -0.2024
17508TIP3   OH274014   0.918   0.869  13.553 -0.5238  0.1865  0.0476
17508TIP3    H174015   0.950   0.795  13.605  0.9498  0.5097 -0.3692
17508TIP3    H274016   0.866   0.921  13.615  1.0523  0.4736  1.1584
17509TIP3   OH274017   3.845   5.085  13.506 -0.3547  0.4109  0.4591
17509TIP3    H174018   3.917   5.135  13.545  1.0179 -1.7816  0.7672
17509TIP3    H274019   3.878   4.996  13.498 -2.0885 -0.0652 -1.9252
17510TIP3   OH274020   3.923   4.682   3.680 -1.0061 -0.4565  0.1483
17510TIP3    H174021   3.939   4.625   3.604 -1.3774 -0.6962  0.2490
17510TIP3    H274022   3.967   4.636   3.752  0.9025  0.6692 -0.2568
17511TIP3   OH274023   0.809   6.139  16.134  0.5295  0.0373 -0.1100
17511TIP3    H174024   0.813   6.216  16.191 -1.2961  0.5507 -0.6418
17511TIP3    H274025   0.899   6.107  16.130  0.8069  0.3197  2.6196
17512TIP3   OH274026   4.317   1.497   2.910  0.6403 -0.2694  0.0227
17512TIP3    H174027   4.351   1.518   2.997  0.7379  2.0107 -0.5211
17512TIP3    H274028   4.222   1.498   2.921  0.6333  1.0091 -0.0930
17513TIP3   OH274029   2.788   1.671   1.727  0.4466 -0.1446  0.1684
17513TIP3    H174030   2.699   1.668   1.761 -0.2069 -1.5332 -1.6190
17513TIP3    H274031   2.787   1.745   1.666  0.7627  0.3819  0.7970
17514TIP3   OH274032   2.422   1.367   0.609 -0.1497  0.4071  0.2640
17514TIP3    H174033   2.487   1.437   0.608  1.9244 -1.4878 -1.5038
17514TIP3    H274034   2.451   1.306   0.541 -4.1928 -0.1157 -1.1141
17515TIP3   OH274035   6.529   3.771   6.287  0.5859 -0.0979 -0.2994
17515TIP3    H174036   6.502   3.776   6.379 -1.4766  1.4455 -0.9554
17515TIP3    H274037   6.500   3.684   6.258  2.4417 -1.1258  0.8456
17516TIP3   OH274038   1.334   0.800  14.831 -0.2390  0.2460  0.1286
17516TIP3    H174039   1.332   0.709  14.859 -0.5800  0.6755  1.5348
17516TIP3    H274040   1.426   0.825  14.838 -0.6249  1.0242  3.1720
17517TIP3   OH274041   5.982   5.650  12.101  0.0824  0.0504 -0.2178
17517TIP3    H174042   6.070   5.616  12.086  0.2379  1.0597 -1.6959
17517TIP3    H274043   5.927   5.599  12.041 -0.1904  0.1431 -0.0456
17518TIP3   OH274044   4.935   2.586   2.269  0.2202 -0.1582 -0.1351
17518TIP3    H174045   4.986   2.537   2.205 -0.2606 -0.4824 -0.2728
17518TIP3    H274046   4.980   2.571   2.352 -0.1809 -1.2300 -0.0947
17519TIP3   OH274047   5.539   3.707  11.306  0.0847  0.8666  0.3813
17519TIP3    H174048   5.533   3.614  11.286  0.7346  0.5145  1.7444
17519TIP3    H274049   5.581   3.746  11.229  0.4938 -0.0956  0.1175
17520TIP3   OH274050   4.343   3.075   4.348 -0.0267 -0.1440 -0.1035
17520TIP3    H174051   4.258   3.110   4.375  0.5900  0.4385  1.1211
17520TIP3    H274052   4.407   3.124   4.401  1.1612  0.4584 -2.0692
17521TIP3   OH274053   6.088   4.561   1.568  0.2225 -0.0271  0.6327
17521TIP3    H174054   6.108   4.468   1.575  1.0326 -0.0306 -1.4656
17521TIP3    H274055   6.083   4.591   1.659 -0.1869 -2.1352  1.3263
17522TIP3   OH274056   5.852   1.907   4.119  0.1958 -0.3055  0.2647
17522TIP3    H174057   5.764   1.917   4.083 -0.2743 -3.6725  0.3126
17522TIP3    H274058   5.839   1.870   4.206  1.6956 -2.0208 -0.2171
17523TIP3   OH274059   6.631   5.136   0.837 -0.5284  0.6022 -0.1703
17523TIP3    H174060   6.635   5.065   0.900 -0.4250  0.0469 -0.7985
17523TIP3    H274061   6.698   5.198   0.866 -0.1450  0.1139 -0.0228
17524TIP3   OH274062   4.034   3.331   1.842  0.5572 -0.0589 -0.2462
17524TIP3    H174063   4.047   3.317   1.936  0.8040  1.8642  0.0225
17524TIP3    H274064   4.035   3.243   1.804 -3.3924 -1.1904  2.0359
17525TIP3   OH274065   3.709   2.204   5.828  0.3321  0.3060 -0.0479
17525TIP3    H174066   3.683   2.125   5.781  0.5478 -0.9758  1.9255
17525TIP3    H274067   3.630   2.259   5.829  0.0575 -0.0676 -1.0564
17526TIP3   OH274068   1.138   0.295  14.186  0.1560 -0.2127 -0.6486
17526TIP3    H174069   1.213   0.343  14.222 -0.9560  1.0997 -0.0838
17526TIP3    H274070   1.155   0.204  14.211 -0.0639  0.5143  2.3607
17527TIP3   OH274071   6.347   4.279  16.495  0.1687 -0.1520  0.0723
17527TIP3    H174072   6.365   4.373  16.483 -0.0013 -0.3207 -1.7430
17527TIP3    H274073   6.428   4.244  16.533 -0.2007  0.9271  1.9383
17528TIP3   OH274074   4.638   2.358   4.646  0.2882  0.0107 -0.5229
17528TIP3    H174075   4.628   2.398   4.560 -0.0730  0.9888 -0.0280
17528TIP3    H274076   4.549   2.340   4.675  0.3381  0.9607  0.2391
17529TIP3   OH274077   2.760   1.721   6.382 -0.7586 -0.2558 -0.0025
17529TIP3    H174078   2.705   1.723   6.460 -1.1669 -0.3162 -0.2844
17529TIP3    H274079   2.781   1.629   6.370 -1.7067 -0.3953 -0.6574
17530TIP3   OH274080   5.878   3.980  12.872  0.5112 -0.2697  0.3566
17530TIP3    H174081   5.963   4.005  12.908  0.0292 -0.3540  1.5725
17530TIP3    H274082   5.860   3.895  12.910  0.1261 -0.4969 -0.3273
17531TIP3   OH274083   2.092   6.780   0.974 -0.3720  0.0711  0.3635
17531TIP3    H174084   1.999   6.801   0.970 -0.3782  0.3310  1.6052
17531TIP3    H274085   2.103   6.737   1.059  0.4754 -0.7894 -0.1684
17532TIP3   OH274086   4.884   5.486   1.529  0.6472 -0.1695  0.4046
17532TIP3    H174087   4.835   5.405   1.543 -1.8238  0.9341 -1.6214
17532TIP3    H274088   4.910   5.512   1.617 -2.8906 -0.5270  1.6564
17533TIP3   OH274089   4.908   3.841  15.582 -0.3750 -0.1627 -0.0178
17533TIP3    H174090   4.917   3.818  15.675  0.8709 -0.1242 -0.1239
17533TIP3    H274091   4.961   3.776  15.536  1.2078  1.4442 -0.5064
17534TIP3   OH274092   2.830   6.797   3.774  0.1194 -0.2698 -0.5297
17534TIP3    H174093   2.874   6.843   3.846  1.0797 -2.3217  0.2251
17534TIP3    H274094   2.900   6.777   3.712 -0.7862  1.9540 -2.3337
17535TIP3   OH274095   0.495   4.737  12.117  0.4066 -0.3780 -0.9887
17535TIP3    H174096   0.565   4.787  12.075 -0.0861  0.5843 -0.6945
17535TIP3    H274097   0.472   4.669  12.054  2.2002 -1.2415 -0.7281
17536TIP3   OH274098   5.277   4.845   3.723  0.3500  0.5939  0.0762
17536TIP3    H174099   5.345   4.858   3.788  0.3929 -1.2678  0.4511
17536TIP3    H274100   5.213   4.914   3.739 -0.1666 -0.4492  2.8088
17537TIP3   OH274101   2.798   0.573   2.948  0.3823 -0.0517 -0.4329
17537TIP3    H174102   2.783   0.480   2.932  0.5332 -0.0842 -0.3857
17537TIP3    H274103   2.756   0.590   3.032  2.7858 -0.7114  0.9549
17538TIP3   OH274104   4.583   2.230  14.969 -0.4679  0.1092 -0.2614
17538TIP3    H174105   4.620   2.154  15.014  0.7088 -1.2284 -3.3978
17538TIP3    H274106   4.493   2.205  14.949 -2.0112  1.8826  3.9148
17539TIP3   OH274107   0.668   4.599   3.518  0.6906  0.5063 -0.2431
17539TIP3    H174108   0.701   4.548   3.444 -0.7452 -0.8754  0.0673
17539TIP3    H274109   0.743   4.607   3.577  0.9231 -1.2733 -0.2840
17540TIP3   OH274110   0.974   1.117  15.845 -0.0796  0.5886  0.0421
17540TIP3    H174111   1.037   1.175  15.888  0.4314  0.1943 -0.1795
17540TIP3    H274112   0.952   1.162  15.763  1.7921 -0.4419 -1.0591
17541TIP3   OH274113   4.392   0.730  14.808  0.0941  0.4736 -0.0470
17541TIP3    H174114   4.303   0.743  14.775 -0.1778 -0.5048  0.2764
17541TIP3    H274115   4.395   0.780  14.890 -0.5393 -0.4310  0.5423
17542TIP3   OH274116   5.144   2.846   0.207 -0.0846  0.0077  1.1261
17542TIP3    H174117   5.145   2.777   0.141  1.8046  1.6562 -0.6440
17542TIP3    H274118   5.073   2.905   0.180  0.6315  0.6363  0.5946
17543TIP3   OH274119   5.577   2.000   3.021  0.0400 -0.6864  0.6135
17543TIP3    H174120   5.535   1.915   3.034  0.1623 -0.5840  1.7268
17543TIP3    H274121   5.639   2.007   3.094  0.2564  0.2231  0.3459
17544TIP3   OH274122   0.718   0.686  13.220 -0.1507 -0.0683 -0.3157
17544TIP3    H174123   0.688   0.633  13.294  0.2952 -0.6249 -0.5241
17544TIP3    H274124   0.706   0.628  13.144  2.7327 -0.8173 -0.2430
17545TIP3   OH274125   2.089   2.321   4.585 -0.5064 -0.0544  0.3173
17545TIP3    H174126   2.153   2.273   4.637 -0.3146  0.9839  1.0732
17545TIP3    H274127   2.139   2.393   4.546 -0.8608 -0.2380 -0.4809
17546TIP3   OH274128   5.949   5.161   2.058 -0.2545 -0.4509  0.1238
17546TIP3    H174129   5.975   5.072   2.032  0.0816 -0.5292  0.7284
17546TIP3    H274130   5.892   5.148   2.134 -0.9703 -0.2003 -0.3637
17547TIP3   OH274131   2.490   3.481  17.162 -0.1306  0.3206  0.1610
17547TIP3    H174132   2.535   3.441  17.237 -0.5146  1.1024  0.8245
17547TIP3    H274133   2.523   3.571  17.161  2.2879 -0.5241 -2.5465
17548TIP3   OH274134   5.460   3.951  13.059  0.3492 -0.4344 -0.0260
17548TIP3    H174135   5.369   3.925  13.077  0.3176 -0.3431 -0.0536
17548TIP3    H274136   5.474   4.030  13.111 -0.2287  0.7282 -1.6017
17549TIP3   OH274137   0.218   2.737  13.865  0.1613 -0.5623  0.6207
17549TIP3    H174138   0.277   2.668  13.834 -0.5830 -0.8002 -0.2862
17549TIP3    H274139   0.216   2.801  13.794 -0.7012 -0.5712  0.6311
17550TIP3   OH274140   0.821   3.072  17.066  0.5041  0.2897  0.4166
17550TIP3    H174141   0.815   3.139  17.134  2.3620  2.4179 -1.4257
17550TIP3    H274142   0.879   3.006  17.104 -0.2180  0.3716  1.7154
17551TIP3   OH274143   1.838   0.771   0.350  1.2525  0.1060  0.0615
17551TIP3    H174144   1.921   0.723   0.351  0.3401 -1.4686  0.3652
17551TIP3    H274145   1.864   0.863   0.360  2.9543 -0.3760  0.2236
17552TIP3   OH274146   2.264   1.649  11.786  0.0514 -0.3953  0.3294
17552TIP3    H174147   2.310   1.729  11.761  0.9652 -0.7101  0.9685
17552TIP3    H274148   2.172   1.669  11.773  0.3681  0.2264 -1.0424
17553TIP3   OH274149   2.226   4.282   5.317  0.3270 -0.4671  0.0105
17553TIP3    H174150   2.150   4.223   5.323 -0.4795  0.6799  1.1615
17553TIP3    H274151   2.269   4.256   5.235 -2.0335 -0.2638 -1.3410
17554TIP3   OH274152   0.505   2.028  11.329 -0.1698 -0.1732 -0.0753
17554TIP3    H174153   0.497   2.061  11.240 -1.6674  0.3749  0.2407
17554TIP3    H274154   0.584   1.974  11.328 -0.1599 -0.1540 -1.7146
17555TIP3   OH274155   3.356   1.999  12.855 -0.6221  0.0877 -0.1228
17555TIP3    H174156   3.388   2.002  12.946  0.9215  0.4714 -0.6534
17555TIP3    H274157   3.353   2.091  12.829  1.1010 -0.1412 -1.1771
17556TIP3   OH274158   0.358   6.036  16.214  0.1447  0.4135  0.3352
17556TIP3    H174159   0.424   5.982  16.170 -0.7213  0.6899 -1.3311
17556TIP3    H274160   0.282   5.979  16.222  0.0940  0.5630  0.9127
17557TIP3   OH274161   1.043   0.053   0.191  0.0858 -0.4553 -0.1401
17557TIP3    H174162   0.988   0.131   0.196 -0.0648 -0.6027  0.5047
17557TIP3    H274163   1.119   0.081   0.140  0.4830  0.3768  0.8869
17558TIP3   OH274164   5.228   0.153  13.287  0.8659 -0.1151  0.3481
17558TIP3    H174165   5.220   0.197  13.203  0.6050 -0.5184  0.1610
17558TIP3    H274166   5.237   0.060  13.265  0.0575 -0.2989  0.7920
17559TIP3   OH274167   1.483   3.140  16.451  0.2973 -0.5083  0.6963
17559TIP3    H174168   1.570   3.103  16.433  0.5399  0.5946 -0.4811
17559TIP3    H274169   1.472   3.208  16.384 -1.3096 -0.3719  1.0885
17560TIP3   OH274170   6.116   4.203  13.850 -0.1587  0.1330 -0.0277
17560TIP3    H174171   6.095   4.118  13.812 -0.1451 -0.5482  1.4771
17560TIP3    H274172   6.206   4.220  13.821  0.1759 -0.8013  0.4270
17561TIP3   OH274173   0.833   4.882  16.043 -0.6706 -0.7823  0.1179
17561TIP3    H174174   0.837   4.902  15.950 -0.3943  0.8332  0.4546
17561TIP3    H274175   0.888   4.949  16.084 -1.2467 -1.1291  1.4850
17562TIP3   OH274176   5.512   2.958   2.230  0.0891  0.3869 -0.4524
17562TIP3    H174177   5.496   2.983   2.139  0.0611  1.1870 -0.2307
17562TIP3    H274178   5.499   3.038   2.280  2.6819  0.5934 -0.0344
17563TIP3   OH274179   3.296   6.047  15.332 -0.4943 -0.2736  0.5176
17563TIP3    H174180   3.378   6.028  15.378  0.4366  0.8322 -0.6642
17563TIP3    H274181   3.285   6.141  15.340 -1.3198 -0.3306  0.0997
17564TIP3   OH274182   3.138   1.882   1.387  0.3946  0.3033  0.0180
17564TIP3    H174183   3.226   1.851   1.365  0.2782 -0.5800  0.7741
17564TIP3    H274184   3.142   1.900   1.481 -0.8045 -1.6739  0.4589
17565TIP3   OH274185   5.679   5.069  12.046  0.2299  0.4206 -0.5866
17565TIP3    H174186   5.752   5.110  11.997 -0.9517  0.7046 -2.1657
17565TIP3    H274187   5.621   5.142  12.067  0.8883  0.3406  1.5636
17566TIP3   OH274188   1.730   4.219   4.453  0.0387 -0.4549 -0.3228
17566TIP3    H174189   1.642   4.184   4.439  0.5255 -1.9857  0.4386
17566TIP3    H274190   1.785   4.171   4.391  0.3904  0.3451 -0.6409
17567TIP3   OH274191   5.676   5.507  13.189  0.0306 -0.3052  0.0649
17567TIP3    H174192   5.689   5.483  13.097 -1.5286  0.4599 -0.3630
17567TIP3    H274193   5.752   5.562  13.210  0.1783 -0.1391 -0.8752
17568TIP3   OH274194   1.029   6.320  15.327 -0.0379 -0.6388  0.2729
17568TIP3    H174195   0.944   6.280  15.341 -0.0771  0.1999  2.6600
17568TIP3    H274196   1.013   6.414  15.329  0.6045 -0.4494 -1.6931
17569TIP3   OH274197   2.613   6.203  15.411 -0.5643  0.0419 -0.5897
17569TIP3    H174198   2.580   6.291  15.392 -1.6674 -0.2240  0.0587
17569TIP3    H274199   2.651   6.211  15.499  1.1285  0.3454 -1.3271
17570TIP3   OH274200   2.157   3.700  17.122 -0.6394 -0.1397 -0.3562
17570TIP3    H174201   2.196   3.634  17.065 -0.9301  1.3240 -2.3090
17570TIP3    H274202   2.124   3.650  17.197 -0.2311 -2.1120 -1.4480
17571TIP3   OH274203   5.886   1.020   1.724 -0.6024 -0.1548  0.1824
17571TIP3    H174204   5.790   1.030   1.718 -0.9057 -2.5665  0.7542
17571TIP3    H274205   5.905   1.031   1.817  0.0960  3.3196 -0.2800
17572TIP3   OH274206   3.498   6.723  14.905  0.2623 -0.2194 -0.3277
17572TIP3    H174207   3.571   6.767  14.949  2.2444 -2.0801 -1.6580
17572TIP3    H274208   3.446   6.794  14.868  2.7737  1.0786 -1.4864
17573TIP3   OH274209   0.264   6.777   0.303  0.0920  0.0708  0.5830
17573TIP3    H174210   0.316   6.838   0.249 -3.0611  0.6336 -1.9431
17573TIP3    H274211   0.200   6.833   0.347  1.3854 -0.6519  3.5371
17574TIP3   OH274212   5.330   2.569  11.422 -0.2197 -0.3482  0.1508
17574TIP3    H174213   5.391   2.639  11.400 -0.2220  0.1956  1.7773
17574TIP3    H274214   5.260   2.612  11.472 -0.4614 -1.4233  0.7709
17575TIP3   OH274215   1.975   1.396   3.936 -0.1757  0.8516 -0.2231
17575TIP3    H174216   2.065   1.370   3.914  0.1730  0.5949  1.4305
17575TIP3    H274217   1.981   1.428   4.026 -1.4753  2.2704 -0.6266
17576TIP3   OH274218   6.611   2.701  16.104 -0.2297 -0.0096 -0.2543
17576TIP3    H174219   6.641   2.711  16.014  2.0287  0.1655  0.4904
17576TIP3    H274220   6.589   2.789  16.133  0.8051  0.1908 -0.0570
17577TIP3   OH274221   0.744   3.428   0.963  0.2156 -0.0660  0.7219
17577TIP3    H174222   0.649   3.434   0.972  0.0678 -0.8053 -0.2762
17577TIP3    H274223   0.769   3.509   0.917 -0.0980 -0.5162 -0.2475
17578TIP3   OH274224   5.708   4.633  15.564  0.7278 -0.4516 -0.1685
17578TIP3    H174225   5.742   4.690  15.495 -0.8371  0.5824 -0.1183
17578TIP3    H274226   5.638   4.684  15.605  2.3852 -0.5430  2.9958
17579TIP3   OH274227   3.933   6.790   3.753  0.3721  0.5348  0.2989
17579TIP3    H174228   3.946   6.814   3.845 -2.6712  0.9427  0.6975
17579TIP3    H274229   3.978   6.857   3.703  0.4795  1.3746  1.5016
17580TIP3   OH274230   1.565   1.084  13.838  0.3259 -0.2710  0.3676
17580TIP3    H174231   1.502   1.156  13.844 -0.2210 -0.6584 -0.5771
17580TIP3    H274232   1.643   1.117  13.881 -0.4928  0.2529  1.4755
17581TIP3   OH274233   1.957   2.719   5.347  0.2014 -0.2554  0.0697
17581TIP3    H174234   2.010   2.731   5.268 -1.0377 -0.6629 -0.8387
17581TIP3    H274235   1.884   2.665   5.318  0.5341 -1.7098  1.8535
17582TIP3   OH274236   2.092   6.668   2.165  1.1427 -0.2598  0.3269
17582TIP3    H174237   2.139   6.637   2.088  0.6794 -0.4807  0.1295
17582TIP3    H274238   2.047   6.591   2.198  0.5589  0.0457  0.2506
17583TIP3   OH274239   2.904   0.539  16.251  0.3514  0.0764 -0.6037
17583TIP3    H174240   2.895   0.469  16.187  1.0956 -0.7613  0.1969
17583TIP3    H274241   2.814   0.558  16.279 -0.0245  0.8246 -2.2829
17584TIP3   OH274242   3.966   1.571   3.733 -0.6950 -0.1916  0.4891
17584TIP3    H174243   3.959   1.650   3.678 -0.3763 -0.7834 -0.4288
17584TIP3    H274244   3.929   1.596   3.817 -2.9418  0.1746 -0.5876
17585TIP3   OH274245   1.592   1.448   6.117  0.0227  0.0336 -0.4344
17585TIP3    H174246   1.630   1.493   6.192  0.0937 -1.3059  0.3544
17585TIP3    H274247   1.654   1.462   6.045  0.5393  0.3321  0.0753
17586TIP3   OH274248   1.019   3.119  13.420 -0.2147  0.1753  0.3122
17586TIP3    H174249   1.081   3.122  13.347  0.6886 -1.9942  0.9495
17586TIP3    H274250   1.074   3.131  13.498 -0.5669 -1.6425  0.8696
17587TIP3   OH274251   1.006   5.439   2.795  0.5045 -0.5691  0.4819
17587TIP3    H174252   0.946   5.459   2.722  0.2774 -1.3741  0.4500
17587TIP3    H274253   0.958   5.468   2.873 -0.0407 -1.4574  0.4808
17588TIP3   OH274254   2.957   4.015   3.686 -0.8831 -0.5641 -0.0712
17588TIP3    H174255   2.994   4.098   3.714 -0.2853 -0.4059 -1.2788
17588TIP3    H274256   2.916   3.979   3.764  2.1256 -0.9006  1.4111
17589TIP3   OH274257   3.528   2.466  12.127  0.6737 -0.3971  0.1367
17589TIP3    H174258   3.545   2.448  12.219  2.0700  0.8949  0.1577
17589TIP3    H274259   3.609   2.442  12.082  0.9024  1.3485 -0.4156
17590TIP3   OH274260   6.211   5.332  12.825  0.0106  0.2093  0.2166
17590TIP3    H174261   6.242   5.353  12.913  1.4282 -3.1430  0.5958
17590TIP3    H274262   6.130   5.283  12.839  1.5425 -2.5891 -0.1030
17591TIP3   OH274263   0.193   0.291  16.527 -0.2007  0.3838 -0.0216
17591TIP3    H174264   0.131   0.239  16.475 -1.0336 -0.2171  1.5522
17591TIP3    H274265   0.279   0.255  16.504 -0.2279  2.1827 -3.3398
17592TIP3   OH274266   4.627   2.677  17.030 -1.0254 -0.1302 -0.4023
17592TIP3    H174267   4.542   2.665  16.988 -1.6949  0.7872  0.6580
17592TIP3    H274268   4.663   2.589  17.038 -2.6925 -0.7306  0.7975
17593TIP3   OH274269   1.970   3.601  16.149 -0.0942  0.2254 -0.2143
17593TIP3    H174270   1.992   3.531  16.086 -0.0856  0.6026 -0.6316
17593TIP3    H274271   2.044   3.603  16.209  0.1352  0.2131 -0.4984
17594TIP3   OH274272   6.612   2.998  11.221  0.2329  0.2092 -0.2658
17594TIP3    H174273   6.705   3.007  11.200 -0.0246 -0.9019 -1.9962
17594TIP3    H274274   6.573   2.961  11.141 -1.4223 -0.7452  0.9587
17595TIP3   OH274275   3.700   4.622   1.259  0.3451  0.0964  0.1290
17595TIP3    H174276   3.719   4.618   1.165 -0.1054 -2.5696  0.1303
17595TIP3    H274277   3.784   4.604   1.301  0.6568  1.7882  0.2678
17596TIP3   OH274278   5.054   1.513  11.006  0.2902 -0.0362  0.0918
17596TIP3    H174279   5.106   1.588  10.977  1.2095 -0.5718  0.3463
17596TIP3    H274280   5.059   1.450  10.934  0.1053 -0.1444  0.1708
17597TIP3   OH274281   5.821   3.247   0.782 -0.4514  0.5550  0.3372
17597TIP3    H174282   5.801   3.334   0.748  0.9708  0.8769  0.2893
17597TIP3    H274283   5.744   3.194   0.760 -1.7467  2.0261  1.2529
17598TIP3   OH274284   4.022   1.664   2.270  0.2815  0.3986 -0.0482
17598TIP3    H174285   4.042   1.640   2.179  2.1298 -2.0412  0.9335
17598TIP3    H274286   4.042   1.585   2.320  1.9284  2.5679  2.8434
17599TIP3   OH274287   1.307   1.648   3.105  0.2476 -0.9495  0.2655
17599TIP3    H174288   1.281   1.596   3.029  1.9541 -0.9045 -0.3648
17599TIP3    H274289   1.392   1.612   3.131  0.0347 -0.4636  1.6913
17600TIP3   OH274290   4.157   3.842  12.283 -0.1698  0.1310 -0.1543
17600TIP3    H174291   4.111   3.896  12.219 -2.4455  0.7296  1.8839
17600TIP3    H274292   4.088   3.786  12.319  0.4324  1.7894  3.7701
17601TIP3   OH274293   6.355   3.430  13.928 -0.3130  0.0948  0.0532
17601TIP3    H174294   6.387   3.454  14.015  0.3822 -0.9591  0.1068
17601TIP3    H274295   6.267   3.395  13.943 -0.1463 -0.2008  0.3584
17602TIP3   OH274296   5.691   4.063   0.846  0.1210  0.2678 -0.0227
17602TIP3    H174297   5.780   4.096   0.854 -0.0138  0.4972  0.5534
17602TIP3    H274298   5.699   3.982   0.796  0.8801 -0.8459  1.9007
17603TIP3   OH274299   2.061   0.511  17.265 -0.1436  0.0616 -0.3914
17603TIP3    H174300   2.024   0.551  17.344  0.7674  1.0497 -0.4552
17603TIP3    H274301   2.148   0.481  17.291  0.0551  0.1519 -0.9425
17604TIP3   OH274302   6.586   3.979  14.679  0.1019 -0.2529  0.7119
17604TIP3    H174303   6.533   4.024  14.613  1.0158  1.1426  0.9051
17604TIP3    H274304   6.677   3.998  14.654  0.4613 -0.2214  2.0263
17605TIP3   OH274305   1.039   3.669  12.494  0.5627 -0.1956 -0.2003
17605TIP3    H174306   1.047   3.600  12.428 -0.8916  0.5562 -1.1697
17605TIP3    H274307   1.086   3.744  12.457 -0.1401  0.1846 -0.3238
17606TIP3   OH274308   2.449   3.512  13.593  0.7396 -0.3987 -0.4820
17606TIP3    H174309   2.462   3.607  13.585  1.8004 -0.3171  1.7995
17606TIP3    H274310   2.524   3.473  13.548  0.7067 -0.1527 -0.7535
17607TIP3   OH274311   0.273   5.277  12.981 -0.0093 -0.1167  0.2950
17607TIP3    H174312   0.335   5.229  12.927  0.2897  0.7621 -0.1583
17607TIP3    H274313   0.263   5.224  13.060  1.1442 -0.3815  0.2670
17608TIP3   OH274314   5.281   1.036  13.015 -0.2681 -0.2407 -0.3607
17608TIP3    H174315   5.220   1.087  12.962 -0.9368  0.4693  1.0765
17608TIP3    H274316   5.283   1.081  13.100  2.9129  0.2486 -0.6420
17609TIP3   OH274317   4.545   2.838  17.271 -0.0460 -0.3387  0.2845
17609TIP3    H174318   4.542   2.897  17.195 -2.0211 -0.9658 -0.1514
17609TIP3    H274319   4.617   2.778  17.252  0.1545  0.1723 -0.5997
17610TIP3   OH274320   1.755   0.981   3.545 -0.4577  0.1707 -0.1031
17610TIP3    H174321   1.817   1.053   3.559 -1.9385  1.2136  1.3056
17610TIP3    H274322   1.669   1.023   3.551 -1.3137 -1.4480 -0.9309
17611TIP3   OH274323   5.574   3.223  14.281 -0.2227  0.3479 -0.1715
17611TIP3    H174324   5.513   3.154  14.255 -0.2115  0.3251 -0.1376
17611TIP3    H274325   5.519   3.289  14.323 -0.3987  0.9407 -1.3355
17612TIP3   OH274326   1.073   0.137   1.068  0.4397  0.2589 -0.0379
17612TIP3    H174327   1.009   0.066   1.058  0.2211  0.6268 -1.2386
17612TIP3    H274328   1.149   0.094   1.107  0.3008 -0.6314 -0.7167
17613TIP3   OH274329   5.054   2.574   2.902 -0.4051 -0.1415 -0.0108
17613TIP3    H174330   5.146   2.549   2.913  0.3102  0.9438 -2.9466
17613TIP3    H274331   5.051   2.665   2.934  0.9431  1.8680 -5.0836
17614TIP3   OH274332   6.416   6.413  14.107 -0.1397 -0.0143 -0.3193
17614TIP3    H174333   6.406   6.475  14.034  1.8281  0.9783  0.2142
17614TIP3    H274334   6.353   6.444  14.172  1.1024  1.6995  0.1009
17615TIP3   OH274335   3.330   4.912  11.245 -0.0225 -0.1539  0.5158
17615TIP3    H174336   3.422   4.892  11.259  0.6305  0.5234 -2.5669
17615TIP3    H274337   3.326   5.007  11.238 -0.5064 -0.3193 -2.0214
17616TIP3   OH274338   2.179   1.024  16.318  0.3720  0.2480  0.2337
17616TIP3    H174339   2.102   0.981  16.355 -1.3987  2.1222 -1.1519
17616TIP3    H274340   2.186   0.990  16.229  1.0778  0.1860  0.3069
17617TIP3   OH274341   0.072   5.560   3.740 -0.0311  0.6366  0.0890
17617TIP3    H174342   0.013   5.574   3.665 -2.4299  0.5760  1.9106
17617TIP3    H274343   0.145   5.511   3.704 -0.4610  1.8221 -2.5195
17618TIP3   OH274344   2.792   5.480   3.170 -0.2724 -0.6876 -0.7450
17618TIP3    H174345   2.732   5.414   3.206 -0.7718  0.8194  1.3132
17618TIP3    H274346   2.749   5.509   3.089  0.0619 -3.0038 -1.7869
17619TIP3   OH274347   2.773   1.375   5.108 -0.1029 -0.4269 -0.2401
17619TIP3    H174348   2.756   1.452   5.162  2.4668  0.0661 -0.0763
17619TIP3    H274349   2.795   1.307   5.171 -1.1857 -1.0012 -0.4597
17620TIP3   OH274350   6.118   3.884  16.075  0.2647  0.2116  1.0142
17620TIP3    H174351   6.029   3.913  16.095 -0.4077 -1.7818  1.0269
17620TIP3    H274352   6.118   3.790  16.094  1.4535 -0.4712 -1.9681
17621TIP3   OH274353   5.830   4.748   2.451 -0.4456 -0.4329 -0.3745
17621TIP3    H174354   5.860   4.764   2.361  1.1440 -1.3337 -0.0192
17621TIP3    H274355   5.750   4.698   2.441  0.8775 -2.4273 -1.2746
17622TIP3   OH274356   5.737   5.309  15.038 -0.4888 -0.5075  0.2862
17622TIP3    H174357   5.767   5.334  15.125  0.1257 -0.0265 -0.0474
17622TIP3    H274358   5.664   5.368  15.019  0.9651  1.0934 -0.5008
17623TIP3   OH274359   4.694   4.535  11.263 -0.2547  0.0007 -0.1989
17623TIP3    H174360   4.751   4.612  11.261 -1.8796  1.2242 -0.6123
17623TIP3    H274361   4.646   4.538  11.180 -0.3982 -1.4276 -0.1867
17624TIP3   OH274362   0.288   2.568   5.705  0.2366 -0.6633  0.2111
17624TIP3    H174363   0.234   2.519   5.643 -0.3120  0.6266 -0.3518
17624TIP3    H274364   0.326   2.501   5.762  0.2461 -1.8151 -1.1203
17625TIP3   OH274365   3.495   4.774  11.738  0.2690 -0.2072  0.4996
17625TIP3    H174366   3.490   4.724  11.657  2.0862  0.1242  0.1621
17625TIP3    H274367   3.569   4.736  11.785  0.3817  0.8213  1.1564
17626TIP3   OH274368   1.217   6.050   3.857 -0.8348 -0.1304  0.1412
17626TIP3    H174369   1.188   6.141   3.866 -1.4911 -0.1850 -1.2127
17626TIP3    H274370   1.236   6.022   3.947 -1.9572  0.9121  0.7323
17627TIP3   OH274371   5.672   1.791   0.892 -0.1831  0.0920 -0.9009
17627TIP3    H174372   5.764   1.764   0.901 -0.3463  0.2782  1.4372
17627TIP3    H274373   5.676   1.882   0.862  0.4322  0.7378  1.0693
17628TIP3   OH274374   1.150   4.578   5.599 -0.2507 -1.0604  0.7598
17628TIP3    H174375   1.217   4.518   5.566 -0.1233 -0.8841  0.6955
17628TIP3    H274376   1.160   4.575   5.694  0.1445 -0.7009  0.7348
17629TIP3   OH274377   4.223   2.517   2.048  0.2397  0.0307 -0.0493
17629TIP3    H174378   4.282   2.454   2.090  0.0621  0.1467  0.3641
17629TIP3    H274379   4.155   2.534   2.112 -0.6926 -0.7109 -0.8183
17630TIP3   OH274380   5.857   6.762   3.304 -0.5313  0.3631 -0.1929
17630TIP3    H174381   5.801   6.821   3.254 -0.0034 -0.9453 -2.4341
17630TIP3    H274382   5.926   6.737   3.242  1.8501  0.9881  2.1145
17631TIP3   OH274383   2.622   0.552  13.891 -0.3828  0.1102  0.1409
17631TIP3    H174384   2.683   0.560  13.818  1.2019 -0.0169  1.4103
17631TIP3    H274385   2.657   0.479  13.943 -0.7595  1.0294  1.7051
17632TIP3   OH274386   1.108   2.382   0.579  0.2312  0.4624 -0.6447
17632TIP3    H174387   1.153   2.299   0.596  1.8654  1.3580 -0.4750
17632TIP3    H274388   1.050   2.362   0.505 -1.5604 -1.5606  1.2313
17633TIP3   OH274389   3.568   4.011  13.356  0.4641  0.6574 -0.5944
17633TIP3    H174390   3.619   3.957  13.417  2.3360 -0.2038 -2.8399
17633TIP3    H274391   3.486   4.029  13.403  1.8966  0.1895  2.2229
17634TIP3   OH274392   1.641   0.408   0.913 -0.3272  0.2635  0.1483
17634TIP3    H174393   1.662   0.348   0.841  1.6504  0.3448  0.6219
17634TIP3    H274394   1.547   0.397   0.927 -0.2694 -1.6056 -0.7924
17635TIP3   OH274395   5.134   5.645   5.767  0.0198 -0.7935 -0.3344
17635TIP3    H174396   5.144   5.739   5.777  1.2553 -0.9282 -0.1768
17635TIP3    H274397   5.062   5.622   5.826  1.0013 -0.2239  1.1214
17636TIP3   OH274398   3.386   5.569  11.390  0.3843  0.2415 -0.4218
17636TIP3    H174399   3.382   5.544  11.482  1.1324  2.6417  0.3143
17636TIP3    H274400   3.302   5.613  11.373  1.1101  1.7035 -0.2781
17637TIP3   OH274401   6.080   3.481  11.485 -0.6794  0.2702 -0.2475
17637TIP3    H174402   6.156   3.498  11.541 -0.7408 -1.8399  0.4981
17637TIP3    H274403   6.020   3.431  11.539 -1.5088 -0.3061 -1.6593
17638TIP3   OH274404   1.931   0.488   5.047  0.5703  0.0331  0.3410
17638TIP3    H174405   1.888   0.554   5.101 -0.7146 -1.3285  1.0000
17638TIP3    H274406   1.904   0.508   4.958  1.6378  1.4807  0.3235
17639TIP3   OH274407   3.897   0.098   4.485  0.2340  0.2499  0.4429
17639TIP3    H174408   3.813   0.077   4.444  0.0213 -1.8730  1.8598
17639TIP3    H274409   3.887   0.187   4.518 -1.1809  0.2976 -0.0946
17640TIP3   OH274410   2.401   1.561   6.005 -0.5820 -0.8429  0.2106
17640TIP3    H174411   2.487   1.595   6.029 -0.1791 -1.5936 -0.1422
17640TIP3    H274412   2.358   1.545   6.088 -0.4264 -0.3539  0.3894
17641TIP3   OH274413   6.429   2.294  11.618  0.3900  0.3350  0.2948
17641TIP3    H174414   6.446   2.316  11.710  1.4557  0.9912 -0.0553
17641TIP3    H274415   6.408   2.200  11.620 -1.5292  0.7575  1.4427
17642TIP3   OH274416   6.458   0.220   0.706 -0.5755 -0.1174 -0.7616
17642TIP3    H174417   6.484   0.200   0.616 -2.0751 -0.0575 -1.2268
17642TIP3    H274418   6.460   0.316   0.710  0.1321 -0.1381 -0.5250
17643TIP3   OH274419   0.510   3.632  17.211  0.2877 -0.2720  0.4498
17643TIP3    H174420   0.581   3.696  17.215 -1.2956  1.4777  1.4853
17643TIP3    H274421   0.467   3.649  17.127 -0.8518  0.8225  1.2496
17644TIP3   OH274422   2.873   0.237  13.888 -0.6991 -0.8667 -0.0838
17644TIP3    H174423   2.890   0.194  13.804  3.6177  2.3875 -1.0554
17644TIP3    H274424   2.934   0.196  13.948 -0.6946 -0.1333  0.4084
17645TIP3   OH274425   4.744   2.602   1.377  0.1407  0.6475 -0.5379
17645TIP3    H174426   4.751   2.691   1.411  1.0864  1.4642 -2.7726
17645TIP3    H274427   4.818   2.555   1.416 -0.2332  0.8773  0.4698
17646TIP3   OH274428   1.059   2.281   2.714 -0.1710 -0.0324  0.5942
17646TIP3    H174429   1.106   2.254   2.792  1.3614 -0.2641 -0.3895
17646TIP3    H274430   1.104   2.361   2.685 -1.3420  0.6074  0.4971
17647TIP3   OH274431   0.429   0.569   3.868 -0.2536  0.1274  0.6399
17647TIP3    H174432   0.399   0.655   3.839  1.4922 -0.1286 -2.0586
17647TIP3    H274433   0.380   0.508   3.813  1.4305 -0.4379 -0.2775
17648TIP3   OH274434   3.248   4.713   0.476 -0.4527  0.2875  1.1063
17648TIP3    H174435   3.286   4.641   0.528  0.0373  2.5203  3.9620
17648TIP3    H274436   3.190   4.758   0.537 -3.0582  0.6249 -1.4846
17649TIP3   OH274437   3.301   1.338  14.249  0.7026  0.3460  0.0033
17649TIP3    H174438   3.230   1.366  14.191  0.7024 -0.9186 -0.6290
17649TIP3    H274439   3.320   1.415  14.303 -0.0166  1.2096 -0.9538
17650TIP3   OH274440   0.139   1.453   1.452 -0.0285 -0.3437 -0.2765
17650TIP3    H174441   0.222   1.445   1.406 -0.7959  1.4403 -2.0832
17650TIP3    H274442   0.155   1.519   1.520 -0.0881  0.4388 -1.0040
17651TIP3   OH274443   5.515   0.974  12.559  0.2754  0.2725  0.2709
17651TIP3    H174444   5.472   1.028  12.625 -2.3569 -0.0215 -1.1525
17651TIP3    H274445   5.444   0.924  12.519  2.2364 -1.7763 -0.7178
17652TIP3   OH274446   3.581   1.307   4.144  0.0034 -0.4781 -0.4754
17652TIP3    H174447   3.515   1.292   4.076 -0.4316  1.5951 -0.5492
17652TIP3    H274448   3.578   1.229   4.199 -0.0322 -1.9231 -2.5175
17653TIP3   OH274449   2.538   1.004  16.930 -0.3787 -0.5811 -0.4063
17653TIP3    H174450   2.552   1.084  16.982 -1.4479 -0.6688  0.0363
17653TIP3    H274451   2.531   1.036  16.840  3.5360 -0.6304 -0.8255
17654TIP3   OH274452   1.746   6.801   2.468 -0.2649 -0.2623 -0.0798
17654TIP3    H174453   1.709   6.886   2.447  0.6512  0.4324  1.0775
17654TIP3    H274454   1.755   6.801   2.563 -1.8711 -2.3239  0.1286
17655TIP3   OH274455   0.266   2.788  16.537 -0.0196  0.2460 -0.6097
17655TIP3    H174456   0.186   2.780  16.484  0.3806  0.0746 -1.1875
17655TIP3    H274457   0.277   2.702  16.577 -0.1795  0.3000 -0.4454
17656TIP3   OH274458   5.455   6.429  17.186 -0.3450  0.7490 -0.1616
17656TIP3    H174459   5.501   6.478  17.255  0.4700 -0.2049 -0.0116
17656TIP3    H274460   5.455   6.338  17.217  1.8688 -0.0659 -2.3433
17657TIP3   OH274461   5.703   0.251   5.779  0.3001  0.6615  0.1203
17657TIP3    H174462   5.698   0.174   5.836  0.2431  0.2270 -0.4639
17657TIP3    H274463   5.618   0.294   5.790  1.2291  2.0267  2.3494
17658TIP3   OH274464   5.494   5.738   3.524 -0.8863  0.1125 -0.5669
17658TIP3    H174465   5.504   5.649   3.558  1.2727  0.2899 -0.6648
17658TIP3    H274466   5.452   5.726   3.438 -2.6911 -0.6125  0.3891
17659TIP3   OH274467   1.840   2.078   3.765  0.1890 -0.4684 -0.1192
17659TIP3    H174468   1.865   2.024   3.840 -1.2237  1.2282  1.6257
17659TIP3    H274469   1.763   2.127   3.795 -1.2754 -0.7830 -3.1633
17660TIP3   OH274470   5.649   3.477  12.880  0.1002  0.5960 -0.1406
17660TIP3    H174471   5.708   3.507  12.810  0.9677 -1.5044 -0.3642
17660TIP3    H274472   5.690   3.509  12.960  1.4853 -0.6878 -0.3067
17661TIP3   OH274473   0.154   1.898  11.711  0.8150 -0.5074  0.4695
17661TIP3    H174474   0.086   1.907  11.644  0.9838  0.7445  0.4644
17661TIP3    H274475   0.237   1.911  11.664  0.9164  0.7649  0.9837
17662TIP3   OH274476   2.636   6.348   5.388 -0.3149  0.5186 -0.1083
17662TIP3    H174477   2.598   6.294   5.458 -2.1773  0.6442 -0.9806
17662TIP3    H274478   2.563   6.403   5.359  0.8178  1.4749 -1.1878
17663TIP3   OH274479   1.379   1.256   5.949  0.7157  0.5805 -0.3475
17663TIP3    H174480   1.289   1.261   5.916  1.0880  1.7030 -1.2380
17663TIP3    H274481   1.407   1.167   5.928  0.2446  0.6325 -1.2401
17664TIP3   OH274482   3.707   4.793  13.811 -0.2988 -0.5390  0.3607
17664TIP3    H174483   3.627   4.837  13.842 -0.3858 -0.3006 -0.1986
17664TIP3    H274484   3.718   4.823  13.721  0.0574 -1.0926  0.2152
17665TIP3   OH274485   0.740   0.803  10.817  0.1013  0.0690 -0.2621
17665TIP3    H174486   0.761   0.887  10.777  0.7422 -0.4380 -1.0038
17665TIP3    H274487   0.824   0.772  10.853 -0.1046 -0.3070 -0.1005
17666TIP3   OH274488   6.297   3.921  17.038  0.2527  0.3661  0.4217
17666TIP3    H174489   6.313   3.870  17.118 -0.7118  1.4832  1.3534
17666TIP3    H274490   6.378   3.969  17.025  0.4123  0.1908  0.7389
17667TIP3   OH274491   1.696   1.505  13.344  0.2832  0.1905  0.0523
17667TIP3    H174492   1.721   1.430  13.290  3.5713  0.1567  1.4907
17667TIP3    H274493   1.736   1.581  13.301  1.4489  0.3873  1.4186
17668TIP3   OH274494   1.305   2.744  12.304 -0.1959 -0.2740 -0.0653
17668TIP3    H174495   1.316   2.748  12.209  3.4487  2.4142  0.3566
17668TIP3    H274496   1.296   2.651  12.323  3.3640 -1.2484 -2.6425
17669TIP3   OH274497   1.218   3.542   4.202 -0.1698  0.2428 -0.6248
17669TIP3    H174498   1.243   3.608   4.138  0.1438  2.0520  1.3000
17669TIP3    H274499   1.263   3.568   4.283 -1.3962 -1.3530  0.6199
17670TIP3   OH274500   3.988   1.811  10.683 -0.1240 -0.4833 -0.2691
17670TIP3    H174501   3.998   1.725  10.724 -0.9800  0.7670  2.7470
17670TIP3    H274502   3.918   1.800  10.620 -1.3363 -1.6576  1.2397
17671TIP3   OH274503   2.845   6.261   3.388  0.5500 -0.3335 -0.2937
17671TIP3    H174504   2.803   6.192   3.337 -1.0927 -0.3987  1.0894
17671TIP3    H274505   2.798   6.341   3.363  0.2635 -0.2435  0.5069
17672TIP3   OH274506   4.640   3.612   3.325  1.0690  0.0368  0.7255
17672TIP3    H174507   4.560   3.630   3.374  1.4808 -1.6837  2.0873
17672TIP3    H274508   4.709   3.655   3.376  0.7830  3.6442 -1.7532
17673TIP3   OH274509   6.621   2.505  17.093 -0.2000  0.1376  0.3159
17673TIP3    H174510   6.588   2.463  17.013 -0.1230 -1.0491  0.8892
17673TIP3    H274511   6.629   2.597  17.071 -0.6840 -0.1052 -0.8874
17674TIP3   OH274512   6.667   3.028   2.005 -0.3169  0.1980 -0.1967
17674TIP3    H174513   6.701   3.113   2.031  0.8492 -0.5217  0.6807
17674TIP3    H274514   6.729   2.965   2.041 -2.6440 -1.1875  1.5771
17675TIP3   OH274515   3.376   5.864  12.062 -0.2921  0.0404  0.0736
17675TIP3    H174516   3.395   5.948  12.102 -0.4480 -0.3615  0.9970
17675TIP3    H274517   3.367   5.883  11.968 -0.9588  1.1386  0.3632
17676TIP3   OH274518   6.319   5.551   1.965  0.0849 -0.2008  0.1236
17676TIP3    H174519   6.249   5.590   1.913 -3.0315 -3.1533  1.8359
17676TIP3    H274520   6.388   5.532   1.902 -0.9820  2.0374 -1.7872
17677TIP3   OH274521   0.411   0.060  11.839  0.9484  0.1033  0.1468
17677TIP3    H174522   0.479   0.098  11.783  1.3376  0.4126  0.8185
17677TIP3    H274523   0.423  -0.035  11.830  0.0943  0.1261 -1.3880
17678TIP3   OH274524   0.549   5.726   3.996 -0.6144 -0.5925 -0.3148
17678TIP3    H174525   0.618   5.677   3.950  0.5546 -0.9110  1.7315
17678TIP3    H274526   0.589   5.809   4.019 -1.4358 -0.1295 -0.5316
17679TIP3   OH274527   0.739   4.248  11.523  0.2577 -0.1927  0.8110
17679TIP3    H174528   0.726   4.160  11.556  1.1978 -0.6491 -0.0043
17679TIP3    H274529   0.790   4.292  11.591 -2.0426  0.4162  2.2207
17680TIP3   OH274530   3.099   1.366  14.449  0.0521  0.2964  0.1146
17680TIP3    H174531   3.071   1.302  14.383 -0.5863  0.7342 -0.0377
17680TIP3    H274532   3.038   1.355  14.521  0.4271  0.1906  0.4218
17681TIP3   OH274533   0.349   5.227  12.186 -0.1251  0.4907 -0.3255
17681TIP3    H174534   0.389   5.211  12.272  0.6098  2.5125 -0.2653
17681TIP3    H274535   0.341   5.322  12.181 -1.8780  0.2832 -1.7462
17682TIP3   OH274536   5.667   6.518  11.735  0.4340 -0.0024 -0.6225
17682TIP3    H174537   5.615   6.506  11.655  1.3521 -0.4726 -1.1638
17682TIP3    H274538   5.738   6.454  11.726 -0.0555 -0.8201  1.0861
17683TIP3   OH274539   1.446   6.396  13.076  0.0192  0.3155  0.3067
17683TIP3    H174540   1.376   6.331  13.067  1.4317 -1.2444  0.1674
17683TIP3    H274541   1.515   6.365  13.017  1.1425  1.3795  1.0243
17684TIP3   OH274542   2.297   5.788  12.525  0.4948 -0.0197 -0.4418
17684TIP3    H174543   2.221   5.781  12.467  0.5755  0.4756 -0.6072
17684TIP3    H274544   2.264   5.829  12.605  0.3785 -0.7253 -0.1244
17685TIP3   OH274545   0.626   4.599  14.880  0.2399 -0.1127 -0.0167
17685TIP3    H174546   0.532   4.595  14.898  0.4775  0.1112  1.3835
17685TIP3    H274547   0.651   4.688  14.904  1.4163 -1.1675  2.9543
17686TIP3   OH274548   3.122   3.600  15.579  0.7278  0.0678  0.8252
17686TIP3    H174549   3.116   3.507  15.602 -2.1131 -0.0405 -0.1676
17686TIP3    H274550   3.193   3.604  15.515  0.3706 -1.5467  0.3054
17687TIP3   OH274551   3.412   1.504   2.216 -0.0198 -0.3603  0.0692
17687TIP3    H174552   3.349   1.438   2.186 -0.0321 -0.3689  0.1128
17687TIP3    H274553   3.497   1.466   2.197 -0.0154 -0.7540  0.8688
17688TIP3   OH274554   1.592   3.064   4.653 -0.6460  0.5312 -0.0893
17688TIP3    H174555   1.533   3.016   4.595  0.6974 -0.3086 -0.7755
17688TIP3    H274556   1.534   3.102   4.719 -1.6113 -3.5738  1.5931
17689TIP3   OH274557   4.708   0.750   4.840 -0.4444  0.2428  0.5617
17689TIP3    H174558   4.666   0.715   4.761 -0.6603  0.4850  0.5714
17689TIP3    H274559   4.636   0.787   4.891 -0.0994  1.4627  0.1648
17690TIP3   OH274560   5.246   2.546   0.371  0.4101 -0.3798  1.0371
17690TIP3    H174561   5.271   2.454   0.381 -0.9406 -0.8491  0.3182
17690TIP3    H274562   5.305   2.594   0.429  0.3574 -1.8240  2.3101
17691TIP3   OH274563   5.990   3.491  13.273 -0.5124  0.4234 -0.9543
17691TIP3    H174564   6.043   3.423  13.315 -1.0545 -0.4592 -1.6891
17691TIP3    H274565   6.054   3.550  13.234 -0.0523 -0.2427 -1.2162
17692TIP3   OH274566   5.057   4.321  16.168  0.1067 -0.2463  0.4520
17692TIP3    H174567   5.105   4.357  16.242  0.3079 -0.5342  0.4618
17692TIP3    H274568   5.126   4.292  16.107 -0.0556 -0.1564  0.2252
17693TIP3   OH274569   5.235   2.529   4.176 -0.6040 -0.6388 -0.1706
17693TIP3    H174570   5.320   2.493   4.202 -0.2415  1.3098  1.5333
17693TIP3    H274571   5.172   2.483   4.231 -0.2445  0.5988  1.3045
17694TIP3   OH274572   2.194   2.343   5.539  0.0545 -0.5440 -0.0026
17694TIP3    H174573   2.254   2.293   5.594  3.0477  2.2887 -0.5822
17694TIP3    H274574   2.195   2.296   5.455  0.4324 -1.2408  0.3817
17695TIP3   OH274575   3.374   5.476  11.142 -0.0168 -0.4269  0.0612
17695TIP3    H174576   3.363   5.496  11.235 -0.0199 -1.7721  0.3611
17695TIP3    H274577   3.370   5.561  11.098 -2.2032  0.0102  1.0773
17696TIP3   OH274578   2.147   3.195   1.974  0.4637  0.3874 -0.1301
17696TIP3    H174579   2.130   3.289   1.972 -0.8977  0.1440 -0.4777
17696TIP3    H274580   2.152   3.173   2.067 -0.3154  0.6122 -0.0353
17697TIP3   OH274581   0.948   0.814  11.940  0.4364 -0.2337  0.2700
17697TIP3    H174582   0.929   0.731  11.985 -0.0868 -0.0921  0.3175
17697TIP3    H274583   0.967   0.876  12.011 -2.4943  0.5400  0.4801
17698TIP3   OH274584   0.547   5.491  14.373 -0.2507 -0.0014  0.1358
17698TIP3    H174585   0.498   5.439  14.309 -2.8312 -0.3788  2.3179
17698TIP3    H274586   0.522   5.581  14.354 -1.7049 -0.1765  1.1001
17699TIP3   OH274587   5.605   5.747   2.745 -0.2081  0.2040  0.7626
17699TIP3    H174588   5.681   5.750   2.803  1.7274  0.2497 -1.6797
17699TIP3    H274589   5.632   5.798   2.669 -1.6052 -2.1940 -1.4088
17700TIP3   OH274590   6.720   6.456  12.427 -0.8530  0.1172  0.2801
17700TIP3    H174591   6.749   6.475  12.516  1.0381 -2.3838  0.2587
17700TIP3    H274592   6.712   6.542  12.385 -0.0664  1.2199  2.3436
17701TIP3   OH274593   1.011   6.249  16.517  0.1101 -0.0896  0.2499
17701TIP3    H174594   0.935   6.191  16.522  0.1902 -0.3449 -1.1746
17701TIP3    H274595   0.976   6.332  16.485  0.1734  0.3186  1.2181
17702TIP3   OH274596   4.451   6.529   2.438 -0.0242 -0.3652 -0.1186
17702TIP3    H174597   4.432   6.606   2.383  0.3760 -0.6467 -0.6571
17702TIP3    H274598   4.379   6.527   2.501  0.1287  0.6307  0.0967
17703TIP3   OH274599   4.670   5.688   1.589 -0.3580  0.0393  0.0980
17703TIP3    H174600   4.760   5.658   1.580 -0.6798 -1.3005  1.1450
17703TIP3    H274601   4.677   5.778   1.620  0.6100 -0.1626  0.4683
17704TIP3   OH274602   3.183   4.653  12.970 -0.6687 -0.2087 -0.5771
17704TIP3    H174603   3.159   4.622  12.883  0.0526 -0.3891 -0.7117
17704TIP3    H274604   3.106   4.633  13.024 -1.5172  0.8165 -1.3784
17705TIP3   OH274605   5.211   1.210   2.892  0.1951  0.5831 -0.1524
17705TIP3    H174606   5.218   1.291   2.944 -0.0470  0.4998  0.0122
17705TIP3    H274607   5.150   1.233   2.821 -0.1641  0.4327  0.1092
17706TIP3   OH274608   4.230   2.155   4.835  0.5455  0.1835  0.4683
17706TIP3    H174609   4.318   2.153   4.797 -0.2220 -0.8581 -1.2986
17706TIP3    H274610   4.227   2.238   4.883  2.7895 -0.1730  1.2868
17707TIP3   OH274611   3.978   5.239  16.352 -0.3753 -0.1307 -0.3800
17707TIP3    H174612   3.971   5.262  16.445  0.4336 -1.3509 -0.0130
17707TIP3    H274613   4.057   5.285  16.322 -0.4469 -0.0128 -0.3902
17708TIP3   OH274614   4.742   1.423   3.674 -0.5494  0.5727 -0.3834
17708TIP3    H174615   4.698   1.429   3.589 -2.4571 -0.8783  0.4687
17708TIP3    H274616   4.747   1.330   3.692  2.3128  0.7439 -0.1111
17709TIP3   OH274617   4.396   5.457  16.652 -0.0997 -0.2667 -0.1633
17709TIP3    H174618   4.395   5.525  16.585 -2.5344  0.2940  0.4072
17709TIP3    H274619   4.319   5.475  16.707  1.6727 -0.8537  2.6462
17710TIP3   OH274620   3.989   6.578  13.327 -0.5948 -0.4098  0.1349
17710TIP3    H174621   3.945   6.662  13.342  0.3662  0.5271 -1.9787
17710TIP3    H274622   4.075   6.589  13.368  0.3189  0.4654 -1.9150
17711TIP3   OH274623   1.118   2.951   3.529  0.4580 -0.0679  0.4847
17711TIP3    H174624   1.162   2.974   3.611  2.2390 -0.7002 -0.2681
17711TIP3    H274625   1.037   3.001   3.531  0.6905  0.2879  2.4240
17712TIP3   OH274626   3.557   4.118   5.171 -0.3073  0.0942  0.4254
17712TIP3    H174627   3.522   4.120   5.081 -1.8442  2.9989  1.0334
17712TIP3    H274628   3.499   4.176   5.220  2.0056  0.4914  2.7566
17713TIP3   OH274629   3.011   4.536  16.044 -0.0402 -0.0885 -0.4968
17713TIP3    H174630   3.061   4.612  16.014  0.9598 -1.4460 -2.3158
17713TIP3    H274631   3.023   4.470  15.976 -0.5986 -2.0298  1.2321
17714TIP3   OH274632   5.512   2.787   3.241  0.4051 -0.2587  0.0416
17714TIP3    H174633   5.445   2.847   3.275  0.0133  0.5942 -2.1528
17714TIP3    H274634   5.468   2.703   3.232  0.3905 -0.3773  1.1700
17715TIP3   OH274635   1.572   5.252   5.544 -0.7952 -0.5705  0.0828
17715TIP3    H174636   1.569   5.160   5.569 -2.3206 -0.8248 -0.9983
17715TIP3    H274637   1.634   5.256   5.472 -0.4501 -0.6916  0.3739
17716TIP3   OH274638   5.093   3.068  11.508  0.0523 -0.7958 -0.5213
17716TIP3    H174639   5.002   3.065  11.536 -0.2812  2.7614 -1.0284
17716TIP3    H274640   5.089   3.078  11.413  1.0523 -2.8656 -0.8249
17717TIP3   OH274641   3.065   2.089  14.041 -0.1663 -0.1896 -0.2376
17717TIP3    H174642   2.974   2.100  14.069  0.0129  0.2987  0.1383
17717TIP3    H274643   3.058   2.041  13.958 -0.9311  2.4930 -1.7937
17718TIP3   OH274644   3.484   6.080   6.011  0.6878  0.6330 -0.2569
17718TIP3    H174645   3.489   6.048   6.101 -2.3883 -1.7178 -0.8497
17718TIP3    H274646   3.531   6.015   5.960 -1.8904 -0.7605 -0.9301
17719TIP3   OH274647   3.416   3.750   5.295  0.1556 -0.3560  0.6157
17719TIP3    H174648   3.373   3.820   5.344 -1.9939 -1.0319 -0.2842
17719TIP3    H274649   3.384   3.760   5.205  0.8634 -1.6965  0.1952
17720TIP3   OH274650   5.854   4.982  13.565  0.6315 -0.3616 -0.5444
17720TIP3    H174651   5.826   5.045  13.631  0.4631 -0.3739 -0.6058
17720TIP3    H274652   5.815   5.013  13.483  0.0580 -0.8757 -0.4716
17721TIP3   OH274653   1.542   6.045  16.290 -0.1958  0.3797 -0.0968
17721TIP3    H174654   1.534   6.095  16.371 -1.7748 -2.0808  1.3312
17721TIP3    H274655   1.630   6.007  16.293 -0.8115 -1.0171  1.3101
17722TIP3   OH274656   3.076   5.291  14.087  0.3269  0.1303  0.4379
17722TIP3    H174657   3.043   5.366  14.038 -0.9715  1.6095  3.4240
17722TIP3    H274658   2.997   5.241  14.109  0.9213 -0.6920  0.6961
17723TIP3   OH274659   0.913   4.797   1.070 -0.0612 -0.0497  0.1354
17723TIP3    H174660   0.898   4.889   1.093  1.2627  0.4053 -0.7317
17723TIP3    H274661   0.873   4.787   0.984  0.6079 -0.0154 -0.1888
17724TIP3   OH274662   6.001   0.768   3.096 -0.1920  0.2756 -0.2214
17724TIP3    H174663   5.923   0.714   3.088  0.8004 -1.5268  1.8801
17724TIP3    H274664   6.072   0.712   3.065  0.4864  1.3708 -0.6821
17725TIP3   OH274665   0.081   1.303  15.574  0.5989  0.0829 -0.7096
17725TIP3    H174666   0.075   1.364  15.648 -0.9111 -0.2408 -0.5409
17725TIP3    H274667   0.005   1.246  15.584  1.3354 -1.0720 -1.5437
17726TIP3   OH274668   2.654   0.162  12.186  0.1487  0.5659  0.1895
17726TIP3    H174669   2.607   0.097  12.135 -1.7765  0.5513  1.9616
17726TIP3    H274670   2.684   0.115  12.264 -0.2159  1.4941  0.8988
17727TIP3   OH274671   1.985   0.241  11.828  0.3559  0.2563  0.4416
17727TIP3    H174672   1.926   0.291  11.772 -0.1887 -0.8606 -0.0010
17727TIP3    H274673   1.957   0.150  11.818  1.1970 -0.1259  1.3873
17728TIP3   OH274674   1.688   1.370   5.364 -0.0161 -0.7073  0.4203
17728TIP3    H174675   1.715   1.451   5.406  0.2837 -0.9407  0.6834
17728TIP3    H274676   1.625   1.397   5.297 -0.7329 -0.3591  1.2290
17729TIP3   OH274677   1.300   0.753   3.194 -0.1016 -0.4607  0.6465
17729TIP3    H174678   1.362   0.687   3.225  0.8786 -0.2557 -0.8342
17729TIP3    H274679   1.352   0.811   3.140 -1.5813 -0.2733 -0.6027
17730TIP3   OH274680   5.398   1.573  17.035 -0.3263  0.5685 -0.2857
17730TIP3    H174681   5.302   1.574  17.025 -0.1247 -0.1667 -2.5700
17730TIP3    H274682   5.417   1.649  17.090 -2.3656 -0.3101  1.7428
17731TIP3   OH274683   4.094   4.026  16.787 -0.5865 -0.2371  0.2034
17731TIP3    H174684   4.075   3.932  16.788 -0.3454 -0.3161 -1.7098
17731TIP3    H274685   4.181   4.033  16.827 -0.4781 -0.8467  0.0739
17732TIP3   OH274686   0.580   6.637   3.286  0.1015 -0.1164 -0.4937
17732TIP3    H174687   0.675   6.630   3.293  0.1254  0.0374 -0.6610
17732TIP3    H274688   0.562   6.643   3.192  0.0904  1.8421 -0.4021
17733TIP3   OH274689   2.076   1.921  14.930  0.3984 -0.1566 -0.1403
17733TIP3    H174690   2.071   2.016  14.918  0.6341  0.2106  2.3117
17733TIP3    H274691   2.167   1.899  14.912  0.1355 -0.0560 -1.5921
17734TIP3   OH274692   6.090   1.612  13.389  0.1812 -0.0434  0.7919
17734TIP3    H174693   6.045   1.591  13.307 -0.7195 -0.2169  1.3171
17734TIP3    H274694   6.183   1.611  13.367 -0.1168  1.4241 -0.5677
17735TIP3   OH274695   5.555   0.483   2.009 -0.1653 -0.4256  0.2235
17735TIP3    H174696   5.491   0.479   1.938 -0.2062 -0.3670  0.2568
17735TIP3    H274697   5.630   0.528   1.971 -0.7975  1.0467  0.6702
17736TIP3   OH274698   4.733   4.111   1.452 -0.0861 -0.0211  0.3272
17736TIP3    H174699   4.783   4.176   1.501  0.1995 -0.5820  0.7993
17736TIP3    H274700   4.798   4.067   1.397 -0.1375 -0.4212  0.5799
17737TIP3   OH274701   2.145   0.927   2.118  0.3555 -0.7184  0.4411
17737TIP3    H174702   2.050   0.931   2.103  0.3488 -1.6365  0.1896
17737TIP3    H274703   2.171   0.841   2.083  1.2377 -0.5780  0.7414
17738TIP3   OH274704   4.293   0.663   2.702  0.1725 -0.7844 -0.2522
17738TIP3    H174705   4.271   0.616   2.622  2.9521 -0.1806 -1.4230
17738TIP3    H274706   4.215   0.713   2.723 -1.6015 -3.1691 -0.9549
17739TIP3   OH274707   3.162   2.569  11.961  0.0338  0.3086 -0.2444
17739TIP3    H174708   3.090   2.630  11.980  0.4434 -0.4054  4.0803
17739TIP3    H274709   3.241   2.621  11.971  0.2825 -0.2543  0.8863
17740TIP3   OH274710   4.318   3.478  15.381  0.1069 -0.4869 -0.0721
17740TIP3    H174711   4.269   3.432  15.313  1.4998  0.7675 -2.0184
17740TIP3    H274712   4.301   3.429  15.461 -3.4830 -0.6631 -0.8499
17741TIP3   OH274713   2.996   6.684   2.810  0.2175 -0.3393 -0.2309
17741TIP3    H174714   3.080   6.680   2.764  1.8702  0.5293  2.6193
17741TIP3    H274715   2.939   6.731   2.750  2.2290  0.5196 -1.5453
17742TIP3   OH274716   3.763   5.767   6.236  0.4262 -0.2923 -0.0023
17742TIP3    H174717   3.814   5.798   6.161  1.8922  0.2306  1.1720
17742TIP3    H274718   3.829   5.729   6.295 -0.7773 -1.2766  0.7359
17743TIP3   OH274719   5.248   3.472   6.414  0.6292 -0.2312 -0.1788
17743TIP3    H174720   5.259   3.488   6.508 -0.3879  0.4615 -0.1710
17743TIP3    H274721   5.184   3.401   6.409  0.2607  0.1031 -0.3430
17744TIP3   OH274722   2.252   1.734  12.276  0.2414 -0.4389  0.0775
17744TIP3    H174723   2.188   1.681  12.323  1.9557 -0.6857  2.2362
17744TIP3    H274724   2.217   1.823  12.279 -2.3922 -1.2601 -3.1149
17745TIP3   OH274725   0.904   2.538   3.328  0.1714  0.3925 -0.1701
17745TIP3    H174726   0.936   2.612   3.277  3.9826 -1.4796 -0.6626
17745TIP3    H274727   0.905   2.465   3.266  1.7614 -1.2232  1.7025
17746TIP3   OH274728   1.996   4.872   5.796  0.0511 -0.2775 -0.3362
17746TIP3    H174729   1.913   4.862   5.750 -0.2899  2.2876 -0.3627
17746TIP3    H274730   1.974   4.916   5.878  1.1846 -1.0749  0.4269
17747TIP3   OH274731   1.075   6.520   6.814 -0.3052 -0.1248 -0.1602
17747TIP3    H174732   1.021   6.441   6.825 -1.5919  0.6486 -0.6887
17747TIP3    H274733   1.110   6.537   6.901 -0.3031 -1.0786  0.0400
17748TIP3   OH274734   0.930   4.346  12.066  0.2180 -0.3070  0.1056
17748TIP3    H174735   0.917   4.433  12.027 -2.0410  1.2468  4.0100
17748TIP3    H274736   0.959   4.364  12.155  0.9051 -3.6229  0.6135
17749TIP3   OH274737   2.696   5.512   1.975 -0.5102 -0.1211  0.0003
17749TIP3    H174738   2.677   5.575   2.045 -1.8845 -1.3767  0.7876
17749TIP3    H274739   2.744   5.441   2.019  1.3225  0.4974 -0.9392
17750TIP3   OH274740   5.848   2.739  13.491 -0.2823 -0.0905 -0.2365
17750TIP3    H174741   5.761   2.709  13.514 -0.2263 -1.1007 -1.2984
17750TIP3    H274742   5.871   2.689  13.413  1.0502  0.5142 -0.2500
17751TIP3   OH274743   3.907   5.645   3.819  0.5485 -0.4984 -0.1307
17751TIP3    H174744   3.843   5.653   3.891  0.0643 -1.2591 -0.4737
17751TIP3    H274745   3.932   5.736   3.800 -0.9461 -0.1431 -0.4515
17752TIP3   OH274746   1.113   3.413   3.104  0.1492 -0.3442 -0.0900
17752TIP3    H174747   1.205   3.400   3.126  0.6700 -3.3252 -3.4986
17752TIP3    H274748   1.068   3.336   3.140 -1.2147  1.6077  2.4668
17753TIP3   OH274749   6.528   4.355  13.459  0.1105  0.1125  0.3288
17753TIP3    H174750   6.502   4.447  13.468 -0.3045  0.0056  0.2562
17753TIP3    H274751   6.494   4.329  13.373 -1.3987 -0.6232  1.1112
17754TIP3   OH274752   1.574   5.434   3.052  0.1803 -0.4100  0.1267
17754TIP3    H174753   1.602   5.510   3.103 -2.3468  2.1964 -2.2315
17754TIP3    H274754   1.531   5.377   3.117  0.1256  1.2081  1.5442
17755TIP3   OH274755   2.577   0.847  16.292  0.3405  0.4786 -0.7856
17755TIP3    H174756   2.671   0.860  16.282  0.8408 -2.7960 -0.6696
17755TIP3    H274757   2.542   0.855  16.204  0.9470 -0.0276 -1.0742
17756TIP3   OH274758   6.292   0.665   1.611 -0.2760  0.6081 -0.0806
17756TIP3    H174759   6.305   0.759   1.610 -1.7442  0.8183 -2.0041
17756TIP3    H274760   6.379   0.628   1.594 -0.0043  1.6479 -0.9860
17757TIP3   OH274761   0.232   0.902  11.034  0.1372  0.0102 -0.0514
17757TIP3    H174762   0.208   0.842  11.105  0.1222  0.5282  0.3850
17757TIP3    H274763   0.307   0.951  11.069 -0.6613  1.1539  0.0970
17758TIP3   OH274764   2.440   4.866  13.819 -0.6860 -0.7291  0.1132
17758TIP3    H174765   2.481   4.866  13.732  0.3466  1.3966  0.5737
17758TIP3    H274766   2.494   4.808  13.871 -0.7465 -1.2545 -0.4052
17759TIP3   OH274767   6.661   1.970   5.585  0.1140 -0.2986 -0.0297
17759TIP3    H174768   6.613   1.919   5.651 -0.7035  0.8268  0.2699
17759TIP3    H274769   6.620   1.946   5.502  0.6674 -1.1835 -0.0483
17760TIP3   OH274770   4.176   6.156   2.969  0.2259 -0.6769 -0.2455
17760TIP3    H174771   4.186   6.062   2.979 -0.1476 -0.7032 -0.1182
17760TIP3    H274772   4.155   6.168   2.876 -1.3299 -0.8613  0.0710
17761TIP3   OH274773   5.000   1.625   6.473  0.5358  0.3191  0.4043
17761TIP3    H174774   5.054   1.578   6.536  2.0301  0.2773 -0.8822
17761TIP3    H274775   5.062   1.667   6.414 -0.8195 -1.2702 -2.2453
17762TIP3   OH274776   5.838   6.189  17.213  0.2995  0.0784 -0.4155
17762TIP3    H174777   5.886   6.227  17.140 -1.0322  0.2955 -1.1988
17762TIP3    H274778   5.903   6.139  17.262  0.5176 -3.2456 -3.8663
17763TIP3   OH274779   1.580   1.721  12.138  0.3185  0.7435 -0.0895
17763TIP3    H174780   1.484   1.715  12.143  0.3750  0.7679  1.3295
17763TIP3    H274781   1.601   1.697  12.048 -1.1699  2.7774 -1.0132
17764TIP3   OH274782   2.209   4.743  13.713 -0.9613  0.0881 -0.1092
17764TIP3    H174783   2.283   4.783  13.758 -1.9694  1.1740  0.5976
17764TIP3    H274784   2.247   4.670  13.663  0.5626  0.6253  0.2717
17765TIP3   OH274785   0.225   2.022  12.399  0.1902 -0.4875 -0.1474
17765TIP3    H174786   0.223   2.055  12.309  2.4375  2.3145  0.7680
17765TIP3    H274787   0.215   2.100  12.454 -0.8308 -2.1146  2.0544
17766TIP3   OH274788   0.464   3.481  12.330  0.4499  0.1348 -0.2581
17766TIP3    H174789   0.483   3.533  12.252  1.0948  2.0953  1.1700
17766TIP3    H274790   0.519   3.518  12.399  0.9631 -2.4802  0.8160
17767TIP3   OH274791   1.154   0.499   2.951 -0.1586  0.4651  0.1445
17767TIP3    H174792   1.147   0.435   2.881  2.6250 -1.1591  1.2615
17767TIP3    H274793   1.237   0.544   2.935 -0.4176  1.3868  1.2976
17768TIP3   OH274794   0.097   3.639   2.286 -0.3419  0.1604 -0.0528
17768TIP3    H174795   0.135   3.670   2.368 -2.1434 -1.1627  1.3416
17768TIP3    H274796   0.173   3.619   2.230  0.9634 -0.4730  1.8901
17769TIP3   OH274797   6.134   3.275   0.003  0.0014 -0.2526 -0.2430
17769TIP3    H174798   6.080   3.288   0.081 -0.4032 -0.0722 -0.5539
17769TIP3    H274799   6.075   3.236  -0.061  0.5043 -1.0436 -0.2375
17770TIP3   OH274800   2.628   2.141   1.891  0.4590 -0.0723  0.1105
17770TIP3    H174801   2.535   2.164   1.900  0.3776 -0.5661  0.6463
17770TIP3    H274802   2.673   2.224   1.882 -0.1683  0.1137 -1.4617
17771TIP3   OH274803   0.440   1.204  17.208  0.2394  0.1867 -0.1639
17771TIP3    H174804   0.469   1.114  17.193 -1.5335 -0.3110 -0.7416
17771TIP3    H274805   0.366   1.216  17.148 -0.0726  1.7507  0.4991
17772TIP3   OH274806   1.694   4.045  13.443  0.2035  0.3484  0.0383
17772TIP3    H174807   1.759   4.111  13.463  1.5122 -1.2070  1.0655
17772TIP3    H274808   1.613   4.094  13.429  1.5395  2.2887 -1.1224
17773TIP3   OH274809   3.900   1.537  15.221  0.1155 -0.0465 -0.1689
17773TIP3    H174810   3.986   1.509  15.250  0.1724  0.2158 -0.0845
17773TIP3    H274811   3.864   1.461  15.176  0.6570  0.0560 -0.7865
17774TIP3   OH274812   0.452   3.651  14.907 -0.3786  0.0700  0.3911
17774TIP3    H174813   0.482   3.599  14.833 -1.5916  0.0804 -0.1174
17774TIP3    H274814   0.369   3.611  14.934 -1.2986  1.6577  0.0283
17775TIP3   OH274815   5.605   1.944  14.162  0.2480  0.0308  0.1775
17775TIP3    H174816   5.647   2.006  14.102 -1.0307  0.1921 -0.5618
17775TIP3    H274817   5.585   1.868  14.107 -2.1669  0.7184  0.0785
17776TIP3   OH274818   3.288   5.180  14.426 -0.1995  0.3406 -0.5336
17776TIP3    H174819   3.378   5.150  14.444 -0.4031 -1.0990 -1.7921
17776TIP3    H274820   3.284   5.186  14.331 -1.9832 -1.4263 -0.6040
17777TIP3   OH274821   5.140   0.224  13.783 -0.1156  0.3738  0.5065
17777TIP3    H174822   5.115   0.185  13.700 -1.9590  1.6971  0.4154
17777TIP3    H274823   5.224   0.267  13.766 -1.8803  3.1508 -1.4826
17778TIP3   OH274824   1.272   5.568  14.577  0.6280  0.4568 -0.6553
17778TIP3    H174825   1.277   5.652  14.623  0.4142 -0.5532  1.2630
17778TIP3    H274826   1.178   5.549  14.573  0.7049  0.0400 -0.5405
17779TIP3   OH274827   0.448   4.841   2.663 -0.2684  0.1926 -0.0692
17779TIP3    H174828   0.477   4.876   2.579 -1.3326  0.6840 -0.2279
17779TIP3    H274829   0.406   4.758   2.641 -0.0343  0.0407  0.0455
17780TIP3   OH274830   0.839   0.143  13.977  0.2181  0.7294 -0.5407
17780TIP3    H174831   0.918   0.121  13.928  0.9105  0.8566  0.4933
17780TIP3    H274832   0.857   0.114  14.066 -1.2470 -0.0246 -0.4743
17781TIP3   OH274833   0.156   1.364  15.306  0.0494 -0.0943 -0.2732
17781TIP3    H174834   0.103   1.371  15.226 -1.7416 -2.0725  0.6699
17781TIP3    H274835   0.092   1.348  15.375  1.4390  3.1362  1.8368
17782TIP3   OH274836   4.738   3.705  11.582  0.5776  0.2235 -0.0872
17782TIP3    H174837   4.774   3.752  11.506  1.2833  0.0957  0.1655
17782TIP3    H274838   4.796   3.728  11.654  0.5117 -0.4884  0.1925
17783TIP3   OH274839   3.849   5.630   4.115 -0.5715  0.6511  0.7008
17783TIP3    H174840   3.880   5.603   4.201  0.7279 -0.6583 -0.1487
17783TIP3    H274841   3.881   5.719   4.104  0.0774  0.4788  1.1868
17784TIP3   OH274842   6.281   3.431   4.407 -0.2703 -0.2727  0.3881
17784TIP3    H174843   6.236   3.452   4.488  0.2462  1.2858  0.2922
17784TIP3    H274844   6.231   3.359   4.369 -1.0672 -0.3754  1.6155
17785TIP3   OH274845   3.516   3.160  16.184  0.3510 -0.1354  0.3937
17785TIP3    H174846   3.433   3.184  16.143 -0.0576 -0.3582  1.0617
17785TIP3    H274847   3.581   3.165  16.114  0.0845  1.7407  0.2499
17786TIP3   OH274848   0.383   2.297  10.934 -0.0923  0.5507 -0.0876
17786TIP3    H174849   0.310   2.357  10.947 -0.9458 -0.4855 -0.0742
17786TIP3    H274850   0.376   2.270  10.842 -1.5644 -1.9129  0.7074
17787TIP3   OH274851   4.606   1.355  11.490 -0.7257 -0.4364 -0.3449
17787TIP3    H174852   4.621   1.339  11.583 -0.8527  0.6985 -0.1199
17787TIP3    H274853   4.635   1.275  11.447  1.4023 -0.1376  0.4792
17788TIP3   OH274854   5.350   1.051   1.933  0.4086 -1.0128  0.3299
17788TIP3    H174855   5.445   1.043   1.938  0.5758  0.2603 -0.5894
17788TIP3    H274856   5.335   1.144   1.918 -1.0639 -0.9134  2.2031
17789TIP3   OH274857   0.294   5.740  12.793 -0.0012  0.2407  0.0579
17789TIP3    H174858   0.356   5.717  12.723  1.1107  1.1725  0.7235
17789TIP3    H274859   0.245   5.814  12.758 -1.2394 -0.9186 -0.7371
17790TIP3   OH274860   0.099   2.846  14.127 -0.8553  0.2735  0.1581
17790TIP3    H174861   0.151   2.913  14.083 -1.5422 -0.1066 -1.2739
17790TIP3    H274862   0.100   2.871  14.219 -0.3663  1.7399 -0.2364
17791TIP3   OH274863   2.282   5.673   0.908 -0.0182  0.6926 -0.3075
17791TIP3    H174864   2.346   5.731   0.950 -0.7700  1.2327  0.1093
17791TIP3    H274865   2.201   5.687   0.958 -1.1061  1.8161 -2.2976
17792TIP3   OH274866   5.190   4.751   2.256  0.0061  0.0514 -0.4442
17792TIP3    H174867   5.212   4.717   2.169  0.7282  0.9033 -0.6000
17792TIP3    H274868   5.244   4.830   2.266 -0.4171  0.2239  0.5868
17793TIP3   OH274869   0.674   1.836   1.615 -0.3677 -0.5411  0.6007
17793TIP3    H174870   0.637   1.762   1.568 -0.5325 -2.1203  3.1047
17793TIP3    H274871   0.602   1.869   1.669 -0.3216  1.5288 -0.5262
17794TIP3   OH274872   6.077   5.087   2.338 -0.0743  0.5654  0.3803
17794TIP3    H174873   6.014   5.021   2.309 -0.7713  1.1761  0.5095
17794TIP3    H274874   6.086   5.071   2.432  0.8316 -0.2537  0.1642
17795TIP3   OH274875   2.993   6.409  14.400  0.5042  0.4446  0.1027
17795TIP3    H174876   2.958   6.496  14.415 -0.3798  0.0968  0.0462
17795TIP3    H274877   2.935   6.370  14.335  1.3739  0.1075 -0.4831
17796TIP3   OH274878   0.815   0.477   1.006  0.0339  0.0615 -0.4681
17796TIP3    H174879   0.884   0.460   1.071  0.8842  2.5911 -0.6669
17796TIP3    H274880   0.848   0.438   0.925  0.3191 -0.4837 -0.0940
17797TIP3   OH274881   5.925   3.638   5.031  0.1148 -0.3407 -0.0195
17797TIP3    H174882   5.943   3.706   5.096  0.0055  0.3617 -0.7091
17797TIP3    H274883   5.946   3.556   5.075  1.6994  0.2302  0.3341
17798TIP3   OH274884   2.209   0.265  16.816 -0.1875 -0.4079 -0.1517
17798TIP3    H174885   2.181   0.320  16.890 -1.3983 -1.2349  0.0126
17798TIP3    H274886   2.303   0.255  16.829  0.2298  2.3739 -0.6907
17799TIP3   OH274887   0.657   6.006  13.992  0.7612  0.4359  0.3210
17799TIP3    H174888   0.601   6.080  14.018  0.9069  0.8491 -0.5293
17799TIP3    H274889   0.613   5.968  13.917  0.7730 -0.2544  0.6630
17800TIP3   OH274890   5.417   3.842   1.174  0.3266 -0.5647  0.5210
17800TIP3    H174891   5.421   3.828   1.080  0.9336 -3.2765  0.9200
17800TIP3    H274892   5.482   3.911   1.191 -0.3277  0.4832 -1.0960
17801TIP3   OH274893   0.569   2.489  15.149  0.1185  0.8377 -0.8788
17801TIP3    H174894   0.618   2.551  15.203  0.6817  0.2503 -0.7049
17801TIP3    H274895   0.576   2.406  15.196  0.2765  0.4098 -1.6487
17802TIP3   OH274896   3.737   6.336  15.690  0.5452  0.2368  0.1094
17802TIP3    H174897   3.812   6.318  15.634  0.5348 -2.6449  0.9282
17802TIP3    H274898   3.662   6.343  15.630  1.1374  1.1376 -0.5330
17803TIP3   OH274899   5.973   6.256  11.083 -0.7746 -0.3273 -0.0200
17803TIP3    H174900   5.917   6.322  11.043 -1.4366  0.2725  1.8259
17803TIP3    H274901   5.918   6.177  11.085 -1.0947 -0.0987  0.5511
17804TIP3   OH274902   1.625   4.295   1.552 -0.2400 -0.1919 -0.1707
17804TIP3    H174903   1.549   4.328   1.503  0.2425  1.7433  0.3281
17804TIP3    H274904   1.679   4.373   1.568  2.2979 -1.6496 -1.2582
17805TIP3   OH274905   3.565   0.762  14.160  0.4454  0.0813  0.0832
17805TIP3    H174906   3.506   0.800  14.095  0.7498 -0.2490 -0.3966
17805TIP3    H274907   3.618   0.700  14.109 -1.7411 -2.8799  1.2498
17806TIP3   OH274908   3.221   0.251  12.759 -0.3477 -0.5581  0.3234
17806TIP3    H174909   3.287   0.299  12.808 -0.5355 -0.9035  0.9239
17806TIP3    H274910   3.137   0.281  12.794 -0.5105 -0.2498 -0.3141
17807TIP3   OH274911   0.346   5.121   3.903  0.2140  0.0044  0.3727
17807TIP3    H174912   0.431   5.161   3.924  0.1576 -0.9265  2.5481
17807TIP3    H274913   0.331   5.142   3.811  3.3583 -0.8207 -0.3787
17808TIP3   OH274914   6.448   2.857  11.983  0.2716 -0.6019  0.2422
17808TIP3    H174915   6.461   2.864  11.888 -1.6951 -2.1100 -0.1609
17808TIP3    H274916   6.463   2.765  12.003  0.7666 -0.2803  1.4451
17809TIP3   OH274917   3.068   6.319  15.804  0.5991 -0.0467  0.0354
17809TIP3    H174918   3.027   6.405  15.808  0.2616 -0.2225  0.4158
17809TIP3    H274919   3.118   6.313  15.885 -0.0559 -0.5414  0.4104
17810TIP3   OH274920   6.461   2.473  15.869  0.0867 -0.2494 -0.7161
17810TIP3    H174921   6.406   2.413  15.819  0.4248 -1.3716  0.2422
17810TIP3    H274922   6.550   2.451  15.843  0.1977 -0.0099 -0.5402
17811TIP3   OH274923   2.489   3.801  13.409 -0.1526  0.2385  0.0620
17811TIP3    H174924   2.394   3.805  13.405 -0.2418 -0.7057  1.1158
17811TIP3    H274925   2.511   3.825  13.499  0.6113  0.5865 -0.2135
17812TIP3   OH274926   1.735   6.771  12.800  0.4789  0.0643 -0.2235
17812TIP3    H174927   1.791   6.698  12.827  3.5067  1.5832 -2.1781
17812TIP3    H274928   1.691   6.798  12.881  0.9048 -2.5210  0.9366
17813TIP3   OH274929   5.410   0.603  13.518  0.5342  0.2353  0.2162
17813TIP3    H174930   5.500   0.634  13.520  0.5088  0.2562  1.6130
17813TIP3    H274931   5.359   0.679  13.491  1.0236 -0.0307 -1.5038
17814TIP3   OH274932   4.109   0.077   1.687  0.3508  0.1172  0.5617
17814TIP3    H174933   4.139   0.157   1.643 -0.0515 -0.0718 -0.0611
17814TIP3    H274934   4.097   0.103   1.778  2.1508  0.2628  0.7725
17815TIP3   OH274935   2.132   6.444  11.599 -0.1735 -0.0925 -0.1525
17815TIP3    H174936   2.224   6.455  11.575 -0.8644  0.7193 -2.5455
17815TIP3    H274937   2.135   6.418  11.691  2.5385 -2.0114 -0.6960
17816TIP3   OH274938   3.601   5.694  11.250  0.3770 -0.0179 -0.0446
17816TIP3    H174939   3.642   5.631  11.190  0.9005  0.3644 -0.0936
17816TIP3    H274940   3.551   5.640  11.311  1.5354 -0.5432  0.4615
17817TIP3   OH274941   0.291   3.482   1.311 -0.2090 -0.1984  0.5155
17817TIP3    H174942   0.284   3.475   1.216 -1.1828  2.4251  0.3433
17817TIP3    H274943   0.223   3.423   1.345 -1.1442  0.2981 -0.4683
17818TIP3   OH274944   5.036   3.680   3.480 -0.3548  0.3681  0.6635
17818TIP3    H174945   5.088   3.699   3.558  3.5456  0.7177 -1.8762
17818TIP3    H274946   5.060   3.590   3.457  0.7550  1.2282 -1.6896
17819TIP3   OH274947   4.622   3.904   2.237 -0.2517 -0.4029  0.3931
17819TIP3    H174948   4.706   3.880   2.197  0.1243  2.2043 -0.4650
17819TIP3    H274949   4.557   3.860   2.182  0.3834  1.0717 -1.5876
17820TIP3   OH274950   0.733   2.329  12.540  0.0839 -0.7939  0.1774
17820TIP3    H174951   0.638   2.319  12.548 -0.1086 -0.0293 -0.9847
17820TIP3    H274952   0.759   2.260  12.479  0.1370 -0.3931 -0.2534
17821TIP3   OH274953   3.732   5.402   3.076 -0.2202  0.0772  0.0011
17821TIP3    H174954   3.824   5.428   3.074  0.2011 -1.4016  0.0630
17821TIP3    H274955   3.699   5.436   3.159  0.7864 -1.1681  0.9060
17822TIP3   OH274956   2.699   0.377   5.689  0.0396 -0.5461 -0.2848
17822TIP3    H174957   2.791   0.376   5.662  0.1303 -0.8799  0.0222
17822TIP3    H274958   2.703   0.369   5.785 -0.2078  2.1160 -0.0239
17823TIP3   OH274959   4.181   6.230  15.464  0.0492 -0.2861 -0.1201
17823TIP3    H174960   4.239   6.299  15.496  0.7500 -2.2095  2.9830
17823TIP3    H274961   4.240   6.157  15.445 -1.1549 -1.6514  1.3258
17824TIP3   OH274962   5.069   2.520   5.540  0.1731 -0.4056 -0.1147
17824TIP3    H174963   5.119   2.576   5.598 -1.6078  0.4084  0.6553
17824TIP3    H274964   5.070   2.565   5.456 -0.6054  0.3933  0.3055
17825TIP3   OH274965   2.747   2.659   6.831  0.2665 -0.0481  0.4083
17825TIP3    H174966   2.743   2.590   6.897 -1.3366  0.8542  1.2752
17825TIP3    H274967   2.665   2.707   6.841  1.2671  1.8634 -0.3257
17826TIP3   OH274968   1.088   1.562  15.945  0.2090 -1.0508 -0.3845
17826TIP3    H174969   1.024   1.505  15.902 -1.8247 -0.1759  1.4120
17826TIP3    H274970   1.096   1.526  16.033  1.1020 -0.2885 -0.1471
17827TIP3   OH274971   4.227   1.601   6.520 -0.8694  0.7486  0.4107
17827TIP3    H174972   4.253   1.621   6.610  3.3419  1.0152 -0.7627
17827TIP3    H274973   4.234   1.684   6.473  1.1219 -0.1899 -1.0412
17828TIP3   OH274974   1.472   6.378  12.328  0.1624 -0.4890  0.1832
17828TIP3    H174975   1.515   6.298  12.356 -0.6474 -0.9193  0.2144
17828TIP3    H274976   1.529   6.414  12.261  0.5786 -1.0399  0.2411
17829TIP3   OH274977   3.578   3.892  12.789 -0.0154  0.2716  0.1543
17829TIP3    H174978   3.520   3.829  12.830 -1.0903  1.3497  0.3299
17829TIP3    H274979   3.522   3.968  12.770  1.3948  1.4621  0.6188
17830TIP3   OH274980   2.542   1.633   1.847  0.3634  0.2073 -0.5890
17830TIP3    H174981   2.451   1.661   1.835  0.4864  1.3084  0.8015
17830TIP3    H274982   2.549   1.618   1.942  1.7674  0.6396 -0.6206
17831TIP3   OH274983   6.297   3.069   4.327 -0.1568  0.6824  0.3643
17831TIP3    H174984   6.335   2.982   4.312 -0.2394 -0.0281  3.8461
17831TIP3    H274985   6.207   3.062   4.295  0.1704 -0.1358 -0.4073
17832TIP3   OH274986   3.000   5.839   1.985 -0.0639 -0.5501 -0.2841
17832TIP3    H174987   3.075   5.894   1.963  0.9935 -1.9653 -0.3002
17832TIP3    H274988   3.023   5.797   2.068 -1.1140 -0.4972  0.0428
17833TIP3   OH274989   2.961   5.033  15.709 -0.1764  0.3216 -0.3656
17833TIP3    H174990   2.939   5.051  15.801  1.2948  0.5586 -0.0561
17833TIP3    H274991   2.922   4.947  15.692 -0.1254  0.1013  0.5909
17834TIP3   OH274992   2.984   0.684  16.006  0.2682  0.6774  0.2218
17834TIP3    H174993   3.078   0.686  16.020 -0.0525  5.1920  2.6712
17834TIP3    H274994   2.947   0.655  16.089 -0.5891  0.9306 -0.0579
17835TIP3   OH274995   2.709   1.487  15.827 -0.1637  0.0200  0.3794
17835TIP3    H174996   2.696   1.473  15.921  1.7441  0.8599  0.7866
17835TIP3    H274997   2.739   1.578  15.820 -0.4250  0.0098 -1.0644
17836TIP3   OH274998   2.545   5.285  14.229  0.1498 -0.3575  0.0125
17836TIP3    H174999   2.619   5.230  14.256 -0.3532 -0.5987  0.9278
17836TIP3    H275000   2.469   5.246  14.273 -0.5356 -0.1583 -0.9750
17837TIP3   OH275001   0.458   0.269   1.291  0.7069 -1.2520  0.1086
17837TIP3    H175002   0.458   0.198   1.226  2.0894 -1.6882  0.5674
17837TIP3    H275003   0.369   0.270   1.326  0.1288 -1.4585 -1.3070
17838TIP3   OH275004   4.805   2.969  10.875  0.5301 -0.5797 -0.0438
17838TIP3    H175005   4.881   3.028  10.881 -2.5223  3.6208 -0.2072
17838TIP3    H275006   4.748   3.011  10.810 -2.5967 -2.8025  1.1408
17839TIP3   OH275007   1.358   1.536  10.767  0.1990 -0.4357  0.4240
17839TIP3    H175008   1.436   1.495  10.730  0.4543 -1.0601  1.6465
17839TIP3    H275009   1.373   1.630  10.755  1.3693 -0.5240  1.1048
17840TIP3   OH275010   4.282   2.141  13.445  0.1462 -0.3360  0.2682
17840TIP3    H175011   4.242   2.129  13.531  1.4279  0.7995  1.0469
17840TIP3    H275012   4.217   2.190  13.395 -0.5788 -0.9490  0.5937
17841TIP3   OH275013   1.620   2.810   1.211  0.2895 -0.1116 -0.3083
17841TIP3    H175014   1.672   2.866   1.268 -0.4730  0.9889 -0.6652
17841TIP3    H275015   1.532   2.847   1.216 -0.0309 -0.7336 -1.2644
17842TIP3   OH275016   4.041   6.320   0.866 -0.2777  0.5879  0.3752
17842TIP3    H175017   4.057   6.411   0.889  1.9084  0.6841 -1.3625
17842TIP3    H275018   4.076   6.270   0.941  0.8685  1.1086  0.2000
17843TIP3   OH275019   2.668   3.919  15.182  0.1704  0.3676 -0.1184
17843TIP3    H175020   2.644   3.827  15.197  1.1437  0.3966  1.7483
17843TIP3    H275021   2.585   3.966  15.182 -0.1811 -0.2554  0.8128
17844TIP3   OH275022   3.430   0.541   3.443 -0.4693  0.7020  0.0464
17844TIP3    H175023   3.404   0.488   3.368 -0.6204  2.4498 -1.1599
17844TIP3    H275024   3.348   0.574   3.479 -0.3515  0.4094  0.5984
17845TIP3   OH275025   6.770   1.047  15.349 -0.2231  0.1286 -0.0492
17845TIP3    H175026   6.771   1.004  15.434 -0.9386 -1.0326 -0.6190
17845TIP3    H275027   6.734   1.134  15.367 -0.3016 -0.0825  0.8408
17846TIP3   OH275028   0.104   1.616   3.102 -0.5883  0.4834 -0.3878
17846TIP3    H175029   0.070   1.638   3.189  0.0080 -0.5920  0.1312
17846TIP3    H275030   0.101   1.698   3.053  1.2945  1.6403  1.3746
17847TIP3   OH275031   1.589   2.928   2.781  0.0047 -0.5396 -0.4049
17847TIP3    H175032   1.616   2.928   2.873  0.7048 -0.1203 -0.6031
17847TIP3    H275033   1.668   2.905   2.733  0.1458  1.1818 -1.0328
17848TIP3   OH275034   2.816   1.853  13.931 -0.1341 -0.0552 -0.7108
17848TIP3    H175035   2.846   1.836  13.841 -1.6659 -0.9156 -1.0708
17848TIP3    H275036   2.776   1.771  13.959  1.7276 -0.3054  1.3535
17849TIP3   OH275037   5.724   4.338   1.591 -0.3365 -0.2357  0.1798
17849TIP3    H175038   5.667   4.307   1.521 -0.4053 -0.2477  0.2413
17849TIP3    H275039   5.811   4.307   1.566 -0.3054  0.0461 -0.0751
17850TIP3   OH275040   0.533   0.776  14.047  1.0024 -0.0052  0.0563
17850TIP3    H175041   0.548   0.832  13.972 -0.9210  1.9148  1.0646
17850TIP3    H275042   0.439   0.755  14.044  1.0686 -0.6009  1.4299
17851TIP3   OH275043   5.708   5.728   2.382 -0.1014  0.2448 -0.2761
17851TIP3    H175044   5.775   5.673   2.341  2.1892  1.1005  2.2163
17851TIP3    H275045   5.757   5.784   2.442 -2.9320  1.7849  0.6462
17852TIP3   OH275046   5.497   1.751   5.531 -0.1060  0.5719  0.7156
17852TIP3    H175047   5.463   1.765   5.620  1.9829  0.4974  1.5636
17852TIP3    H275048   5.568   1.815   5.522  0.6325 -0.3645 -0.3568
17853TIP3   OH275049   4.069   0.316  12.084  0.5968 -0.1078  0.7141
17853TIP3    H175050   4.064   0.404  12.122  0.7664 -0.8878  2.6265
17853TIP3    H275051   4.011   0.320  12.008 -1.4121  0.9692  2.2299
17854TIP3   OH275052   1.317   3.258   2.823  0.2732  0.8489  0.2232
17854TIP3    H175053   1.254   3.237   2.754  0.3522  0.7750  0.1741
17854TIP3    H275054   1.343   3.173   2.859  0.8855  0.8354 -0.2340
17855TIP3   OH275055   5.691   2.812  16.063 -0.2844  0.3496 -0.6618
17855TIP3    H175056   5.640   2.766  15.997  0.2666 -0.3127 -0.6241
17855TIP3    H275057   5.751   2.747  16.097  0.9412  1.2547 -1.0644
17856TIP3   OH275058   1.527   1.154  12.686  0.2893  0.0215 -0.1474
17856TIP3    H175059   1.577   1.076  12.666 -0.6406 -0.2972 -1.2994
17856TIP3    H275060   1.518   1.153  12.781 -0.3142 -1.6559 -0.2083
17857TIP3   OH275061   2.092   2.572  15.681  0.6757 -0.7021 -0.5188
17857TIP3    H175062   2.164   2.571  15.744 -0.7647 -0.9391  1.1650
17857TIP3    H275063   2.039   2.495  15.703 -0.7822  0.1687 -0.8981
17858TIP3   OH275064   4.032   4.467   0.516  0.4284 -0.2131 -0.1710
17858TIP3    H175065   4.036   4.372   0.526 -2.0311 -0.3145  0.2198
17858TIP3    H275066   4.059   4.483   0.425 -0.2366 -1.3973 -0.5906
17859TIP3   OH275067   0.078   1.809   5.384 -0.4244  0.3173  0.2735
17859TIP3    H175068  -0.004   1.798   5.336  0.0998 -0.4039 -0.4726
17859TIP3    H275069   0.053   1.804   5.476 -1.6154  2.9033  0.1433
17860TIP3   OH275070   0.214   0.972   5.724 -0.5577 -0.1463 -0.5205
17860TIP3    H175071   0.197   0.900   5.663 -0.3112 -1.5155  1.0118
17860TIP3    H275072   0.308   0.987   5.717 -0.5831 -0.0874 -0.7279
17861TIP3   OH275073   6.165   2.419   4.638 -0.5942  0.1853  0.6330
17861TIP3    H175074   6.191   2.331   4.663 -1.2939 -0.2592 -0.1969
17861TIP3    H275075   6.241   2.474   4.659  0.5869 -0.9132 -0.7194
17862TIP3   OH275076   1.298   5.599  11.719  0.0791  0.2396  0.0651
17862TIP3    H175077   1.305   5.504  11.732  0.0956  0.3169  0.6202
17862TIP3    H275078   1.322   5.612  11.628 -0.5634 -0.3680 -0.1972
17863TIP3   OH275079   6.688   3.491   2.216 -0.1339 -0.2200 -0.1378
17863TIP3    H175080   6.624   3.502   2.286  0.0504 -2.0185  0.3521
17863TIP3    H275081   6.755   3.557   2.234 -0.1947 -0.5151  1.2855
17864TIP3   OH275082   5.234   1.075   0.786  0.1448  0.5128 -0.6213
17864TIP3    H175083   5.155   1.031   0.757  0.2870 -0.3283  0.2420
17864TIP3    H275084   5.297   1.005   0.802  0.6372  1.0706 -0.0364
17865TIP3   OH275085   4.033   5.184   2.879 -0.1232  0.2768  0.2859
17865TIP3    H175086   4.082   5.262   2.857 -0.8154  0.6120 -0.0866
17865TIP3    H275087   4.013   5.193   2.973  0.7773 -0.0057  0.5057
17866TIP3   OH275088   3.680   0.347  13.943 -0.4146 -0.2591  0.3227
17866TIP3    H175089   3.654   0.377  13.856 -0.6515 -0.5815  0.2833
17866TIP3    H275090   3.672   0.425  13.999  0.9547  0.2675 -0.1916
17867TIP3   OH275091   4.376   4.415  15.055  0.1250 -0.4839 -0.5982
17867TIP3    H175092   4.286   4.445  15.043  0.9187  2.5965  0.8497
17867TIP3    H275093   4.375   4.369  15.138 -0.0985 -0.4626 -0.5883
17868TIP3   OH275094   0.387   2.971  11.943  0.6913 -0.3233 -0.2715
17868TIP3    H175095   0.381   2.915  12.020  2.4306  0.9717  0.8505
17868TIP3    H275096   0.427   2.916  11.876  0.8681 -0.9173  0.3210
17869TIP3   OH275097   6.729   5.526  14.659  0.1197 -0.2619  0.5015
17869TIP3    H175098   6.658   5.591  14.652  0.2911  0.0686  1.7886
17869TIP3    H275099   6.750   5.522  14.752  0.3489 -1.9399  0.3907
17870TIP3   OH275100   0.122   5.091   1.737  0.0166 -0.3183  0.4829
17870TIP3    H175101   0.160   5.135   1.813 -1.9971 -0.0130  1.3448
17870TIP3    H275102   0.084   5.011   1.772  1.0124 -1.2815 -0.5906
17871TIP3   OH275103   5.593   6.204   1.032  0.4425  0.8393  0.8395
17871TIP3    H175104   5.526   6.245   0.977  0.2338 -0.6431 -0.0221
17871TIP3    H275105   5.673   6.208   0.980 -0.0557 -1.8582 -0.2354
17872TIP3   OH275106   0.427   3.584  16.161 -0.1366 -0.1517  0.1705
17872TIP3    H175107   0.343   3.548  16.131  0.1266  0.4999 -1.4101
17872TIP3    H275108   0.456   3.639  16.088  1.2487  0.3141  1.0647
17873TIP3   OH275109   5.856   0.381  14.454 -0.0007 -0.0440 -0.3949
17873TIP3    H175110   5.847   0.339  14.368 -0.3063 -0.1603 -0.3061
17873TIP3    H275111   5.946   0.415  14.454 -0.3673  0.9599 -1.2032
17874TIP3   OH275112   5.048   2.425  12.383 -1.1661 -0.7960 -0.2167
17874TIP3    H175113   5.060   2.355  12.448  2.0699  0.5360  0.7329
17874TIP3    H275114   5.117   2.408  12.318  0.6191  2.2788  0.7955
17875TIP3   OH275115   3.203   2.236   2.416 -0.0533 -0.5167  0.6018
17875TIP3    H175116   3.129   2.223   2.357  0.9858 -0.4634 -0.7322
17875TIP3    H275117   3.260   2.160   2.401  0.7169  0.0198  0.7601
17876TIP3   OH275118   0.778   2.830  12.739  0.5634  0.1365  0.8303
17876TIP3    H175119   0.738   2.781  12.811 -0.4857  2.0430  1.5888
17876TIP3    H275120   0.705   2.854  12.682  1.3496 -1.0723 -0.7055
17877TIP3   OH275121   4.981   1.178  17.096 -0.0897 -0.0023 -0.0848
17877TIP3    H175122   5.019   1.209  17.013  1.7483 -0.3751  0.5867
17877TIP3    H275123   5.049   1.122  17.133 -0.6302  0.6918  1.9971
17878TIP3   OH275124   0.853   5.301  16.010  0.3782  0.1928 -0.4349
17878TIP3    H175125   0.792   5.231  15.985 -0.4424  0.7281  0.0432
17878TIP3    H275126   0.908   5.312  15.933 -0.7588  0.3579 -1.2422
17879TIP3   OH275127   4.269   4.538   2.690 -0.5958  0.6796  0.4916
17879TIP3    H175128   4.318   4.457   2.677 -0.3325  1.2301 -2.0613
17879TIP3    H275129   4.320   4.587   2.755  0.6417 -0.0374  0.0778
17880TIP3   OH275130   3.999   4.414   2.614  0.2356  0.4963  0.5047
17880TIP3    H175131   3.906   4.426   2.636  0.4427 -2.0330  2.9990
17880TIP3    H275132   4.045   4.469   2.676  0.4617  1.6081 -0.6183
17881TIP3   OH275133   6.304   6.234   2.982 -0.3670  0.0598  0.8052
17881TIP3    H175134   6.302   6.180   3.061  2.0654 -0.2385  0.7054
17881TIP3    H275135   6.267   6.318   3.009 -1.4433 -0.6776  1.7162
17882TIP3   OH275136   2.129   0.326  11.600 -0.5430  0.1517  0.4652
17882TIP3    H175137   2.081   0.262  11.547 -1.0193  0.9699 -0.1034
17882TIP3    H275138   2.095   0.313  11.689 -0.2990 -0.6925  0.4448
17883TIP3   OH275139   1.696   2.451   0.100 -0.0030 -0.4339 -0.3749
17883TIP3    H175140   1.692   2.365   0.141 -1.3166 -0.0079  0.4088
17883TIP3    H275141   1.647   2.441   0.019 -1.3682 -0.0535  0.4009
17884TIP3   OH275142   5.289   5.336  15.901  0.0669 -0.3107 -0.0481
17884TIP3    H175143   5.352   5.372  15.839  0.0262 -1.1981 -0.6060
17884TIP3    H275144   5.343   5.290  15.966 -0.0291 -1.5590 -0.8411
17885TIP3   OH275145   2.317   3.053  14.034  0.2644  0.3168  0.0350
17885TIP3    H175146   2.370   3.025  13.959 -0.3200  0.1639 -0.3221
17885TIP3    H275147   2.254   3.114  13.997 -1.6944 -1.7089 -0.0614
17886TIP3   OH275148   0.185   5.564  16.641  0.3145  0.2923  0.8505
17886TIP3    H175149   0.168   5.503  16.570  1.1966  1.2730 -0.2366
17886TIP3    H275150   0.190   5.510  16.719 -0.0189 -0.8824  0.0719
17887TIP3   OH275151   5.113   2.477  12.061  0.0156 -0.2259  0.3611
17887TIP3    H175152   5.122   2.390  12.101 -3.8147 -0.9025 -0.0192
17887TIP3    H275153   5.097   2.536  12.135  1.2368 -0.0398  0.4924
17888TIP3   OH275154   6.484   1.629   5.566  0.4687 -0.2066 -0.0311
17888TIP3    H175155   6.493   1.542   5.529  0.6385  0.1425 -0.8234
17888TIP3    H275156   6.391   1.637   5.588 -0.0074  0.2801 -2.1497
17889TIP3   OH275157   6.314   0.636  13.672 -0.1375 -0.1981 -0.1951
17889TIP3    H175158   6.230   0.643  13.717 -0.3364  2.4025 -0.8600
17889TIP3    H275159   6.307   0.557  13.620 -1.9957 -0.2794  0.1310
17890TIP3   OH275160   5.442   0.121  11.620  0.0592 -0.3851 -0.0873
17890TIP3    H175161   5.518   0.097  11.567  0.2050 -0.2174  0.0448
17890TIP3    H275162   5.385   0.169  11.559 -1.0182 -2.5148 -0.7993
17891TIP3   OH275163   1.167   4.096   0.114  0.3681  0.0330 -0.0589
17891TIP3    H175164   1.236   4.143   0.160 -0.3084  1.6108 -0.6273
17891TIP3    H275165   1.212   4.044   0.048  1.2365 -1.2295  1.4924
17892TIP3   OH275166   5.002   5.773   4.843 -0.0824 -0.0516  0.4812
17892TIP3    H175167   5.056   5.736   4.913  0.1855 -1.1099 -0.2713
17892TIP3    H275168   4.990   5.701   4.781 -0.1081  0.9446 -0.6973
17893TIP3   OH275169   4.235   4.420  12.808 -0.2266  0.3915 -0.7311
17893TIP3    H175170   4.244   4.485  12.878  2.2356  0.2302 -0.8705
17893TIP3    H275171   4.319   4.374  12.807 -0.6894 -0.4481 -2.9628
17894TIP3   OH275172   6.569   6.215  16.091  0.5259  0.4583 -0.4533
17894TIP3    H175173   6.588   6.291  16.036  0.4235 -0.7747 -2.2158
17894TIP3    H275174   6.577   6.140  16.032  0.2794 -0.8763  1.1871
17895TIP3   OH275175   1.428   4.651   3.168 -0.1338  0.1019 -0.4500
17895TIP3    H175176   1.493   4.587   3.198 -1.5345 -1.2538 -0.2714
17895TIP3    H275177   1.432   4.721   3.233  0.6147 -0.3131 -0.0358
17896TIP3   OH275178   5.795   4.458   5.715 -0.1392 -0.1160 -0.4961
17896TIP3    H175179   5.776   4.407   5.794  1.5076 -0.0165 -0.0033
17896TIP3    H275180   5.751   4.411   5.645  0.5972 -1.7335  0.0890
17897TIP3   OH275181   1.922   0.250  13.897 -0.2308  0.3651 -0.3911
17897TIP3    H175182   1.928   0.156  13.914  1.0619  0.3044 -1.0813
17897TIP3    H275183   1.926   0.291  13.983  2.5060 -0.0779 -0.2810
17898TIP3   OH275184   2.409   5.905  15.365  0.1731  0.9075 -0.2770
17898TIP3    H175185   2.453   5.901  15.451 -0.1549 -1.7098 -0.1848
17898TIP3    H275186   2.322   5.940  15.385 -0.0782 -0.1476  0.5551
17899TIP3   OH275187   5.104   4.979  16.596 -0.0095 -0.0029  0.1585
17899TIP3    H175188   5.040   5.009  16.661 -0.2598 -1.7776  0.7632
17899TIP3    H275189   5.089   5.035  16.520  0.5285  2.3803  1.7212
17900TIP3   OH275190   1.862   0.855   2.349 -0.3789 -0.3417  0.2476
17900TIP3    H175191   1.788   0.800   2.374  0.2367 -0.3513  2.1504
17900TIP3    H275192   1.930   0.792   2.323 -0.5779 -0.3845 -0.1656
17901TIP3   OH275193   6.161   4.326   3.738  0.0643  0.5572 -0.0275
17901TIP3    H175194   6.114   4.393   3.689 -1.5841 -2.9080 -3.4555
17901TIP3    H275195   6.099   4.297   3.804 -0.2705  0.4129 -0.4037
17902TIP3   OH275196   2.343   4.398  15.342 -0.3045 -0.2750  0.4257
17902TIP3    H175197   2.410   4.464  15.358  1.6224 -1.9478 -0.4673
17902TIP3    H275198   2.295   4.429  15.266 -0.7690  1.0832  1.2496
17903TIP3   OH275199   5.852   2.201   2.595  0.3275 -0.2599  0.5059
17903TIP3    H175200   5.939   2.171   2.620  0.0466 -1.3422  0.2269
17903TIP3    H275201   5.867   2.260   2.521  1.0333  1.7255  2.2145
17904TIP3   OH275202   0.700   4.489  12.303 -0.5126 -0.0259  0.4398
17904TIP3    H175203   0.784   4.511  12.263 -0.3178 -1.2668  0.1385
17904TIP3    H275204   0.650   4.447  12.232 -1.3021  0.4813  0.6806
17905TIP3   OH275205   6.248   5.196   2.879  0.0574 -0.1642 -0.2427
17905TIP3    H175206   6.195   5.241   2.945 -1.7881 -3.2772  0.4818
17905TIP3    H275207   6.227   5.240   2.797 -2.0362  0.0423  0.3802
17906TIP3   OH275208   1.474   5.496  13.864 -0.3261  0.2639 -0.4258
17906TIP3    H175209   1.415   5.457  13.928 -1.1217 -0.7911 -1.7593
17906TIP3    H275210   1.540   5.428  13.848  0.4296  0.8891 -0.0107
17907TIP3   OH275211   1.118   2.885  11.986  0.2394 -0.7126  0.6536
17907TIP3    H175212   1.193   2.937  12.016  1.3279 -2.0473  0.2750
17907TIP3    H275213   1.108   2.908  11.894 -1.9067  1.9423  1.4836
17908TIP3   OH275214   5.925   0.671  11.667  0.0156  0.9226  0.1143
17908TIP3    H175215   5.976   0.737  11.621  0.3337  0.4300 -0.2511
17908TIP3    H275216   5.882   0.621  11.597  0.1694  0.4360  0.3672
17909TIP3   OH275217   3.525   2.376  11.521 -0.1362  0.4420 -0.1971
17909TIP3    H175218   3.490   2.393  11.609  0.7177  1.4800 -0.0324
17909TIP3    H275219   3.559   2.287  11.526 -1.7142 -0.1602 -0.0258
17910TIP3   OH275220   3.847   6.805  14.080 -0.4281  0.0925  0.1207
17910TIP3    H175221   3.884   6.727  14.122 -0.4931 -1.0861 -1.9049
17910TIP3    H275222   3.753   6.798  14.095 -0.2440  0.8823  1.7040
17911TIP3   OH275223   2.113   3.566  14.740 -0.1776 -0.2068 -0.0895
17911TIP3    H175224   2.197   3.563  14.787 -0.2317  0.0074  0.0224
17911TIP3    H275225   2.098   3.660  14.725 -1.5996 -0.0624  2.0569
17912TIP3   OH275226   3.507   0.940   0.816  0.3589 -0.1778  0.3890
17912TIP3    H175227   3.537   0.922   0.726  1.0403  0.6508  0.4367
17912TIP3    H275228   3.425   0.988   0.804 -0.0715 -0.9544  0.2241
17913TIP3   OH275229   2.256   2.926  11.895 -0.5162 -0.0577 -0.1462
17913TIP3    H175230   2.311   2.918  11.973  0.4172 -0.6699 -0.8456
17913TIP3    H275231   2.291   3.002  11.849 -0.3999 -0.3083 -0.4742
17914TIP3   OH275232   3.496   5.366  14.979  0.3374  0.1430  0.4517
17914TIP3    H175233   3.491   5.276  15.011  0.5433  0.5251  1.5856
17914TIP3    H275234   3.447   5.365  14.897 -1.2514 -0.5855  1.3837
17915TIP3   OH275235   0.569   4.208   1.297  0.0873  0.7650 -0.4483
17915TIP3    H175236   0.486   4.181   1.337  0.6649  1.8403  1.5452
17915TIP3    H275237   0.622   4.128   1.297 -0.9339  0.0748 -1.7158
17916TIP3   OH275238   5.260   2.872   6.311  0.0157  0.0520 -0.1403
17916TIP3    H175239   5.207   2.792   6.315 -0.6383  0.4476 -0.6340
17916TIP3    H275240   5.313   2.862   6.232 -0.1654  0.1645 -0.2766
17917TIP3   OH275241   2.483   0.365  10.941 -0.5736  0.3322  0.1088
17917TIP3    H175242   2.523   0.444  10.904 -0.8772  0.3539 -0.1772
17917TIP3    H275243   2.529   0.352  11.024 -1.0024  1.2108  0.4941
17918TIP3   OH275244   1.657   1.848   2.608  0.3204 -0.6712 -0.1679
17918TIP3    H175245   1.645   1.888   2.694  0.4923 -0.2933 -0.3218
17918TIP3    H275246   1.696   1.762   2.628 -0.6103 -1.0193  0.1892
17919TIP3   OH275247   4.902   4.913  12.882  0.8666 -0.5237  0.3439
17919TIP3    H175248   4.942   4.884  12.964  0.1580 -0.9761  0.5339
17919TIP3    H275249   4.812   4.883  12.888  1.3537 -2.5050 -1.5678
17920TIP3   OH275250   5.838   4.670  16.855  0.2486  0.1488  0.0467
17920TIP3    H175251   5.773   4.701  16.917  1.6620 -0.1551  1.7251
17920TIP3    H275252   5.792   4.604  16.803 -0.5377 -0.7715  1.8434
17921TIP3   OH275253   5.042   6.814  14.709 -0.7634 -0.3963  0.3949
17921TIP3    H175254   4.982   6.823  14.783 -1.1279  0.0887  0.0441
17921TIP3    H275255   5.041   6.900  14.667  1.0154 -0.0311  1.0280
17922TIP3   OH275256   0.234   1.652   4.737  0.2655 -0.1605 -0.1673
17922TIP3    H175257   0.306   1.672   4.797  0.5631 -0.8745 -0.2753
17922TIP3    H275258   0.211   1.561   4.757  0.4816 -0.4565 -1.2451
17923TIP3   OH275259   4.647   5.145   0.747  0.2813 -0.6437  0.3999
17923TIP3    H175260   4.603   5.168   0.829 -0.5612  0.7831 -0.4340
17923TIP3    H275261   4.576   5.134   0.684  1.0792  2.0186 -1.0442
17924TIP3   OH275262   2.068   2.511  11.276 -0.3396  0.4232 -0.2599
17924TIP3    H175263   2.054   2.511  11.181 -0.4061  1.5185 -0.2481
17924TIP3    H275264   1.989   2.551  11.312  0.0251  0.7181  0.2079
17925TIP3   OH275265   0.834   5.064   6.899 -0.3273 -0.3012  0.0346
17925TIP3    H175266   0.757   5.120   6.896 -1.2933 -1.6743 -1.5352
17925TIP3    H275267   0.799   4.975   6.893  1.3409 -0.9771  0.0970
17926TIP3   OH275268   1.359   4.767  12.592 -0.1614  0.4934 -0.5988
17926TIP3    H175269   1.397   4.681  12.614  0.8826  1.0700 -0.1171
17926TIP3    H275270   1.346   4.809  12.677 -2.0169  0.2553 -0.7547
17927TIP3   OH275271   5.024   1.817   3.727  0.2012 -0.2173 -0.2954
17927TIP3    H175272   4.971   1.794   3.803 -0.6238 -0.9456 -1.0759
17927TIP3    H275273   4.961   1.834   3.658  0.9754 -1.0404 -1.2275
17928TIP3   OH275274   0.035   6.295  12.018 -0.7549  0.3358  0.1740
17928TIP3    H175275   0.074   6.261  12.098  0.7048 -1.7814 -1.3700
17928TIP3    H275276  -0.058   6.307  12.040 -0.2255  0.5881  2.4009
17929TIP3   OH275277   1.618   4.746  11.870  0.0855 -0.5057  0.4372
17929TIP3    H175278   1.686   4.811  11.885 -0.7573  0.6208 -0.4511
17929TIP3    H275279   1.662   4.673  11.827  0.6596  0.4198 -0.5742
17930TIP3   OH275280   1.002   0.550   4.447 -0.6151 -0.2943 -0.2490
17930TIP3    H175281   1.090   0.519   4.423 -1.4882 -1.6540 -1.7733
17930TIP3    H275282   0.995   0.636   4.407  0.6219  0.5246  1.2559
17931TIP3   OH275283   6.586   1.912  10.524  0.5277  0.2010  0.0675
17931TIP3    H175284   6.635   1.880  10.448 -2.1112 -1.8852 -0.8283
17931TIP3    H275285   6.608   1.850  10.593  1.0459  0.6960  0.3475
17932TIP3   OH275286   3.281   0.502   0.795 -0.1188  0.0623  0.3447
17932TIP3    H175287   3.190   0.472   0.797 -0.2957  0.2788 -2.6183
17932TIP3    H275288   3.328   0.433   0.748  0.9176  0.7878  0.2992
17933TIP3   OH275289   4.459   1.149  13.948  0.3104 -0.4237 -0.2357
17933TIP3    H175290   4.485   1.168  14.038  2.0467 -1.9983 -0.3934
17933TIP3    H275291   4.509   1.211  13.895 -1.4872  1.2099 -0.0774
17934TIP3   OH275292   1.995   3.872  16.821  0.7709  0.3248  0.0124
17934TIP3    H175293   1.913   3.824  16.812  0.9126  0.4505 -2.2478
17934TIP3    H275294   2.062   3.804  16.826  0.7853  0.2632 -1.0415
17935TIP3   OH275295   2.229   6.461  12.565  0.0681 -0.1592 -0.4338
17935TIP3    H175296   2.180   6.483  12.644  0.3373 -0.0898 -0.2870
17935TIP3    H275297   2.200   6.526  12.501 -0.6449 -0.6172 -0.5901
17936TIP3   OH275298   0.933   4.390  11.637 -0.8403 -0.0329  0.0298
17936TIP3    H175299   0.985   4.379  11.558 -1.2481  0.2215 -0.2764
17936TIP3    H275300   0.993   4.429  11.700 -0.7840  0.6662 -0.4583
17937TIP3   OH275301   4.969   4.652  10.817 -0.0491  0.0574 -0.3610
17937TIP3    H175302   5.002   4.615  10.899 -0.2813  0.3210 -0.1465
17937TIP3    H275303   4.880   4.681  10.838  0.2334  1.0016 -0.4464
17938TIP3   OH275304   2.359   6.526   5.698  0.1911 -0.1887 -0.0531
17938TIP3    H175305   2.306   6.453   5.662 -0.0296 -0.2085  0.3119
17938TIP3    H275306   2.427   6.483   5.750 -0.7981 -0.1006  1.3473
17939TIP3   OH275307   3.698   0.071   2.525  0.5962 -0.0345  0.1398
17939TIP3    H175308   3.684   0.146   2.467 -0.7416 -1.2310 -1.1293
17939TIP3    H275309   3.771   0.023   2.484  0.3393 -0.3242  0.0210
17940TIP3   OH275310   2.461   1.879   2.626  0.0661 -0.8411 -0.3066
17940TIP3    H175311   2.407   1.809   2.590  0.0676 -1.1196  0.2155
17940TIP3    H275312   2.529   1.833   2.676 -0.0642 -0.4647  0.2237
17941TIP3   OH275313   2.606   5.679  11.030 -0.4280  0.0182 -0.3943
17941TIP3    H175314   2.628   5.757  11.081 -0.7667 -0.3365  0.3038
17941TIP3    H275315   2.622   5.704  10.940  1.4555  0.2167 -0.0165
17942TIP3   OH275316   6.808   4.502  14.636 -0.3433  0.7331  0.1517
17942TIP3    H175317   6.726   4.487  14.589 -0.2051 -0.2978  0.2372
17942TIP3    H275318   6.805   4.595  14.659 -1.7333  0.5803  0.6322
17943TIP3   OH275319   0.842   3.111   5.986  0.4150  0.0852  0.6841
17943TIP3    H175320   0.937   3.109   5.991  0.5137 -0.9514 -1.0001
17943TIP3    H275321   0.813   3.062   6.062  1.2545 -0.0625  0.9122
17944TIP3   OH275322   0.045   5.026   1.326  0.0548  0.7776 -0.5982
17944TIP3    H175323   0.073   5.007   1.415  1.0037  1.6563 -0.7001
17944TIP3    H275324   0.007   4.944   1.294 -0.3971  0.4948  0.6480
17945TIP3   OH275325   3.725   2.387   3.334  0.3867 -0.3799 -0.1345
17945TIP3    H175326   3.690   2.365   3.248  0.6235  0.4569 -0.4484
17945TIP3    H275327   3.717   2.306   3.385 -0.1981 -0.7408 -0.7936
17946TIP3   OH275328   5.238   2.028  12.396  0.1713 -0.0663  0.0862
17946TIP3    H175329   5.317   2.058  12.441 -0.1015 -0.7203  1.0196
17946TIP3    H275330   5.167   2.074  12.441  0.0699  1.1180 -1.2598
17947TIP3   OH275331   0.407   0.953   4.152 -0.1480  0.3560  0.1530
17947TIP3    H175332   0.490   0.966   4.197  0.4461 -0.5168 -0.6808
17947TIP3    H275333   0.427   0.969   4.059 -1.0733  0.8692  0.0291
17948TIP3   OH275334   1.396   1.265  11.017 -0.6867  0.4734  0.4822
17948TIP3    H175335   1.320   1.308  10.979 -0.6130  1.5896  1.5792
17948TIP3    H275336   1.454   1.248  10.943 -1.3410  0.9795 -0.1472
17949TIP3   OH275337   5.177   6.365  11.669 -0.1009  0.0156  0.0733
17949TIP3    H175338   5.195   6.412  11.750  1.2307 -2.0585  1.0120
17949TIP3    H275339   5.192   6.273  11.690 -0.0246 -0.5968 -2.4341
17950TIP3   OH275340   3.231   6.641   2.692  0.2538  0.1236 -0.2248
17950TIP3    H175341   3.275   6.595   2.763  0.9080  0.1194 -0.6291
17950TIP3    H275342   3.294   6.641   2.620 -1.3383 -2.0556 -1.6694
17951TIP3   OH275343   3.343   4.052  12.905 -0.0257  0.5104  0.0259
17951TIP3    H175344   3.339   4.135  12.858  0.0756  0.3692 -0.2351
17951TIP3    H275345   3.275   3.998  12.865  1.8645 -0.5804 -1.8691
17952TIP3   OH275346   3.578   6.691  12.497  0.3340  0.0024  0.5705
17952TIP3    H175347   3.554   6.608  12.539 -0.4223  0.1735  0.4695
17952TIP3    H275348   3.548   6.682  12.407  1.0970  0.0187  0.3102
17953TIP3   OH275349   5.901   4.753  15.137 -0.4709 -0.9834  0.2724
17953TIP3    H175350   5.950   4.756  15.055 -0.0278  1.3387  0.5999
17953TIP3    H275351   5.813   4.726  15.111 -0.4728  0.2459 -1.0603
17954TIP3   OH275352   4.126   6.202  14.899  0.1072 -0.1653 -0.4679
17954TIP3    H175353   4.072   6.126  14.876 -0.9034 -0.2220  1.9086
17954TIP3    H275354   4.112   6.214  14.993  4.1652 -0.1270  0.2474
17955TIP3   OH275355   0.233   4.896   1.041  0.3569 -0.2548 -0.0290
17955TIP3    H175356   0.265   4.860   0.958  0.7698  1.3164 -0.5612
17955TIP3    H275357   0.263   4.987   1.041 -2.8876  0.8758  0.1045
17956TIP3   OH275358   4.642   2.251   3.839 -0.1717 -0.1726 -0.1977
17956TIP3    H175359   4.581   2.250   3.913 -2.6176 -0.7070 -2.1570
17956TIP3    H275360   4.614   2.326   3.786  2.7153  1.3294  0.3032
17957TIP3   OH275361   5.300   5.766  17.093 -0.2709 -0.4312  0.3698
17957TIP3    H175362   5.241   5.718  17.036 -0.3467 -0.8913  0.8323
17957TIP3    H275363   5.321   5.846  17.044  1.6113 -1.9365 -1.3239
17958TIP3   OH275364   1.544   0.152   5.336  0.1210  0.2743  0.1729
17958TIP3    H175365   1.593   0.231   5.318 -0.0373  0.3652  0.1397
17958TIP3    H275366   1.610   0.082   5.339  0.4075  0.5745  1.3066
17959TIP3   OH275367   3.958   3.808  14.679  0.1490 -0.2160  0.9389
17959TIP3    H175368   3.956   3.714  14.666  2.1680  0.0158 -1.4367
17959TIP3    H275369   3.940   3.845  14.592 -3.4103  1.6487  2.3591
17960TIP3   OH275370   0.970   1.815  11.282  0.1062  0.4892 -0.3909
17960TIP3    H175371   0.967   1.720  11.284  3.0511  0.3515  4.7695
17960TIP3    H275372   1.044   1.836  11.226  0.8865 -0.3119  0.3396
17961TIP3   OH275373   0.837   6.391  13.762 -0.5677  0.0482  0.1267
17961TIP3    H175374   0.854   6.460  13.826 -1.1407  0.1858  0.1333
17961TIP3    H275375   0.787   6.435  13.693 -0.9518 -0.3687  0.1403
17962TIP3   OH275376   2.808   3.479  11.741 -0.3098 -0.0307  0.6566
17962TIP3    H175377   2.903   3.487  11.732 -0.3371 -0.4741 -0.0566
17962TIP3    H275378   2.772   3.529  11.668 -0.5512 -2.8880 -1.2511
17963TIP3   OH275379   1.015   0.827   4.362 -0.0980  0.2321 -0.2393
17963TIP3    H175380   0.958   0.901   4.345  0.0533  0.6601  1.0633
17963TIP3    H275381   1.098   0.866   4.391  1.1462 -0.3465 -2.8328
17964TIP3   OH275382   1.131   6.218   6.849 -0.1783 -0.3267 -0.0174
17964TIP3    H175383   1.141   6.132   6.809  0.1730 -0.4805  0.4007
17964TIP3    H275384   1.056   6.256   6.804  0.0728 -0.5835 -0.6760
17965TIP3   OH275385   6.158   2.455  13.668 -0.2660 -0.3995 -0.8103
17965TIP3    H175386   6.093   2.385  13.666 -1.9560  1.1457 -1.2627
17965TIP3    H275387   6.108   2.534  13.688  1.5303  0.7797 -0.8361
17966TIP3   OH275388   6.383   3.680   4.660 -0.1273 -0.1144  0.4692
17966TIP3    H175389   6.293   3.711   4.664  0.4553  1.8175 -0.5078
17966TIP3    H275390   6.410   3.673   4.752 -0.8547  0.6163  0.7531
17967TIP3   OH275391   2.073   3.292  16.616 -0.1977 -0.2603  0.3234
17967TIP3    H175392   2.155   3.316  16.572  0.8115  1.2550  2.9325
17967TIP3    H275393   2.089   3.203  16.648  0.6068  0.1896  1.1977
17968TIP3   OH275394   5.066   3.943   5.862  0.0386 -0.6706  0.2148
17968TIP3    H175395   5.143   3.935   5.805  0.9598  3.5522  0.7122
17968TIP3    H275396   4.997   3.976   5.805  0.6193  2.3515  1.1615
17969TIP3   OH275397   2.856   0.085   1.428 -0.2136 -0.0948  0.0408
17969TIP3    H175398   2.823   0.173   1.410 -0.2362 -0.3035 -0.9406
17969TIP3    H275399   2.783   0.027   1.404 -0.2433 -0.3735  0.7938
17970TIP3   OH275400   2.192   0.377   2.756  0.8076 -0.1704  0.1818
17970TIP3    H175401   2.202   0.291   2.714 -1.3887 -0.4301  0.1324
17970TIP3    H275402   2.111   0.412   2.721  0.7935  1.1841  1.5038
17971TIP3   OH275403   6.430   2.429  15.515  0.5072 -0.0108  0.0495
17971TIP3    H175404   6.483   2.394  15.443 -1.7084 -1.0846 -1.0781
17971TIP3    H275405   6.424   2.357  15.577  1.2880  0.4839  0.7127
17972TIP3   OH275406   6.436   5.095   5.747 -0.6159 -0.1749 -0.0531
17972TIP3    H175407   6.491   5.082   5.824  1.7916 -0.3687 -1.7343
17972TIP3    H275408   6.413   5.188   5.749  0.1903  0.0180  0.4059
17973TIP3   OH275409   5.607   0.074  16.017 -0.3078  0.2648  0.4291
17973TIP3    H175410   5.549   0.097  15.945 -0.3593  0.4596  0.5338
17973TIP3    H275411   5.620   0.156  16.065 -0.8507 -0.0102  1.0585
17974TIP3   OH275412   4.703   1.692   2.113  0.3715 -0.0289  0.2570
17974TIP3    H175413   4.691   1.708   2.020  0.9108 -0.3119  0.1401
17974TIP3    H275414   4.739   1.603   2.118  1.6363  0.4964  0.6567
17975TIP3   OH275415   6.423   0.508  13.356  0.3307  0.8188 -0.1412
17975TIP3    H175416   6.380   0.430  13.321  1.4535  0.2574 -0.2762
17975TIP3    H275417   6.350   0.565  13.382 -0.4998 -0.2904  0.0285
17976TIP3   OH275418   3.910   3.135   5.331 -0.2101  0.1375 -0.4517
17976TIP3    H175419   3.895   3.087   5.412  0.0254 -0.5144 -0.7918
17976TIP3    H275420   3.977   3.199   5.352  1.1182 -1.1924 -0.5761
17977TIP3   OH275421   0.836   5.536   0.552 -0.0052 -0.1565 -0.3359
17977TIP3    H175422   0.882   5.454   0.574  0.8535 -0.0616 -1.7093
17977TIP3    H275423   0.763   5.509   0.497 -0.1333 -0.0725 -0.2064
17978TIP3   OH275424   4.226   5.895  16.913 -0.0430 -0.1097  0.4456
17978TIP3    H175425   4.276   5.947  16.850 -1.8192 -0.2882 -1.1404
17978TIP3    H275426   4.268   5.914  16.997  3.5617 -1.3368 -0.9599
17979TIP3   OH275427   4.056   4.616  14.124 -0.1625 -0.4874  0.5174
17979TIP3    H175428   4.102   4.533  14.136  0.0304 -0.7153 -1.7546
17979TIP3    H275429   3.972   4.592  14.085  0.0328  0.4093 -0.4668
17980TIP3   OH275430   1.621   6.351  14.240 -0.4851 -0.5273 -0.1630
17980TIP3    H175431   1.671   6.282  14.284 -0.3504 -1.3224 -1.5454
17980TIP3    H275432   1.687   6.402  14.193 -0.7490 -0.3775 -0.3719
17981TIP3   OH275433   2.214   5.468  14.394 -0.9595  0.1948  0.0720
17981TIP3    H175434   2.229   5.392  14.339  0.2997 -0.9674  1.9908
17981TIP3    H275435   2.173   5.532  14.336  0.6266 -0.8849 -2.2841
17982TIP3   OH275436   0.183   5.548   4.379 -0.1266  0.0956 -0.2486
17982TIP3    H175437   0.158   5.572   4.469  0.8124  0.1681 -0.0022
17982TIP3    H275438   0.278   5.560   4.377 -0.2654  1.0144 -1.5379
17983TIP3   OH275439   3.536   4.698  15.879  0.4096 -0.0231  0.0233
17983TIP3    H175440   3.463   4.668  15.933  0.6282  0.3105  0.5123
17983TIP3    H275441   3.505   4.690  15.789 -0.7903  1.5481  0.2663
17984TIP3   OH275442   5.348   6.037   0.179  0.5546 -0.2659 -0.0662
17984TIP3    H175443   5.368   6.119   0.224  0.1142  0.1655 -0.6405
17984TIP3    H275444   5.263   6.053   0.138  2.1927  0.3781 -3.3927
17985TIP3   OH275445   3.603   4.619  11.071 -0.6008 -0.2934  0.3315
17985TIP3    H175446   3.509   4.615  11.052 -0.4427 -1.6404 -0.2031
17985TIP3    H275447   3.618   4.550  11.135 -0.1735  0.6978  1.3069
17986TIP3   OH275448   0.828   3.049  16.137 -0.6199 -0.3677  0.6526
17986TIP3    H175449   0.866   3.003  16.063  0.1679  1.3740 -0.0405
17986TIP3    H275450   0.810   3.137  16.104 -0.4720  0.3587  2.4581
17987TIP3   OH275451   6.453   2.608  12.874 -0.2381 -0.1771 -0.2203
17987TIP3    H175452   6.450   2.704  12.873 -0.6735 -0.1947 -1.0382
17987TIP3    H275453   6.511   2.585  12.802  0.2425 -0.5270  0.2714
17988TIP3   OH275454   0.573   3.688  16.516 -0.0371  0.4830  0.0386
17988TIP3    H175455   0.600   3.677  16.607  2.5885  0.7217 -0.6690
17988TIP3    H275456   0.561   3.599  16.483 -0.5751  0.3856  0.4883
17989TIP3   OH275457   5.204   2.266  12.216  0.0139  0.0358  0.0754
17989TIP3    H175458   5.191   2.179  12.254 -1.1973  1.0182  2.0221
17989TIP3    H275459   5.297   2.270  12.195  0.6182 -0.8351  2.3780
17990TIP3   OH275460   6.572   1.969  16.740 -0.4166  0.0800 -0.5184
17990TIP3    H175461   6.551   2.035  16.674  0.1470  1.2395  0.4465
17990TIP3    H275462   6.648   2.004  16.786 -1.5902 -0.1099  1.6036
17991TIP3   OH275463   0.283   4.666  15.337  0.0781  0.5432 -0.6188
17991TIP3    H175464   0.213   4.652  15.273  0.9112  0.5061 -1.5197
17991TIP3    H275465   0.270   4.597  15.402 -2.0702  1.8537  0.4199
17992TIP3   OH275466   4.780   5.631   2.718  0.0965 -0.1812 -0.3757
17992TIP3    H175467   4.831   5.698   2.672 -1.1381 -1.3677 -3.6328
17992TIP3    H275468   4.699   5.624   2.667 -1.3033 -1.6734  1.9646
17993TIP3   OH275469   2.389   2.458   6.180 -0.1605  0.2215 -0.0394
17993TIP3    H175470   2.388   2.366   6.207 -0.8101  0.0772 -0.5443
17993TIP3    H275471   2.298   2.486   6.185  0.1825  1.1645  1.1978
17994TIP3   OH275472   4.111   6.258   2.236  0.7988  0.3939  0.2923
17994TIP3    H175473   4.067   6.336   2.201  0.1656 -0.2561 -0.3799
17994TIP3    H275474   4.056   6.185   2.207  1.7294 -0.3490  0.3849
17995TIP3   OH275475   4.743   3.255  15.852  0.3444 -0.3684  0.0354
17995TIP3    H175476   4.759   3.346  15.828 -1.0661 -0.2619 -0.5979
17995TIP3    H275477   4.686   3.260  15.929  0.6865 -0.7169  0.3135
17996TIP3   OH275478   2.556   4.388  13.576  0.2906 -0.4132  0.4125
17996TIP3    H175479   2.528   4.373  13.486 -1.0242 -3.3021  1.2171
17996TIP3    H275480   2.477   4.419  13.621  0.5307 -0.4958  0.8936
17997TIP3   OH275481   2.220   4.314   4.054 -0.3725 -0.4853  0.3728
17997TIP3    H175482   2.299   4.265   4.076 -0.3123 -0.7214 -0.3444
17997TIP3    H275483   2.228   4.395   4.104 -0.0901 -0.8654  0.9572
17998TIP3   OH275484   5.140   0.394   5.323 -0.5650  0.3714 -0.5747
17998TIP3    H175485   5.125   0.312   5.277  0.0074 -0.1639  0.1667
17998TIP3    H275486   5.126   0.372   5.416 -1.5304  1.3835 -0.4696
17999TIP3   OH275487   4.895   6.752   3.163  0.1336 -1.0074  0.3918
17999TIP3    H175488   4.978   6.735   3.208 -0.5455  1.0247  2.5496
17999TIP3    H275489   4.876   6.844   3.183 -1.6869 -0.8974 -1.6709
18000TIP3   OH275490   6.694   0.001   2.958 -0.5609 -0.2568  0.4851
18000TIP3    H175491   6.720   0.026   3.047 -2.6212  1.6705  0.5839
18000TIP3    H275492   6.658   0.081   2.920  2.1679 -0.4961 -2.8615
18001TIP3   OH275493   3.390   6.430   2.081 -0.2212  0.2664 -0.1353
18001TIP3    H175494   3.325   6.423   2.011  0.7711 -0.4347 -1.0081
18001TIP3    H275495   3.341   6.459   2.157 -1.8235 -1.7123 -0.3853
18002TIP3   OH275496   4.037   5.626  12.539  0.4384 -0.0709 -0.3388
18002TIP3    H175497   4.090   5.564  12.589 -2.5931 -2.5035 -0.0063
18002TIP3    H275498   3.989   5.572  12.477 -1.8726  2.0256 -0.4348
18003TIP3   OH275499   3.140   2.368  12.290  0.1338 -0.2641 -0.1426
18003TIP3    H175500   3.079   2.303  12.326  1.0760 -0.5971  0.8802
18003TIP3    H275501   3.194   2.319  12.229  1.0477 -0.5306  0.8575
18004TIP3   OH275502   5.291   5.122  13.725  0.5450  0.1144  0.4452
18004TIP3    H175503   5.267   5.213  13.703  1.4217  0.3292  0.3551
18004TIP3    H275504   5.218   5.091  13.779 -1.5726 -0.3714 -2.5855
18005TIP3   OH275505   4.501   2.259  14.569 -0.0460  0.2103 -0.2723
18005TIP3    H175506   4.412   2.294  14.569 -0.9900 -2.0161  1.5444
18005TIP3    H275507   4.522   2.249  14.662  1.5587 -0.5933 -0.7120
18006TIP3   OH275508   3.345   3.720  12.790  0.6307 -0.4868  0.1257
18006TIP3    H175509   3.289   3.701  12.865 -0.5606 -1.3094 -0.9351
18006TIP3    H275510   3.293   3.779  12.735  1.6012  0.3445  0.0845
18007TIP3   OH275511   2.275   6.176   4.757  0.3164 -0.0306 -0.3172
18007TIP3    H175512   2.285   6.168   4.852 -0.0934 -0.3411 -0.2991
18007TIP3    H275513   2.186   6.206   4.744  0.5686  0.5974 -0.5808
18008TIP3   OH275514   2.047   5.808  12.398 -0.2049 -0.5707 -0.0090
18008TIP3    H175515   1.984   5.752  12.353 -0.9554  0.2047  0.0668
18008TIP3    H275516   2.033   5.895  12.360 -1.6672  0.3520  2.5546
18009TIP3   OH275517   1.657   2.686  14.101  0.4183  1.1801  0.0488
18009TIP3    H175518   1.676   2.613  14.042  0.0205  1.3540 -0.2945
18009TIP3    H275519   1.588   2.654  14.159  1.1070  0.8587  0.7129
18010TIP3   OH275520   5.861   6.165  13.379 -0.4736 -0.2262  0.1737
18010TIP3    H175521   5.850   6.258  13.400 -0.9762 -0.1412 -0.4327
18010TIP3    H275522   5.935   6.137  13.432  0.3616  0.7830 -0.4381
18011TIP3   OH275523   5.378   2.512  12.777 -0.4887 -0.5251 -0.2039
18011TIP3    H175524   5.310   2.509  12.845 -0.9424 -0.3243 -0.6434
18011TIP3    H275525   5.373   2.601  12.743  0.2110 -0.4177 -0.0285
18012TIP3   OH275526   5.469   0.050  12.675 -0.0183 -0.0378 -0.0897
18012TIP3    H175527   5.421  -0.028  12.646 -0.2869 -0.0071  0.2789
18012TIP3    H275528   5.417   0.086  12.747 -0.3299  0.9523 -0.7923
18013TIP3   OH275529   3.070   2.520  17.134  0.2267  0.2057 -0.2701
18013TIP3    H175530   3.053   2.606  17.173 -0.4232  0.2897 -0.7243
18013TIP3    H275531   3.091   2.539  17.042 -0.1719 -0.1354 -0.4340
18014TIP3   OH275532   5.360   3.331   3.757  0.2102  0.1062 -0.0245
18014TIP3    H175533   5.286   3.324   3.696  0.0643 -0.9193  0.2711
18014TIP3    H275534   5.324   3.306   3.842  0.4194  1.5108  0.4935
18015TIP3   OH275535   6.160   6.630  12.829  0.4192 -0.1596 -0.2657
18015TIP3    H175536   6.114   6.692  12.884 -1.2236  0.9649 -2.8132
18015TIP3    H275537   6.097   6.560  12.812  1.0549 -0.7241 -0.3627
18016TIP3   OH275538   0.167   3.620  11.850 -0.0709 -0.3931  0.0668
18016TIP3    H175539   0.217   3.571  11.784 -1.1185 -1.7199  0.2446
18016TIP3    H275540   0.118   3.684  11.799  2.2195  1.3103 -0.0617
18017TIP3   OH275541   6.766   2.207  14.441 -0.5964  0.3629  0.1119
18017TIP3    H175542   6.683   2.160  14.441 -0.3498 -0.0763 -1.0712
18017TIP3    H275543   6.742   2.299  14.452 -1.2665  0.2828 -0.6565
18018TIP3   OH275544   0.385   2.016  11.004  0.1608  0.1874 -0.2023
18018TIP3    H175545   0.373   2.111  11.015  0.1841  0.0237  1.3491
18018TIP3    H275546   0.299   1.984  10.978 -0.4763  0.3231  1.6436
18019TIP3   OH275547   2.510   2.308   6.954 -0.4087  0.2480  0.3980
18019TIP3    H175548   2.585   2.367   6.950 -0.7661  0.7801  1.3619
18019TIP3    H275549   2.507   2.267   6.868  0.8001  0.4512  0.2552
18020TIP3   OH275550   5.846   5.431  16.490 -0.4977 -0.1643 -0.2159
18020TIP3    H175551   5.797   5.446  16.571 -1.6140 -1.1251 -0.6894
18020TIP3    H275552   5.925   5.386  16.518 -0.1224  0.9439  0.5073
18021TIP3   OH275553   5.793   3.511  16.818  0.1050  0.5079  0.1300
18021TIP3    H175554   5.777   3.417  16.830 -0.4000  0.3918 -1.3229
18021TIP3    H275555   5.709   3.545  16.786 -0.0514  1.6684  1.7361
18022TIP3   OH275556   5.943   5.628  14.094  0.5144  0.4169  0.0958
18022TIP3    H175557   6.032   5.659  14.076  1.1525 -1.2281  0.2879
18022TIP3    H275558   5.944   5.608  14.188 -0.3321  1.2298  0.2805
18023TIP3   OH275559   1.897   2.591   3.147 -0.2953 -0.2122 -0.0446
18023TIP3    H175560   1.931   2.528   3.211 -1.7107 -0.2888  0.6541
18023TIP3    H275561   1.821   2.631   3.190 -0.0684  1.1975 -0.9022
18024TIP3   OH275562   3.513   0.610  11.704  0.2527  0.0012 -0.0434
18024TIP3    H175563   3.448   0.540  11.702  0.2122 -0.0307  1.4934
18024TIP3    H275564   3.468   0.686  11.668 -0.3875 -0.2291  0.2633
18025TIP3   OH275565   5.418   3.124  14.601  0.5092  0.3450  0.2358
18025TIP3    H175566   5.472   3.172  14.538 -0.3808  1.6039  0.4257
18025TIP3    H275567   5.333   3.168  14.599 -0.6586 -1.8679 -0.3645
18026TIP3   OH275568   5.953   4.606  11.873 -0.0379 -0.1823 -0.2643
18026TIP3    H175569   5.900   4.652  11.938  1.4248  0.3367  0.5763
18026TIP3    H275570   6.017   4.671  11.844 -0.3450 -0.5665 -1.8501
18027TIP3   OH275571   0.590   6.459   3.521  0.1117 -0.1609  0.3283
18027TIP3    H175572   0.563   6.368   3.511 -0.7936  0.1921 -0.5862
18027TIP3    H275573   0.564   6.501   3.438  2.6416  0.4108 -0.2043
18028TIP3   OH275574   5.708   4.422   4.663  0.7086 -0.8027  0.3531
18028TIP3    H175575   5.663   4.466   4.590  2.5384 -0.7721 -0.7995
18028TIP3    H275576   5.645   4.357   4.694 -0.0113 -1.0225 -1.4770
18029TIP3   OH275577   1.602   5.523  14.247  0.4219  0.0465 -0.0226
18029TIP3    H175578   1.552   5.446  14.274 -0.4212  0.6634  0.1855
18029TIP3    H275579   1.536   5.589  14.225  1.1319  0.8051  0.0701
18030TIP3   OH275580   3.293   0.309   3.877  0.3117 -0.0844  0.1886
18030TIP3    H175581   3.305   0.260   3.958 -0.6888 -2.1831 -0.8699
18030TIP3    H275582   3.223   0.371   3.896  0.9926  0.3387  1.3184
18031TIP3   OH275583   1.044   1.405   2.172  0.2522  0.4868  0.6822
18031TIP3    H175584   0.976   1.449   2.222  1.4284  0.2193  2.6070
18031TIP3    H275585   1.005   1.322   2.145 -0.0953  0.1583  2.1194
18032TIP3   OH275586   3.006   5.438  13.233  0.0676  0.2089  0.5704
18032TIP3    H175587   3.096   5.461  13.211  0.0830  0.8511  1.3111
18032TIP3    H275588   2.998   5.346  13.209  0.1117  0.8458 -2.0918
18033TIP3   OH275589   5.383   5.241  16.415 -0.0429 -0.2425 -0.3755
18033TIP3    H175590   5.388   5.300  16.491  3.0339 -0.2027 -0.5254
18033TIP3    H275591   5.449   5.174  16.433  0.0477 -0.7663 -2.5763
18034TIP3   OH275592   6.204   0.089   0.213  0.3027  0.0192 -0.1664
18034TIP3    H175593   6.246   0.139   0.283 -0.3158 -0.1926  0.3528
18034TIP3    H275594   6.274   0.036   0.175  0.4071 -0.6558  0.9783
18035TIP3   OH275595   4.888   4.932  10.963  0.6912  0.6447 -0.1370
18035TIP3    H175596   4.823   4.862  10.952  1.8773 -0.4030 -0.6742
18035TIP3    H275597   4.876   4.989  10.886  1.9891 -0.8924 -1.5369
18036TIP3   OH275598   5.639   2.781  15.178 -0.3520  0.2732 -0.0047
18036TIP3    H175599   5.678   2.861  15.212  1.0742  0.1519 -1.2976
18036TIP3    H275600   5.701   2.712  15.202  0.1066  0.0348 -1.7950
18037TIP3   OH275601   3.333   1.122   4.150  0.4529  0.5951 -0.1017
18037TIP3    H175602   3.257   1.068   4.171  0.1250  1.2788  0.4590
18037TIP3    H275603   3.400   1.095   4.213  0.4469  0.4995 -0.1362
18038TIP3   OH275604   0.737   4.417   5.782  0.0422  0.0523 -0.4190
18038TIP3    H175605   0.767   4.481   5.718  1.2811  0.5920  0.6715
18038TIP3    H275606   0.642   4.417   5.775  0.0524  1.8422 -0.5764
18039TIP3   OH275607   6.184   6.207   3.280  0.4085  0.1598  0.1610
18039TIP3    H175608   6.129   6.195   3.358 -0.4983  0.2900 -0.4482
18039TIP3    H275609   6.123   6.199   3.207  1.5954 -2.1731 -0.6476
18040TIP3   OH275610   5.913   5.355  12.697 -0.5590  0.0353 -0.4447
18040TIP3    H175611   5.986   5.414  12.681  0.8549 -1.8107 -0.8734
18040TIP3    H275612   5.859   5.362  12.618 -1.7213  2.5789  0.5164
18041TIP3   OH275613   6.401   0.556   0.496  0.1703 -0.4876  0.0281
18041TIP3    H175614   6.347   0.636   0.501 -0.2853 -0.8376  0.8473
18041TIP3    H275615   6.338   0.485   0.490  0.5490 -0.8989  0.9160
18042TIP3   OH275616   3.449   4.132   4.599 -0.1748 -0.3897 -0.1932
18042TIP3    H175617   3.435   4.054   4.652  0.3793  0.7212  1.6107
18042TIP3    H275618   3.532   4.115   4.554  0.7609 -0.1815  1.4205
18043TIP3   OH275619   0.386   4.457  11.727 -0.3481 -0.4034  0.2739
18043TIP3    H175620   0.429   4.378  11.696 -2.1961 -0.6773 -1.7028
18043TIP3    H275621   0.404   4.522  11.659  0.9568  0.8472  1.7619
18044TIP3   OH275622   2.855   3.763   1.181 -0.1652 -0.7686  0.2714
18044TIP3    H175623   2.873   3.855   1.160  0.9985 -0.0696  3.8108
18044TIP3    H275624   2.939   3.719   1.168 -0.6639 -1.3101 -1.1911
18045TIP3   OH275625   0.417   6.601  11.734  0.2113 -0.1383 -0.4372
18045TIP3    H175626   0.360   6.527  11.754  0.4349 -0.9776 -2.7688
18045TIP3    H275627   0.504   6.573  11.762 -0.0527  0.0721  0.6047
18046TIP3   OH275628   1.450   2.453   1.560 -0.1962  0.4576 -0.6560
18046TIP3    H175629   1.379   2.497   1.513 -3.1904 -3.0681  0.3721
18046TIP3    H275630   1.494   2.401   1.493  0.2017  1.0907 -0.8982
18047TIP3   OH275631   5.174   3.370   2.995  0.2742 -0.2541  0.1399
18047TIP3    H175632   5.101   3.432   3.000  2.4368  2.3147  0.6607
18047TIP3    H275633   5.197   3.353   3.086  0.9636 -0.2712 -0.0370
18048TIP3   OH275634   6.251   5.465  15.210 -0.3988  0.1631 -0.1289
18048TIP3    H175635   6.197   5.539  15.236 -1.1382  1.2234 -4.3284
18048TIP3    H275636   6.189   5.392  15.203 -0.4744  0.2563 -0.4307
18049TIP3   OH275637   4.775   5.113   0.197  0.0507 -0.1819  0.5067
18049TIP3    H175638   4.762   5.126   0.103 -2.1487 -1.7724  0.5694
18049TIP3    H275639   4.859   5.066   0.202  0.5979  0.6342 -0.5834
18050TIP3   OH275640   5.278   2.755  12.432  0.0240  0.3650  0.1731
18050TIP3    H175641   5.190   2.726  12.455  0.9327 -1.2408  1.7447
18050TIP3    H275642   5.306   2.696  12.362  0.3146  0.0448  0.5519
18051TIP3   OH275643   2.091   3.255  13.590 -0.5646 -0.3841 -0.3300
18051TIP3    H175644   2.025   3.211  13.536 -2.6652  3.5025 -1.0465
18051TIP3    H275645   2.041   3.303  13.656  1.6583  0.7094  0.6314
18052TIP3   OH275646   4.942   4.651   2.219  0.0626 -0.3006 -0.0882
18052TIP3    H175647   4.962   4.557   2.218  1.2293 -0.0750  1.1225
18052TIP3    H275648   5.025   4.693   2.240 -0.6471  0.9536  0.2345
18053TIP3   OH275649   1.555   0.823   5.560 -0.1815 -0.0395  0.4214
18053TIP3    H175650   1.471   0.866   5.548  0.0172 -0.0518 -1.2336
18053TIP3    H275651   1.535   0.743   5.607 -0.9444  0.4882  1.0035
18054TIP3   OH275652   1.740   2.872   3.954  0.0812  0.0081 -0.8780
18054TIP3    H175653   1.793   2.913   4.022 -0.7099 -0.8287  0.2496
18054TIP3    H275654   1.803   2.842   3.889  1.0356 -1.3678  0.6619
18055TIP3   OH275655   2.805   0.160   5.045  0.4564 -0.2331  0.0930
18055TIP3    H175656   2.847   0.101   5.107  1.7126 -2.8345 -3.1144
18055TIP3    H275657   2.860   0.238   5.045  2.0280 -1.3265  0.2174
18056TIP3   OH275658   2.811   0.005  14.753  0.1023 -0.2628 -0.1923
18056TIP3    H175659   2.832  -0.025  14.664  1.6398  1.1358 -0.3194
18056TIP3    H275660   2.751   0.078  14.740  2.3322  1.6102 -0.2211
18057TIP3   OH275661   4.034   1.020   1.644  0.0453 -0.2243  0.5500
18057TIP3    H175662   4.039   0.930   1.678  0.3354 -0.7532 -0.8602
18057TIP3    H275663   4.122   1.039   1.613 -0.2822  0.1255 -0.1825
18058TIP3   OH275664   1.125   0.516   2.522 -0.5757  0.0691  0.2071
18058TIP3    H175665   1.106   0.550   2.610 -1.0044  1.3307 -0.3598
18058TIP3    H275666   1.073   0.436   2.515 -1.2051  0.4220  0.7783
18059TIP3   OH275667   2.747   6.222  11.085  0.5028  0.2491 -0.2170
18059TIP3    H175668   2.839   6.210  11.109  0.4468 -0.4861 -0.3428
18059TIP3    H275669   2.734   6.165  11.009  0.1243  0.9000 -0.6535
18060TIP3   OH275670   6.644   0.679  12.686  0.1363 -0.2653  1.0489
18060TIP3    H175671   6.681   0.595  12.656 -2.1787 -1.1301  0.4488
18060TIP3    H275672   6.718   0.726  12.724  1.5397 -2.4912  1.1779
18061TIP3   OH275673   0.255   0.130  16.273 -0.3634 -0.0082  0.7740
18061TIP3    H175674   0.280   0.204  16.217 -2.7447  0.0360 -0.2675
18061TIP3    H275675   0.284   0.052  16.225  1.2760  0.1843  1.4198
18062TIP3   OH275676   4.494   2.414   5.133 -0.4489  0.0641 -0.2215
18062TIP3    H175677   4.533   2.358   5.200  0.2692 -0.1135 -0.7799
18062TIP3    H275678   4.462   2.491   5.182 -1.0962 -0.6404  0.4917
18063TIP3   OH275679   2.939   2.253   2.793 -0.1301 -0.5259 -0.3206
18063TIP3    H175680   3.005   2.184   2.800 -0.0456 -0.3974  0.1848
18063TIP3    H275681   2.899   2.239   2.707  1.8406  0.5849 -1.4457
18064TIP3   OH275682   4.698   0.367  13.378 -0.1072 -0.1919  0.8511
18064TIP3    H175683   4.791   0.364  13.403 -0.2220 -2.2760  1.1049
18064TIP3    H275684   4.657   0.422  13.446  0.8285  0.2306  1.0881
18065TIP3   OH275685   3.366   5.960  13.962  0.2150 -0.5539 -0.7989
18065TIP3    H175686   3.402   5.979  14.048 -0.0582 -2.2290 -0.2941
18065TIP3    H275687   3.435   5.986  13.900  2.1269 -3.2082  0.1275
18066TIP3   OH275688   6.469   3.534  11.131  0.1967  0.5365  0.0693
18066TIP3    H175689   6.375   3.540  11.149  0.5815  1.6107  1.7945
18066TIP3    H275690   6.480   3.580  11.048 -0.6952  1.1328  0.2696
18067TIP3   OH275691   4.663   0.288  13.089  0.5118  0.6349  0.0772
18067TIP3    H175692   4.659   0.298  13.184  0.7309 -0.0580  0.1696
18067TIP3    H275693   4.745   0.241  13.074 -0.1032 -0.3151 -0.3590
18068TIP3   OH275694   0.615   0.716  16.866  0.1390  0.1600  0.0666
18068TIP3    H175695   0.706   0.737  16.844  0.1793  0.4108  0.4702
18068TIP3    H275696   0.619   0.683  16.956 -0.2855  1.0085  0.3989
18069TIP3   OH275697   6.619   1.079  16.457  0.0468  0.3129 -0.7456
18069TIP3    H175698   6.673   1.086  16.379 -0.8827  0.3161 -1.3945
18069TIP3    H275699   6.679   1.097  16.530  0.9025  0.3401 -1.4565
18070TIP3   OH275700   3.627   3.163  13.515 -0.6055  0.7987  0.3421
18070TIP3    H175701   3.612   3.182  13.608 -0.4578  1.5637  0.2149
18070TIP3    H275702   3.722   3.167  13.504 -0.6728  1.6126 -0.0194
18071TIP3   OH275703   0.812   1.361  12.527  0.1953 -0.2364 -0.1666
18071TIP3    H175704   0.781   1.398  12.610 -1.1076 -1.8311  0.0810
18071TIP3    H275705   0.768   1.414  12.460  0.9823  0.8342  0.1465
18072TIP3   OH275706   2.109   5.888  13.931  0.1533 -0.0054 -0.5064
18072TIP3    H175707   2.103   5.798  13.900 -0.3579 -0.9638  2.2089
18072TIP3    H275708   2.189   5.890  13.984  0.3745  1.2418 -0.8690
18073TIP3   OH275709   0.269   5.956   1.269 -0.4034 -0.2027 -0.2182
18073TIP3    H175710   0.362   5.937   1.281  0.0146  1.6225 -0.3144
18073TIP3    H275711   0.248   5.920   1.183 -0.0895 -1.6481  0.2956
18074TIP3   OH275712   2.513   2.658  14.794 -0.2272  0.0194  0.2667
18074TIP3    H175713   2.447   2.591  14.772  1.0541 -1.3546  0.4883
18074TIP3    H275714   2.475   2.740  14.763 -1.0288 -1.0701 -1.7815
18075TIP3   OH275715   1.188   5.303   2.597  0.4653  0.3323 -0.3134
18075TIP3    H175716   1.266   5.252   2.619 -0.5197 -0.6380  1.1190
18075TIP3    H275717   1.149   5.324   2.682 -1.4855 -0.2883 -1.0086
18076TIP3   OH275718   6.342   3.968   5.669 -0.6722 -1.1803  0.1901
18076TIP3    H175719   6.364   3.890   5.720  0.9838 -0.6455  0.3287
18076TIP3    H275720   6.414   4.029   5.687 -2.2555  0.6046  0.5499
18077TIP3   OH275721   3.922   5.925   4.168 -0.2986  0.1498 -0.1861
18077TIP3    H175722   3.942   5.913   4.260 -0.4858 -0.9778 -0.2843
18077TIP3    H275723   3.850   5.988   4.167  0.4188  0.9932  0.3703
18078TIP3   OH275724   5.006   4.995  13.501  0.6822  0.4829 -0.1096
18078TIP3    H175725   5.048   4.917  13.536 -0.9830  0.1548  1.2252
18078TIP3    H275726   5.056   5.016  13.422  1.1440 -1.9246 -0.4972
18079TIP3   OH275727   6.545   6.101  16.417  0.3958  0.4462  0.5064
18079TIP3    H175728   6.535   6.006  16.429 -1.1692  0.7944  1.9539
18079TIP3    H275729   6.609   6.127  16.483  0.1409  0.5476  0.7151
18080TIP3   OH275730   5.088   6.593  15.877 -0.2506  0.4665 -0.7203
18080TIP3    H175731   5.091   6.682  15.911  0.0548  1.1997 -2.6148
18080TIP3    H275732   5.180   6.570  15.862 -0.3549 -0.0201 -0.6271
18081TIP3   OH275733   0.496   4.370  16.536 -0.3997  0.3178 -0.3305
18081TIP3    H175734   0.518   4.430  16.606 -1.9742  0.4042  0.1121
18081TIP3    H275735   0.433   4.418  16.481 -0.8145 -0.5032 -0.5971
18082TIP3   OH275736   5.134   4.179   4.653 -0.0792  0.2232 -0.3034
18082TIP3    H175737   5.187   4.106   4.622 -0.4660  0.3367 -1.2860
18082TIP3    H275738   5.159   4.191   4.744  3.1737  1.6895 -1.3085
18083TIP3   OH275739   4.201   5.852   6.102 -0.3694  0.5591 -0.0709
18083TIP3    H175740   4.164   5.929   6.144 -1.8216 -0.7911  1.2071
18083TIP3    H275741   4.213   5.789   6.173  0.7215 -0.4117 -1.0916
18084TIP3   OH275742   3.127   0.553   5.787  0.3310 -0.6569 -0.4153
18084TIP3    H175743   3.222   0.544   5.783  0.4274 -0.4683  1.0253
18084TIP3    H275744   3.113   0.642   5.820 -0.3266 -0.9427  0.1011
18085TIP3   OH275745   5.078   4.802  12.356 -0.5225  0.6754  0.4510
18085TIP3    H175746   5.060   4.784  12.448 -2.1046  0.6628  0.1509
18085TIP3    H275747   5.048   4.723  12.311 -2.1622  1.7327 -0.3241
18086TIP3   OH275748   3.112   2.821   1.728 -0.5168  0.4648  0.0692
18086TIP3    H175749   3.174   2.828   1.656 -1.6632  1.9861 -0.7864
18086TIP3    H275750   3.125   2.900   1.780 -2.2675  1.1857 -0.5607
18087TIP3   OH275751   3.518   3.079  11.659  0.1732 -0.0993  0.7482
18087TIP3    H175752   3.434   3.051  11.695 -1.7370  1.4402 -2.2952
18087TIP3    H275753   3.497   3.159  11.610  3.5227  0.6134  0.3981
18088TIP3   OH275754   1.298   6.201  17.206  0.0901  0.5161  0.1613
18088TIP3    H175755   1.243   6.274  17.233  0.0275  1.4455 -2.2823
18088TIP3    H275756   1.239   6.126  17.205 -0.6447  1.0906 -0.4315
18089TIP3   OH275757   6.186   4.519  15.236 -0.0541  0.3054  0.0137
18089TIP3    H175758   6.174   4.545  15.145  1.0996 -0.7009 -0.4422
18089TIP3    H275759   6.270   4.472  15.237 -0.5149 -0.5327  1.3958
18090TIP3   OH275760   6.254   6.404  11.708 -0.4164  0.3705  0.2999
18090TIP3    H175761   6.284   6.477  11.653  1.4846 -0.1462  0.6277
18090TIP3    H275762   6.266   6.435  11.797  0.7963 -0.4876  0.4466
18091TIP3   OH275763   3.985   3.690  13.565 -0.1625 -0.2501 -0.1805
18091TIP3    H175764   4.018   3.736  13.487 -2.9353  1.8759 -0.1847
18091TIP3    H275765   4.011   3.747  13.638  2.9400 -2.5257  0.5851
18092TIP3   OH275766   0.384   3.135   2.534 -0.1638 -0.1055  0.3327
18092TIP3    H175767   0.362   3.227   2.550  2.7611  0.5211  1.1043
18092TIP3    H275768   0.336   3.087   2.602 -2.9392  0.6453 -1.0232
18093TIP3   OH275769   6.397   5.076   0.245  0.3213  0.3171  0.3739
18093TIP3    H175770   6.385   5.042   0.334  2.2111 -1.8052 -0.1334
18093TIP3    H275771   6.492   5.088   0.237  0.0125  2.0824 -0.8151
18094TIP3   OH275772   3.428   3.870   5.930 -0.0576 -0.1783 -0.0708
18094TIP3    H175773   3.462   3.933   5.866 -2.1288  0.1466 -0.9025
18094TIP3    H275774   3.403   3.924   6.005  1.3365 -0.4277  0.5795
18095TIP3   OH275775   2.291   0.896  15.681 -0.0428 -0.4802 -0.2059
18095TIP3    H175776   2.196   0.898  15.690  0.0025 -2.9359  1.3054
18095TIP3    H275777   2.310   0.950  15.604 -2.6568 -0.1671 -0.6534
18096TIP3   OH275778   2.440   0.852  11.492  0.7636  0.1179 -0.1953
18096TIP3    H175779   2.494   0.884  11.565  1.4045  2.4265 -1.6342
18096TIP3    H275780   2.473   0.765  11.474  1.6174  0.1221  1.2889
18097TIP3   OH275781   6.186   1.399  13.586  0.2965  0.0886  1.0967
18097TIP3    H175782   6.138   1.473  13.549 -2.0966 -1.5659  0.7852
18097TIP3    H275783   6.244   1.371  13.515 -0.5867  0.1129  0.3607
18098TIP3   OH275784   5.207   0.811  12.750 -0.6781 -0.0984  0.1461
18098TIP3    H175785   5.142   0.791  12.817 -1.4983 -0.1456 -0.6610
18098TIP3    H275786   5.170   0.884  12.700 -0.5249 -0.7023 -0.8735
18099TIP3   OH275787   4.441   1.053  14.618  0.3941 -0.1123  0.2113
18099TIP3    H175788   4.495   1.007  14.682 -0.6375 -0.1943  1.0473
18099TIP3    H275789   4.432   0.991  14.546 -0.0534 -0.8040  0.8426
18100TIP3   OH275790   5.051   1.483  15.948 -0.2759 -0.0481 -0.3273
18100TIP3    H175791   5.015   1.539  16.017  1.5887 -0.5185  1.0563
18100TIP3    H275792   5.102   1.543  15.893  0.7881 -0.1878  0.5001
18101TIP3   OH275793   2.499   3.214   2.580  0.5222  0.3444 -0.6024
18101TIP3    H175794   2.526   3.200   2.489  2.0687  1.3102 -0.3084
18101TIP3    H275795   2.497   3.127   2.618 -2.1757 -0.3008 -2.1070
18102TIP3   OH275796   0.312   2.482   5.361 -0.0280  0.3064 -0.1240
18102TIP3    H175797   0.248   2.549   5.335  0.4931  1.9362  2.6074
18102TIP3    H275798   0.263   2.424   5.420  0.4294  0.2714  0.2201
18103TIP3   OH275799   4.266   3.914   4.161  0.2281 -0.4120 -0.0618
18103TIP3    H175800   4.298   3.839   4.111  0.3693 -1.2857  1.3193
18103TIP3    H275801   4.174   3.894   4.179 -0.1699  0.4931 -1.0519
18104TIP3   OH275802   3.389   5.921  13.022  0.2551  0.1808  0.3522
18104TIP3    H175803   3.337   5.873  13.087 -1.7398  1.5246 -0.2068
18104TIP3    H275804   3.425   5.995  13.071  0.0712  0.3052  0.2992
18105TIP3   OH275805   3.332   5.160   3.151  0.1990 -0.1519 -0.1270
18105TIP3    H175806   3.376   5.183   3.070  1.9109  0.5353  0.9621
18105TIP3    H275807   3.246   5.202   3.145  1.0493  1.5097 -0.7355
18106TIP3   OH275808   5.209   4.179   4.939  0.3102  0.2100 -0.5286
18106TIP3    H175809   5.150   4.254   4.949  0.7887  0.3198  1.9031
18106TIP3    H275810   5.176   4.115   5.003  1.8867 -0.3236 -0.2370
18107TIP3   OH275811   5.777   0.005  11.089 -1.2979 -0.0486 -0.1801
18107TIP3    H175812   5.712   0.074  11.099  1.2308  2.2742  0.5604
18107TIP3    H275813   5.835   0.014  11.164  1.2084 -0.6262 -1.9735
18108TIP3   OH275814   3.221   4.773   3.665 -0.9266 -0.3768  0.0655
18108TIP3    H175815   3.167   4.840   3.622 -2.1896 -1.5587 -0.2018
18108TIP3    H275816   3.225   4.701   3.602  0.5430 -0.5132  0.2988
18109TIP3   OH275817   3.321   0.120  14.901  0.2866  0.9263  0.7342
18109TIP3    H175818   3.229   0.092  14.904  0.5535 -0.0911 -0.0726
18109TIP3    H275819   3.320   0.211  14.929 -1.0965  1.2208 -0.2429
18110TIP3   OH275820   2.484   2.404   1.316  0.0461 -1.1286 -0.0548
18110TIP3    H175821   2.397   2.436   1.294 -0.1736 -0.5241  1.5684
18110TIP3    H275822   2.472   2.311   1.336  0.4273 -1.9266 -3.3513
18111TIP3   OH275823   1.993   3.214  11.526 -0.8036  0.5087 -0.2702
18111TIP3    H175824   1.964   3.288  11.474  1.3536  1.3160 -0.3442
18111TIP3    H275825   2.007   3.144  11.462  0.8905  1.2029 -0.6727
18112TIP3   OH275826   4.820   4.540  13.777  0.1541 -0.1078 -0.2783
18112TIP3    H175827   4.807   4.632  13.797  0.3734 -0.1845  0.2202
18112TIP3    H275828   4.751   4.519  13.714 -0.9743 -0.0367  0.9062
18113TIP3   OH275829   5.016   2.247   2.785 -0.1409 -0.6659  0.0910
18113TIP3    H175830   5.083   2.203   2.733  0.7202  0.4044  0.2972
18113TIP3    H275831   4.982   2.315   2.728 -1.5051 -1.6007 -0.2384
18114TIP3   OH275832   6.742   5.850  15.615  0.0189 -0.2654  0.5980
18114TIP3    H175833   6.695   5.928  15.586  0.7087 -0.0000  0.2091
18114TIP3    H275834   6.817   5.884  15.665  1.1037 -0.6481 -0.7540
18115TIP3   OH275835   0.736   6.091  13.261 -0.1414 -0.2309 -0.5472
18115TIP3    H175836   0.823   6.060  13.289 -0.3782  0.2622  0.7557
18115TIP3    H275837   0.686   6.011  13.248 -0.4904 -0.4632  1.9768
18116TIP3   OH275838   5.962   6.807   0.586 -0.1652 -0.2673 -0.1191
18116TIP3    H175839   6.002   6.830   0.670  0.4583 -1.7095 -0.0088
18116TIP3    H275840   5.872   6.783   0.607  0.2053 -1.3550  0.2469
18117TIP3   OH275841   1.109   3.856  14.744  0.0473  0.7246 -0.2274
18117TIP3    H175842   1.154   3.860  14.659 -0.2398  0.9954 -0.3642
18117TIP3    H275843   1.107   3.946  14.775 -0.4245  0.7126 -0.2285
18118TIP3   OH275844   1.837   3.619  15.035 -0.2594 -0.4447 -0.7153
18118TIP3    H175845   1.814   3.674  15.110  1.3661  1.0649 -1.2735
18118TIP3    H275846   1.845   3.681  14.962 -1.9361 -1.9037 -2.1770
18119TIP3   OH275847   0.308   1.823  11.418 -0.4304 -0.1125  0.2486
18119TIP3    H175848   0.262   1.808  11.335  0.2758  0.9827 -0.3673
18119TIP3    H275849   0.368   1.895  11.398 -1.4783  1.3307  2.1822
18120TIP3   OH275850   1.468   0.845   2.990 -0.1483  0.1008 -0.4418
18120TIP3    H175851   1.400   0.782   2.969  1.8247 -1.7638 -1.3789
18120TIP3    H275852   1.539   0.826   2.929  1.2281  2.0207  0.4798
18121TIP3   OH275853   1.175   1.445  16.735 -0.6441 -0.2773  0.3541
18121TIP3    H175854   1.198   1.537  16.749 -0.8977 -0.4798  2.0861
18121TIP3    H275855   1.165   1.438  16.640 -0.5265  1.4577  0.1958
18122TIP3   OH275856   6.283   5.490   1.211  0.5424  0.1499  0.1990
18122TIP3    H175857   6.227   5.413   1.206  1.7550 -1.0460  3.5272
18122TIP3    H275858   6.361   5.467   1.160 -0.0232  0.0577 -0.6326
18123TIP3   OH275859   5.708   6.308  11.381 -0.4274 -0.4390  0.0351
18123TIP3    H175860   5.701   6.403  11.386 -0.2301 -0.4135 -0.1975
18123TIP3    H275861   5.650   6.283  11.310 -1.0425 -0.5579  0.5730
18124TIP3   OH275862   4.540   2.081   4.739  0.5748 -0.2902  0.1443
18124TIP3    H175863   4.524   1.988   4.760  1.1619 -0.1212  1.4139
18124TIP3    H275864   4.635   2.091   4.743  0.4643  0.5669  0.9854
18125TIP3   OH275865   0.159   0.357   0.513 -0.3348  0.7670 -0.4987
18125TIP3    H175866   0.151   0.415   0.589  0.5257  0.2552 -0.0098
18125TIP3    H275867   0.074   0.363   0.469 -0.5276  1.7685 -0.0032
18126TIP3   OH275868   6.354   2.903   1.361 -0.0471  0.2772 -0.4352
18126TIP3    H175869   6.397   2.972   1.312 -0.3790  0.2503 -0.7664
18126TIP3    H275870   6.399   2.823   1.333  1.7986  0.5664  1.5478
18127TIP3   OH275871   2.419   0.701   4.411 -0.0086  0.2849  0.0547
18127TIP3    H175872   2.494   0.752   4.443 -0.8360 -0.7038  3.8181
18127TIP3    H275873   2.390   0.651   4.487 -3.1265 -1.0679 -1.9222
18128TIP3   OH275874   6.037   3.881  10.454 -0.2703 -0.5971 -0.7342
18128TIP3    H175875   5.986   3.800  10.459 -1.3695  0.1523  0.3950
18128TIP3    H275876   6.039   3.915  10.543  1.4511 -0.1396 -0.9340
18129TIP3   OH275877   2.610   5.523   1.659 -0.0169 -0.6487  0.0521
18129TIP3    H175878   2.618   5.554   1.749 -0.5004  0.4158 -0.2693
18129TIP3    H275879   2.536   5.462   1.661 -0.3078 -0.2936  0.2930
18130TIP3   OH275880   5.922   1.840  13.224  0.0401 -0.0648 -0.3179
18130TIP3    H175881   5.964   1.912  13.272  2.6899 -2.1602  0.5991
18130TIP3    H275882   5.974   1.831  13.144 -1.4905  0.2969 -1.3807
18131TIP3   OH275883   1.706   6.617  16.304  0.0738  0.3203 -0.3682
18131TIP3    H175884   1.618   6.631  16.338 -0.3291 -2.4942 -0.0701
18131TIP3    H275885   1.698   6.541  16.247  2.5067 -0.7325  0.5989
18132TIP3   OH275886   5.700   0.047   4.374 -0.2674  0.1187 -0.5405
18132TIP3    H175887   5.627   0.076   4.429 -0.2349 -0.4654 -0.1913
18132TIP3    H275888   5.712   0.119   4.311 -0.2673  0.8078  0.2411
18133TIP3   OH275889   5.267   2.704  16.972 -0.2763 -0.3682 -0.4575
18133TIP3    H175890   5.358   2.684  16.949  0.9915  0.8591  3.0495
18133TIP3    H275891   5.268   2.797  16.995 -2.8899  0.1646 -2.3144
18134TIP3   OH275892   4.659   3.258  14.739  0.3789  0.2731 -0.1941
18134TIP3    H175893   4.609   3.309  14.803  0.3064 -0.6509  0.4854
18134TIP3    H275894   4.739   3.308  14.726  0.7511  0.0541  1.2232
18135TIP3   OH275895   1.896   5.945  12.007  0.0258 -0.2617  0.4418
18135TIP3    H175896   1.916   5.852  12.006  0.2431 -0.2553  2.7506
18135TIP3    H275897   1.802   5.949  12.023  0.2724 -0.0712  1.8946
18136TIP3   OH275898   3.259   5.676   2.902  0.6145 -0.6706  0.0513
18136TIP3    H175899   3.333   5.734   2.920 -0.8878  1.4629 -0.3530
18136TIP3    H275900   3.183   5.723   2.938 -0.7789 -1.9646 -1.1169
18137TIP3   OH275901   1.314   4.699  14.359 -0.1537  0.0788  0.1056
18137TIP3    H175902   1.232   4.707  14.407 -0.9633  1.1503 -1.3862
18137TIP3    H275903   1.327   4.605  14.348 -1.6603 -0.0808 -0.4118
18138TIP3   OH275904   3.256   5.493   3.132 -0.2568 -0.5732 -0.2380
18138TIP3    H175905   3.327   5.532   3.081 -0.2113  0.9420  0.9559
18138TIP3    H275906   3.177   5.508   3.080 -0.0249 -0.2338 -0.4911
18139TIP3   OH275907   1.552   5.008  16.662  0.1341  0.1738 -0.0580
18139TIP3    H175908   1.567   4.930  16.609 -0.5386  0.6101 -0.9136
18139TIP3    H275909   1.639   5.045  16.677  0.3050  0.2300 -1.1474
18140TIP3   OH275910   5.891   4.255   0.892  0.3904  0.5699 -0.1316
18140TIP3    H175911   5.942   4.221   0.819 -0.2628 -0.4789 -0.1084
18140TIP3    H275912   5.946   4.324   0.929  0.6760  1.2028 -1.6766
18141TIP3   OH275913   1.197   1.843  11.043  0.0878 -0.6423  0.0632
18141TIP3    H175914   1.268   1.779  11.042 -0.2146 -1.0269  1.4904
18141TIP3    H275915   1.239   1.926  11.064  0.2465 -0.6847 -0.0861
18142TIP3   OH275916   2.129   0.738   1.704  0.0103 -0.6265  0.1145
18142TIP3    H175917   2.065   0.805   1.682 -0.3055 -1.0256 -0.1887
18142TIP3    H275918   2.084   0.655   1.686 -0.5242 -0.9977  2.9463
18143TIP3   OH275919   0.322   3.319  13.316  0.2283 -0.3516 -0.0667
18143TIP3    H175920   0.317   3.300  13.410  0.6182 -1.4644 -0.2570
18143TIP3    H275921   0.416   3.326  13.298  0.3097 -2.8604 -0.8680
18144TIP3   OH275922   6.032   3.121  13.966 -0.4620  0.3882  0.0732
18144TIP3    H175923   5.961   3.138  14.028  0.3654  0.5096  1.0012
18144TIP3    H275924   6.033   3.026  13.957 -1.3664  0.4446 -0.6942
18145TIP3   OH275925   4.513   0.790   3.723 -0.7498 -0.1716 -0.2498
18145TIP3    H175926   4.540   0.715   3.669 -3.4272 -0.9974 -0.5520
18145TIP3    H275927   4.586   0.851   3.717  1.4230 -2.6458 -0.2013
18146TIP3   OH275928   1.100   3.946   3.302 -0.3942  0.1001  0.5518
18146TIP3    H175929   1.161   4.011   3.338 -0.6466  1.6301 -1.7136
18146TIP3    H275930   1.015   3.972   3.338  0.0248 -1.2839  2.6859
18147TIP3   OH275931   2.529   2.779   3.176  0.0681 -0.1641  0.5640
18147TIP3    H175932   2.561   2.836   3.246  2.0001 -0.5540  0.0418
18147TIP3    H275933   2.443   2.814   3.153 -0.8090 -0.2783  3.4064
18148TIP3   OH275934   1.438   4.825  14.108  0.5784 -0.4162  0.2074
18148TIP3    H175935   1.413   4.801  14.197 -1.0528  0.5053  0.0242
18148TIP3    H275936   1.461   4.742  14.066  0.7957 -0.9208  1.3244
18149TIP3   OH275937   3.376   1.050   2.388 -0.1546 -0.1443  0.1611
18149TIP3    H175938   3.420   1.045   2.303 -1.6559  0.9449 -0.7011
18149TIP3    H275939   3.438   1.011   2.449  1.7213  0.6986 -1.1426
18150TIP3   OH275940   5.615   3.950   2.197  0.6673 -0.4852  0.8848
18150TIP3    H175941   5.540   4.002   2.167 -0.3465 -2.7616 -0.5901
18150TIP3    H275942   5.593   3.927   2.288  0.4345  0.3806  1.0543
18151TIP3   OH275943   0.716   3.349  16.596  0.1630 -0.2780 -0.2464
18151TIP3    H175944   0.760   3.412  16.653  2.4069 -1.7674 -0.2654
18151TIP3    H275945   0.657   3.301  16.654 -0.4544  0.8032  0.0484
18152TIP3   OH275946   1.641   5.953  15.014  0.0246 -0.9622  0.5590
18152TIP3    H175947   1.683   5.883  14.965  1.2931  0.1266  0.0727
18152TIP3    H275948   1.666   6.034  14.969 -1.9699 -0.2180  0.6945
18153TIP3   OH275949   0.993   4.345   4.354  0.1363  0.8521 -0.5790
18153TIP3    H175950   0.955   4.427   4.386 -1.2752  0.4382 -1.1715
18153TIP3    H275951   0.975   4.282   4.423  0.4844  0.8458 -0.4936
18154TIP3   OH275952   6.091   6.033   5.153  0.0385  0.2057  0.4730
18154TIP3    H175953   6.079   5.982   5.073 -1.5950 -0.2588  1.0039
18154TIP3    H275954   6.027   6.103   5.146 -0.6635 -0.3048  1.7572
18155TIP3   OH275955   5.998   5.065  14.995 -0.6682 -0.3111  0.4933
18155TIP3    H175956   6.040   5.084  14.910 -1.0424  0.7246  0.5308
18155TIP3    H275957   5.912   5.030  14.972 -0.4105 -0.9092  0.4342
18156TIP3   OH275958   0.022   4.704   4.381  0.5147 -0.3128 -0.1936
18156TIP3    H175959   0.088   4.641   4.410 -0.0567 -1.0710 -0.5437
18156TIP3    H275960  -0.011   4.670   4.298  1.9832  1.7492 -1.6694
18157TIP3   OH275961   3.395   2.123  12.427  0.4116 -0.0236 -0.1487
18157TIP3    H175962   3.445   2.058  12.476  0.0149 -0.2013  0.0200
18157TIP3    H275963   3.384   2.196  12.488  1.5696  0.5585 -0.6055
18158TIP3   OH275964   0.009   2.047  17.022 -0.5155  0.2702 -0.1364
18158TIP3    H175965   0.001   2.083  16.934  0.0499 -0.6576 -0.5658
18158TIP3    H275966   0.080   2.098  17.062  0.3736 -0.4506 -0.7899
18159TIP3   OH275967   3.355   4.126  14.220 -0.0911 -0.5797  0.7288
18159TIP3    H175968   3.432   4.082  14.256 -0.3561 -1.7448 -0.1215
18159TIP3    H275969   3.376   4.219  14.226  1.1960 -0.8720  0.9216
18160TIP3   OH275970   3.816   5.397   1.666  0.1381  0.1270  0.1808
18160TIP3    H175971   3.726   5.377   1.694 -0.1025 -0.8323 -1.2764
18160TIP3    H275972   3.807   5.427   1.576  1.2718  0.2347  0.0993
18161TIP3   OH275973   0.393   3.428  16.658  0.0968  0.0461  0.1055
18161TIP3    H175974   0.471   3.475  16.687  0.6394 -0.2527 -0.8531
18161TIP3    H275975   0.400   3.426  16.562 -1.1617  0.1462 -0.0003
18162TIP3   OH275976   4.163   6.675   5.512  0.3603 -0.4010  0.0151
18162TIP3    H175977   4.206   6.599   5.473  1.0882  0.5265 -1.0150
18162TIP3    H275978   4.234   6.723   5.555 -0.6663 -2.3558  4.1577
18163TIP3   OH275979   0.132   0.673   2.247 -0.5629  0.2483  0.1349
18163TIP3    H175980   0.168   0.594   2.208  1.6381  1.0288  0.5094
18163TIP3    H275981   0.103   0.726   2.172 -0.4864 -0.1837 -0.2001
18164TIP3   OH275982   5.254   5.271   3.608 -0.1820  0.4011 -0.1006
18164TIP3    H175983   5.181   5.244   3.552  0.4937 -0.6109 -0.5185
18164TIP3    H275984   5.274   5.361   3.579 -0.1811  0.0798 -1.1380
18165TIP3   OH275985   6.133   2.096   2.622  0.5212 -0.2522  0.1739
18165TIP3    H175986   6.189   2.169   2.650  0.0436 -0.6667  2.2724
18165TIP3    H275987   6.194   2.023   2.608  0.6788 -0.2601  0.9012
18166TIP3   OH275988   5.549   1.186  12.391 -0.4126 -0.1209 -0.1067
18166TIP3    H175989   5.584   1.118  12.449 -1.3428  0.0787  0.7043
18166TIP3    H275990   5.467   1.149  12.359 -1.0653  0.7343  0.5664
18167TIP3   OH275991   5.812   6.741   3.790 -0.0669 -1.1157  0.2881
18167TIP3    H175992   5.740   6.756   3.729 -0.0671  0.2001  0.5867
18167TIP3    H275993   5.781   6.671   3.847 -2.2823  1.2875  2.1747
18168TIP3   OH275994   3.783   2.065  15.209 -0.4212  0.5769 -0.4161
18168TIP3    H175995   3.802   1.975  15.236 -1.8474  0.2260 -0.5619
18168TIP3    H275996   3.870   2.103  15.193  0.1986 -0.7819 -0.4124
18169TIP3   OH275997   1.477   0.776  16.753 -0.2832  0.2041 -0.0391
18169TIP3    H175998   1.471   0.693  16.799  2.2872  0.6791  1.2496
18169TIP3    H275999   1.494   0.753  16.662  1.1794 -0.7138  0.4451
18170TIP3   OH276000   5.600   0.611   4.367  0.2621  0.0473  0.1096
18170TIP3    H176001   5.589   0.689   4.423  1.0710  0.6597 -0.5598
18170TIP3    H276002   5.684   0.626   4.323  0.3560 -1.1512 -0.1296
18171TIP3   OH276003   0.626   4.217  13.875  0.6332 -0.2526  0.4495
18171TIP3    H176004   0.562   4.220  13.804  0.2978 -0.0007  0.7598
18171TIP3    H276005   0.574   4.196  13.953  1.0772 -1.0668  0.5283
18172TIP3   OH276006   5.912   0.480  13.448  0.2877  0.0507 -0.2455
18172TIP3    H176007   5.887   0.540  13.378 -1.5756 -2.3947 -1.7714
18172TIP3    H276008   5.830   0.460  13.493  1.0550 -0.4762  0.9516
18173TIP3   OH276009   2.878   6.254   4.200  0.9868 -0.0089  0.5217
18173TIP3    H176010   2.798   6.290   4.162 -0.6960 -2.3173  1.7370
18173TIP3    H276011   2.875   6.280   4.292  1.5888 -0.1562  0.5874
18174TIP3   OH276012   5.830   1.325  16.810  0.3139 -0.0115  0.3416
18174TIP3    H176013   5.738   1.339  16.833  0.1190  0.3923 -0.6819
18174TIP3    H276014   5.862   1.264  16.877 -0.5595  0.2391  0.9931
18175TIP3   OH276015   5.919   3.126   2.711  0.2181 -0.6541 -0.7566
18175TIP3    H176016   5.832   3.146   2.674  0.5677 -0.1699 -1.3320
18175TIP3    H276017   5.910   3.038   2.747 -0.9306 -0.0335  0.5018
18176TIP3   OH276018   6.487   0.778  11.492 -0.0957 -0.1806 -0.1027
18176TIP3    H176019   6.394   0.771  11.471 -0.5541 -2.4210  2.4168
18176TIP3    H276020   6.490   0.824  11.577  0.8236 -3.2809  1.6158
18177TIP3   OH276021   6.503   0.774  14.067 -0.0015 -0.1865 -0.0701
18177TIP3    H176022   6.449   0.696  14.061  0.0266 -0.4569  2.4592
18177TIP3    H276023   6.593   0.741  14.070  0.0748  0.0050 -0.2303
18178TIP3   OH276024   1.032   0.696  13.951  0.1105 -0.2300  0.4196
18178TIP3    H176025   0.965   0.741  14.003 -0.0212  0.1118 -0.0484
18178TIP3    H276026   1.055   0.619  14.004  0.4065  0.4310  1.2599
18179TIP3   OH276027   5.001   6.614   0.855 -0.7825 -0.1559 -0.1042
18179TIP3    H176028   5.023   6.647   0.942 -1.4979 -0.6930  0.2904
18179TIP3    H276029   4.908   6.633   0.846 -0.7061 -0.0974 -0.7531
18180TIP3   OH276030   0.551   0.734  14.629 -0.0264  0.3302 -0.5620
18180TIP3    H176031   0.523   0.824  14.611 -0.6112  0.0346 -1.1417
18180TIP3    H276032   0.545   0.690  14.544 -0.2399 -0.3928 -0.1714
18181TIP3   OH276033   4.990   0.005   5.099 -0.1316  0.4366 -0.5239
18181TIP3    H176034   4.913   0.004   5.043  0.1233  1.7818 -0.9170
18181TIP3    H276035   5.063  -0.015   5.040 -0.1820 -1.0614 -0.1132
18182TIP3   OH276036   5.119   0.434  14.851  0.1909 -0.0751 -0.5505
18182TIP3    H176037   5.057   0.505  14.869 -0.9364 -0.0176 -4.2732
18182TIP3    H276038   5.171   0.466  14.777  1.2852 -2.1626 -0.7134
18183TIP3   OH276039   1.293   6.222   6.057 -0.3289 -0.2940 -0.5038
18183TIP3    H176040   1.258   6.295   6.107  0.5877 -0.4096  0.3232
18183TIP3    H276041   1.259   6.234   5.968 -2.2214 -0.2714  0.2183
18184TIP3   OH276042   4.023   3.484   5.373  0.0763  0.0062 -0.1944
18184TIP3    H176043   4.058   3.540   5.303  0.9468 -0.4777 -0.1467
18184TIP3    H276044   3.949   3.534   5.407  0.0667  0.5650 -0.9986
18185TIP3   OH276045   0.274   2.198  11.728 -0.8968  0.3178 -0.1237
18185TIP3    H176046   0.199   2.158  11.684 -0.4250  2.2945 -2.8701
18185TIP3    H276047   0.242   2.283  11.757  0.0233  0.7832 -0.4695
18186TIP3   OH276048   5.547   2.667  17.173 -0.0920  0.5373 -0.0998
18186TIP3    H176049   5.639   2.692  17.174 -0.0987  0.7621 -1.9652
18186TIP3    H276050   5.540   2.596  17.236  1.7415 -0.6614 -1.2063
18187TIP3   OH276051   3.176   4.434  15.823 -0.0801  0.0073  0.1188
18187TIP3    H176052   3.097   4.414  15.774  0.2843  0.0721 -0.4984
18187TIP3    H276053   3.199   4.524  15.797 -0.5493  0.4832  1.3059
18188TIP3   OH276054   6.551   0.279   0.132 -0.1947 -0.4082 -0.2542
18188TIP3    H176055   6.637   0.298   0.093  0.8602  0.6979  2.4717
18188TIP3    H276056   6.489   0.328   0.078  1.0523 -0.0082 -1.3583
18189TIP3   OH276057   5.336   4.858  12.309  0.3494 -0.3854 -0.0474
18189TIP3    H176058   5.335   4.951  12.333  0.9533 -0.9282  2.2929
18189TIP3    H276059   5.245   4.829  12.321  0.9226 -1.0125  3.3816
18190TIP3   OH276060   6.430   0.232   2.162 -0.4411 -0.3657 -0.1861
18190TIP3    H176061   6.501   0.297   2.160 -0.4232 -0.4005 -0.6700
18190TIP3    H276062   6.412   0.220   2.255  0.1121 -0.2716 -0.0645
18191TIP3   OH276063   3.822   0.278   3.298 -0.3473 -0.5716 -0.0584
18191TIP3    H176064   3.730   0.265   3.275 -0.9604  3.3651 -0.1854
18191TIP3    H276065   3.863   0.308   3.217  0.1556  1.4862  0.9285
18192TIP3   OH276066   6.649   4.090   6.112 -0.0186 -0.0534  0.2169
18192TIP3    H176067   6.720   4.033   6.142  0.1621 -0.5384 -1.0725
18192TIP3    H276068   6.665   4.174   6.155  0.6614 -0.4971  0.8469
18193TIP3   OH276069   0.613   5.935  16.091 -0.1624 -0.0545 -0.5519
18193TIP3    H176070   0.592   5.895  16.006  1.6241 -0.1642 -0.9463
18193TIP3    H276071   0.663   6.014  16.069 -0.4724  0.4038  0.3730
18194TIP3   OH276072   0.546   5.691   5.377 -0.7465 -0.0563 -0.5523
18194TIP3    H176073   0.595   5.609   5.366  0.2992  0.6625 -1.3462
18194TIP3    H276074   0.456   5.668   5.356 -0.5100 -1.0616 -0.5257
18195TIP3   OH276075   5.893   2.510  16.717 -0.7952  0.3993 -0.1503
18195TIP3    H176076   5.869   2.571  16.787  0.4000  1.5994 -0.7699
18195TIP3    H276077   5.845   2.430  16.738 -1.7881  1.3029  1.0938
18196TIP3   OH276078   6.769   0.692   4.998 -0.3592  0.0231  0.1898
18196TIP3    H176079   6.851   0.723   5.036 -0.8353  2.1340 -0.4710
18196TIP3    H276080   6.763   0.600   5.025  3.0549 -0.6528 -1.1800
18197TIP3   OH276081   4.127   3.991   2.145 -0.3641 -0.4238  0.2509
18197TIP3    H176082   4.172   3.932   2.205  0.6384 -0.7497 -0.8098
18197TIP3    H276083   4.155   3.963   2.058 -2.3976 -0.4516 -0.4189
18198TIP3   OH276084   5.577   6.195  17.286  0.3699  0.2520 -0.1397
18198TIP3    H176085   5.556   6.102  17.289  1.2285  0.0451 -0.5773
18198TIP3    H276086   5.656   6.200  17.233  0.7402  1.1656  0.5045
18199TIP3   OH276087   5.316   2.949   3.675  0.2786  0.2517 -0.4464
18199TIP3    H176088   5.248   2.959   3.742 -1.1748 -0.5194 -1.7891
18199TIP3    H276089   5.391   2.915   3.723  0.0034  1.8954  1.2075
18200TIP3   OH276090   6.236   4.244   3.445  0.0049  0.7063  0.7286
18200TIP3    H176091   6.304   4.312   3.437 -0.0694  0.9047  1.7017
18200TIP3    H276092   6.178   4.277   3.514 -0.5744  0.1085  0.5212
18201TIP3   OH276093   0.685   0.354   3.900  0.3683 -0.1259  0.4083
18201TIP3    H176094   0.689   0.395   3.987  0.6074  0.6332  0.0460
18201TIP3    H276095   0.656   0.264   3.917 -0.2914  0.2308  1.2057
18202TIP3   OH276096   4.817   4.997   3.012  0.2259 -0.0332  0.1702
18202TIP3    H176097   4.832   5.044   3.094 -1.4272 -0.5866  0.8242
18202TIP3    H276098   4.903   4.995   2.969  1.2550 -0.2611  2.1690
18203TIP3   OH276099   2.822   0.838   3.427 -0.4369  0.4423  0.7849
18203TIP3    H176100   2.877   0.843   3.349 -0.8368 -2.4102  0.2560
18203TIP3    H276101   2.769   0.918   3.424  0.5603  1.0766 -1.0693
18204TIP3   OH276102   5.907   6.108  13.996 -0.0442 -0.3722 -0.0852
18204TIP3    H176103   5.982   6.152  14.037 -0.4040  0.7712 -0.6193
18204TIP3    H276104   5.947   6.045  13.936  0.5037  0.2104 -0.3472
18205TIP3   OH276105   1.249   0.628   1.750  0.1536  0.2062 -0.1183
18205TIP3    H176106   1.294   0.709   1.726  0.4063  0.1049  0.0137
18205TIP3    H276107   1.197   0.651   1.827 -1.7664  0.9009 -1.5928
18206TIP3   OH276108   1.836   5.468   3.897 -0.0307 -0.0359  0.0837
18206TIP3    H176109   1.771   5.403   3.924 -1.8652  1.6718 -0.1173
18206TIP3    H276110   1.883   5.489   3.977 -0.5631 -0.3735  0.4927
18207TIP3   OH276111   4.810   0.570  13.154  0.0175  0.4102 -1.0291
18207TIP3    H176112   4.775   0.650  13.194  0.9580  0.9661 -1.2842
18207TIP3    H276113   4.795   0.502  13.219 -4.7660 -0.1337 -2.5178
18208TIP3   OH276114   5.775   0.416  12.540 -0.1113 -0.0112 -0.3266
18208TIP3    H176115   5.827   0.488  12.577  0.6083 -0.4611 -0.4452
18208TIP3    H276116   5.685   0.447  12.544  0.2314  1.0458 -0.7167
18209TIP3   OH276117   1.611   0.556   5.274 -0.3472  0.4565 -0.2025
18209TIP3    H176118   1.705   0.541   5.268 -0.2651  0.9127 -0.0700
18209TIP3    H276119   1.576   0.530   5.189 -0.2990 -1.1732  0.2635
18210TIP3   OH276120   2.178   3.381  10.939  0.0856 -0.0123  0.3437
18210TIP3    H176121   2.257   3.335  10.967  0.8437  0.3758 -1.1094
18210TIP3    H276122   2.166   3.355  10.847 -2.6814 -1.7353  1.1316
18211TIP3   OH276123   4.518   1.898   0.617  0.0483  0.0739 -0.0516
18211TIP3    H176124   4.491   1.904   0.526  0.2255 -3.6778 -0.4374
18211TIP3    H276125   4.591   1.835   0.617  1.1779  1.2946  2.4414
18212TIP3   OH276126   2.102   0.923   4.063 -0.1985 -0.5146  0.0993
18212TIP3    H176127   2.179   0.897   4.113 -0.3099 -1.1893 -0.0656
18212TIP3    H276128   2.070   0.841   4.024 -0.1499 -0.0127 -1.0266
18213TIP3   OH276129   2.508   2.647   0.440 -0.0599  0.6061  0.4495
18213TIP3    H176130   2.579   2.621   0.498 -1.3094 -1.9056  0.9302
18213TIP3    H276131   2.527   2.603   0.357 -1.8608 -1.4860  1.0768
18214TIP3   OH276132   2.193   4.681   2.174  0.1603  0.2378  0.4904
18214TIP3    H176133   2.270   4.624   2.166 -0.3947 -0.4429 -0.0273
18214TIP3    H276134   2.188   4.700   2.267  2.6087  2.5830  0.2028
18215TIP3   OH276135   6.013   3.349   3.417 -0.0637 -0.0008 -0.8828
18215TIP3    H176136   5.988   3.312   3.332  1.1325 -1.1990 -0.7286
18215TIP3    H276137   5.972   3.292   3.481 -0.7211  0.7320 -0.6445
18216TIP3   OH276138   5.462   5.254  16.115 -0.0477 -0.0184  0.0425
18216TIP3    H176139   5.507   5.170  16.126 -1.6589 -0.9674 -0.4353
18216TIP3    H276140   5.439   5.280  16.204 -1.0021 -0.9139  0.0669
18217TIP3   OH276141   6.493   1.031   5.689  0.0626  0.2147 -0.2925
18217TIP3    H176142   6.513   1.054   5.780  1.0879 -1.6783 -0.0106
18217TIP3    H276143   6.491   1.115   5.643 -1.5853  1.3167  1.6795
18218TIP3   OH276144   4.946   1.785  16.105  0.1147 -0.4870 -0.1853
18218TIP3    H176145   4.893   1.858  16.138 -1.2388 -1.5667  0.0480
18218TIP3    H276146   4.963   1.808  16.014  0.6396  0.6628  0.1972
18219TIP3   OH276147   2.880   5.512  14.028  0.0407 -0.9095 -0.0080
18219TIP3    H176148   2.929   5.592  14.047 -0.2582 -0.7224 -0.0125
18219TIP3    H276149   2.828   5.497  14.106 -1.4591  0.0598 -0.7847
18220TIP3   OH276150   3.384   1.013  16.023 -0.6634 -0.0983 -0.5428
18220TIP3    H176151   3.359   1.099  16.059  0.7355 -0.0526  0.3604
18220TIP3    H276152   3.384   1.026  15.928  1.2159  1.4122 -0.3703
18221TIP3   OH276153   4.451   5.919   0.615  0.3219  0.6249 -0.0091
18221TIP3    H176154   4.433   5.827   0.594 -0.9436  0.7561  0.4932
18221TIP3    H276155   4.444   5.924   0.710  2.3648  0.8304  0.1472
18222TIP3   OH276156   3.384   4.501   0.581 -0.0778 -0.1264 -0.4265
18222TIP3    H176157   3.330   4.431   0.545 -0.5330  0.6546 -1.2699
18222TIP3    H276158   3.470   4.488   0.540  0.2401 -1.0242  0.4862
18223TIP3   OH276159   2.392   4.270  16.758 -0.0127  0.1038 -0.7327
18223TIP3    H176160   2.380   4.365  16.750 -0.4715  0.0297 -0.9279
18223TIP3    H276161   2.424   4.243  16.672  1.4280  0.2740 -0.2627
18224TIP3   OH276162   2.472   5.902  15.651 -0.1291 -0.2157  0.2807
18224TIP3    H176163   2.495   5.915  15.743  1.5399  0.7929 -0.2593
18224TIP3    H276164   2.385   5.943  15.643 -1.3383 -2.3450  1.9006
18225TIP3   OH276165   1.946   6.100  13.392  0.2233 -0.1410  0.1220
18225TIP3    H176166   1.916   6.073  13.479  1.4250  0.0398  0.6009
18225TIP3    H276167   1.938   6.196  13.394  0.3668 -0.1284  0.0795
18226TIP3   OH276168   1.137   5.076   0.756  0.2227  0.2364  0.7089
18226TIP3    H176169   1.132   4.982   0.740  1.4811  0.0440  1.3939
18226TIP3    H276170   1.195   5.085   0.832  0.6444  1.5991  0.2439
18227TIP3   OH276171   2.405   0.455  12.979  0.5703 -0.6384 -0.1965
18227TIP3    H176172   2.452   0.536  12.996 -1.7764  0.6678  0.3502
18227TIP3    H276173   2.361   0.434  13.061  2.7758 -3.6506  0.3198
18228TIP3   OH276174   3.546   6.777  16.724 -0.5339 -0.3155  0.1801
18228TIP3    H176175   3.499   6.794  16.805 -0.0785 -0.7516  0.5386
18228TIP3    H276176   3.585   6.861  16.700 -2.0507  0.2252 -0.4917
18229TIP3   OH276177   1.366   6.613  12.036  0.5627 -0.4836  0.1059
18229TIP3    H176178   1.288   6.566  12.068  1.6676 -1.8521  0.8469
18229TIP3    H276179   1.375   6.688  12.096  1.9971 -2.4461  2.4384
18230TIP3   OH276180   0.995   2.402  14.163 -0.6604  0.4432  0.0826
18230TIP3    H176181   1.063   2.459  14.199 -1.4613  0.7842  1.1018
18230TIP3    H276182   0.954   2.455  14.094 -0.4624  0.5607  0.0535
18231TIP3   OH276183   2.105   0.363  15.860 -0.1336 -0.1132  0.6923
18231TIP3    H176184   2.152   0.421  15.920 -1.1667 -0.0388  1.4339
18231TIP3    H276185   2.077   0.290  15.914 -0.3846 -0.4335  0.1333
18232TIP3   OH276186   2.854   3.328   0.109  0.3504  0.1533 -0.1835
18232TIP3    H176187   2.906   3.298   0.035  0.2083 -1.6775  0.4532
18232TIP3    H276188   2.891   3.282   0.185 -0.3671  0.9997  0.6962
18233TIP3   OH276189   4.508   0.926   2.745  0.0720 -0.0256  0.0680
18233TIP3    H176190   4.524   0.875   2.665 -1.4524  0.8524 -0.8334
18233TIP3    H276191   4.495   0.860   2.813 -0.3261 -0.8168 -0.7627
18234TIP3   OH276192   2.672   0.233  14.586 -0.1832  0.1969  0.5284
18234TIP3    H176193   2.703   0.165  14.527  0.0408  0.6826  0.0824
18234TIP3    H276194   2.579   0.243  14.564  0.4576  2.1595 -1.5417
18235TIP3   OH276195   6.704   2.966  14.916  0.3096 -0.2470  0.8309
18235TIP3    H176196   6.683   3.023  14.842 -0.8243  0.0628  1.3904
18235TIP3    H276197   6.738   3.026  14.983 -0.8868 -0.2132  1.4205
18236TIP3   OH276198   6.473   4.791   5.951  0.3271 -0.8161  0.3333
18236TIP3    H176199   6.499   4.782   6.043 -0.1539 -0.4784  0.5077
18236TIP3    H276200   6.532   4.858   5.916 -0.2164 -0.1339  0.6975
18237TIP3   OH276201   0.756   1.948   1.389  0.0871  0.1127  0.4067
18237TIP3    H176202   0.846   1.932   1.363  1.5746  2.4243  3.8166
18237TIP3    H276203   0.741   1.888   1.463 -1.0600 -0.0358  0.0659
18238TIP3   OH276204   5.838   2.647   2.559 -0.3485 -0.7053  0.4712
18238TIP3    H176205   5.815   2.682   2.473  0.7517 -1.7603 -0.2724
18238TIP3    H276206   5.836   2.723   2.618  1.9100  0.5981 -1.0885
18239TIP3   OH276207   0.891   5.223  17.142 -1.3863 -0.3488 -0.5552
18239TIP3    H176208   0.935   5.139  17.158 -0.9503  0.0355  0.3349
18239TIP3    H276209   0.933   5.283  17.204 -3.1040  0.0532  0.2503
18240TIP3   OH276210   1.689   3.428  11.163  0.7877  0.1925  0.5494
18240TIP3    H176211   1.648   3.488  11.100  1.1114 -1.1915 -1.0286
18240TIP3    H276212   1.756   3.382  11.112 -0.0429 -2.1371  1.4750
18241TIP3   OH276213   6.026   6.723  15.151 -0.1341  0.3023 -0.1410
18241TIP3    H176214   6.116   6.736  15.179 -1.1718 -0.5259  3.8458
18241TIP3    H276215   5.978   6.800  15.182 -1.0948  0.0095 -0.8466
18242TIP3   OH276216   1.006   0.741  16.393 -0.3989 -0.0872 -0.4577
18242TIP3    H176217   1.018   0.646  16.395  2.1692  0.2383  2.0627
18242TIP3    H276218   0.933   0.757  16.453  0.5711 -0.3154  0.8088
18243TIP3   OH276219   5.580   2.503  16.943 -0.5582 -0.6754 -0.0163
18243TIP3    H176220   5.519   2.448  16.993 -0.3012 -0.7298  0.2336
18243TIP3    H276221   5.612   2.567  17.006 -0.6749 -0.3846 -0.2523
18244TIP3   OH276222   5.919   6.147   5.730  0.2898 -0.2747 -0.2120
18244TIP3    H176223   6.000   6.159   5.680  1.5739 -1.5122  1.4843
18244TIP3    H276224   5.933   6.065   5.778 -1.6707 -0.1058  0.6898
18245TIP3   OH276225   0.445   5.971  14.851 -0.2746 -0.0733 -0.1518
18245TIP3    H176226   0.379   6.040  14.862 -0.0688 -0.3553  3.1318
18245TIP3    H276227   0.524   6.008  14.889  0.5475 -1.1222 -0.8350
18246TIP3   OH276228   5.584   1.387  17.177  0.4140  0.2017 -0.4944
18246TIP3    H176229   5.517   1.436  17.129  0.3279  1.2027  0.6191
18246TIP3    H276230   5.570   1.411  17.268  0.8858 -1.3090 -0.0180
18247TIP3   OH276231   2.191   3.801  12.901  0.0985 -0.3012  0.7876
18247TIP3    H176232   2.105   3.774  12.869  0.1206  0.5378  0.0035
18247TIP3    H276233   2.252   3.737  12.864  0.0971  0.5293 -0.7072
18248TIP3   OH276234   1.006   1.470   2.445  0.3048 -0.0758  0.3097
18248TIP3    H176235   0.918   1.483   2.480  0.4291 -1.3928  1.1444
18248TIP3    H276236   1.061   1.454   2.522  0.8479 -1.5561 -0.3571
18249TIP3   OH276237   1.183   1.978   5.627  0.0550  0.5338 -0.6543
18249TIP3    H176238   1.174   2.036   5.551  0.1401  0.7708 -0.4829
18249TIP3    H276239   1.228   2.031   5.693 -2.3091  1.1860  0.4933
18250TIP3   OH276240   1.877   0.440   3.439 -0.1434  0.3643 -0.1269
18250TIP3    H176241   1.965   0.417   3.467 -0.0485  2.3227  1.2735
18250TIP3    H276242   1.820   0.394   3.501 -0.0033  2.0311  1.2670
18251TIP3   OH276243   4.446   2.290  13.291  0.2483  0.2725 -0.1057
18251TIP3    H176244   4.428   2.210  13.341  1.6320  0.7695  1.2060
18251TIP3    H276245   4.372   2.347  13.311  0.4550  0.2112  0.8389
18252TIP3   OH276246   3.061   2.934  12.497 -0.2555  0.6865  0.0815
18252TIP3    H176247   3.144   2.916  12.452  0.8002  2.0202  1.4273
18252TIP3    H276248   3.048   2.858  12.554  0.1818  0.5945  0.0607
18253TIP3   OH276249   6.186   2.135  15.954 -0.1730  0.0715  0.1484
18253TIP3    H176250   6.092   2.124  15.961 -0.2782  1.6764  1.7402
18253TIP3    H276251   6.221   2.045  15.957 -1.6119 -0.5145 -0.2282
18254TIP3   OH276252   3.044   6.266   3.073 -0.3562  0.8961  0.2036
18254TIP3    H176253   3.006   6.217   3.000  0.0596 -1.0761  1.2484
18254TIP3    H276254   2.978   6.261   3.142 -0.6845  2.6220  0.0173
18255TIP3   OH276255   1.728   4.215  14.891 -0.7111  0.7666 -0.0418
18255TIP3    H176256   1.722   4.259  14.976 -4.7094 -1.6820  1.0255
18255TIP3    H276257   1.655   4.250  14.841 -2.0869 -2.2901 -0.2659
18256TIP3   OH276258   4.632   4.193   5.361  0.5514  0.9247 -0.3289
18256TIP3    H176259   4.727   4.201   5.370  0.6949 -0.0433 -0.8395
18256TIP3    H276260   4.604   4.154   5.444  0.9240 -1.0460 -1.0948
18257TIP3   OH276261   0.846   5.534   2.565 -0.3538  0.2365 -0.4629
18257TIP3    H176262   0.786   5.608   2.557  2.6047  2.6441 -1.5321
18257TIP3    H276263   0.918   5.555   2.506  1.1298 -2.9727  0.0838
18258TIP3   OH276264   6.396   1.911   2.893  0.0746  0.7580  0.0170
18258TIP3    H176265   6.306   1.894   2.866  0.9479 -2.0932 -1.3519
18258TIP3    H276266   6.393   1.910   2.989 -1.7288  3.1116  0.0265
18259TIP3   OH276267   0.527   1.501   5.616 -0.1460 -0.0551 -0.4944
18259TIP3    H176268   0.442   1.510   5.660  0.3365  0.5337  0.3199
18259TIP3    H276269   0.544   1.588   5.579  1.6454  0.7947  2.1675
18260TIP3   OH276270   3.326   0.963   4.901 -0.0888 -0.2549 -0.2172
18260TIP3    H176271   3.370   1.022   4.840  0.5403 -0.6737 -0.1794
18260TIP3    H276272   3.342   1.001   4.987 -0.4878  0.0294 -0.2711
18261TIP3   OH276273   6.589   2.212  13.047  0.2544 -0.2388  0.5783
18261TIP3    H176274   6.573   2.249  12.960 -0.9108 -0.0449  0.8707
18261TIP3    H276275   6.610   2.287  13.103  2.3569 -0.4949  0.1870
18262TIP3   OH276276   0.114   4.680   6.002 -0.8396 -0.3161  0.2844
18262TIP3    H176277   0.137   4.726   5.921  0.3354  0.4683  1.0558
18262TIP3    H276278   0.140   4.740   6.072  0.1631 -1.8926  1.2978
18263TIP3   OH276279   5.844   2.874   3.972  0.0054  0.4879  0.3913
18263TIP3    H176280   5.756   2.895   3.940 -1.3588 -1.6198  2.5539
18263TIP3    H276281   5.885   2.828   3.899 -1.0082  0.7324 -0.3514
18264TIP3   OH276282   4.429   2.948  11.579 -0.1541 -0.1694  0.1921
18264TIP3    H176283   4.473   2.941  11.664 -0.7685 -0.9186  0.4508
18264TIP3    H276284   4.501   2.960  11.517  0.4392 -1.4214  0.6080
18265TIP3   OH276285   2.160   2.356  17.166  0.2109 -0.2909  0.2303
18265TIP3    H176286   2.232   2.352  17.104  0.6819  0.9653  0.6890
18265TIP3    H276287   2.083   2.332  17.115  0.7685 -0.3813 -0.5685
18266TIP3   OH276288   6.728   4.273  14.499  0.5019  0.5382  0.3414
18266TIP3    H176289   6.809   4.271  14.552 -0.5372 -1.1045  1.9191
18266TIP3    H276290   6.720   4.184  14.465  1.7873  1.8514 -3.6917
18267TIP3   OH276291   6.139   6.158  16.723 -0.0650  0.0915 -0.1417
18267TIP3    H176292   6.160   6.249  16.700 -0.2689  0.6427  1.7760
18267TIP3    H276293   6.059   6.139  16.675 -1.3895  1.7672  1.3384
18268TIP3   OH276294   0.605   3.735   4.633 -0.6150 -0.2051 -0.0245
18268TIP3    H176295   0.688   3.694   4.610 -0.7382 -0.5729  0.1762
18268TIP3    H276296   0.625   3.828   4.642 -0.2482 -0.2806 -0.0785
18269TIP3   OH276297   4.618   3.270   1.079 -0.1193 -0.2753  0.2944
18269TIP3    H176298   4.557   3.201   1.106  0.6664 -0.7645  0.8096
18269TIP3    H276299   4.574   3.351   1.105 -0.1997 -0.6631  1.4011
18270TIP3   OH276300   4.933   6.002   5.700 -0.3833 -0.5961 -0.3545
18270TIP3    H176301   4.877   5.974   5.772 -0.8581 -2.3772 -1.3695
18270TIP3    H276302   5.020   5.968   5.722 -0.1844  0.2404  0.1487
18271TIP3   OH276303   3.896   4.836  14.004 -0.4149  0.2363 -0.6586
18271TIP3    H176304   3.823   4.801  13.953 -1.5942 -0.8201  1.7127
18271TIP3    H276305   3.959   4.764  14.009 -0.9133 -0.1309  0.5151
18272TIP3   OH276306   2.615   6.154   3.070 -0.2918  0.0522 -0.5063
18272TIP3    H176307   2.568   6.194   2.997 -1.0202  0.7466  0.3291
18272TIP3    H276308   2.551   6.097   3.112 -0.3798  0.9356  0.5879
18273TIP3   OH276309   3.731   6.434  16.983 -0.0200  0.1523 -0.4842
18273TIP3    H176310   3.732   6.512  17.039  0.5083  0.1746 -0.5268
18273TIP3    H276311   3.800   6.450  16.918  0.1251 -0.3764 -0.4592
18274TIP3   OH276312   4.431   0.429   3.913  0.2122  0.9184  0.2272
18274TIP3    H176313   4.510   0.469   3.949  0.2354  1.4594 -0.4098
18274TIP3    H276314   4.420   0.471   3.827 -1.4332  1.7257  0.8240
18275TIP3   OH276315   3.941   4.508   1.301 -0.8855 -0.2937  0.4827
18275TIP3    H176316   3.988   4.506   1.384 -0.1640  1.5269  0.1320
18275TIP3    H276317   3.957   4.422   1.262 -1.1605 -1.1344  2.1679
18276TIP3   OH276318   5.477   3.326   6.327 -0.7012  0.5945 -0.0564
18276TIP3    H176319   5.391   3.311   6.288  0.6488  1.2029 -3.4767
18276TIP3    H276320   5.466   3.403   6.382 -1.5663  2.8540 -3.2854
18277TIP3   OH276321   2.813   0.580  13.443  0.2436 -0.0083  0.6971
18277TIP3    H176322   2.845   0.549  13.527  1.7009 -2.1218 -0.5897
18277TIP3    H276323   2.728   0.536  13.431  0.1121  0.1689  0.9926
18278TIP3   OH276324   2.922   4.451  16.963 -0.1953 -0.0471  0.6175
18278TIP3    H176325   2.931   4.540  16.999 -2.3297  0.4448 -0.0105
18278TIP3    H276326   2.954   4.459  16.873 -0.6890  0.1536  0.4625
18279TIP3   OH276327   5.213   1.486   4.674 -0.4090 -0.2523  0.1330
18279TIP3    H176328   5.222   1.493   4.769 -2.1029  1.2894  0.2153
18279TIP3    H276329   5.270   1.554   4.639 -2.6892  1.7556  0.2193
18280TIP3   OH276330   3.501   0.028  11.717  0.0253 -0.6502 -0.2735
18280TIP3    H176331   3.440   0.056  11.649  1.4523  0.4432 -1.1322
18280TIP3    H276332   3.446  -0.016  11.782 -1.3124 -2.0487 -2.3088
18281TIP3   OH276333   5.751   2.272   1.290 -0.5321  0.5011  0.6117
18281TIP3    H176334   5.657   2.289   1.292 -0.2946  2.3166 -1.2987
18281TIP3    H276335   5.758   2.179   1.269 -1.8901  0.2470  1.2068
18282TIP3   OH276336   5.406   4.544  13.954 -0.2267 -0.1948  0.4060
18282TIP3    H176337   5.463   4.621  13.954  0.2152 -0.5210  0.0057
18282TIP3    H276338   5.317   4.580  13.957 -0.0148  0.3258  0.4796
18283TIP3   OH276339   4.104   2.973  14.740 -0.2227 -0.2493 -0.2293
18283TIP3    H176340   4.186   2.984  14.690  2.0789 -1.1341  3.1784
18283TIP3    H276341   4.093   3.055  14.787  0.7730 -1.4053  2.1328
18284TIP3   OH276342   0.334   5.124   2.994 -0.3544  0.1806  0.2316
18284TIP3    H176343   0.254   5.177   3.005 -0.1106  0.9308 -1.4345
18284TIP3    H276344   0.371   5.154   2.910  3.0708  1.6625  2.1734
18285TIP3   OH276345   0.795   6.435  11.479  0.1458 -0.1839 -0.0443
18285TIP3    H176346   0.731   6.493  11.438  0.2199 -0.8270 -1.0589
18285TIP3    H276347   0.877   6.485  11.476  0.3982 -0.6884 -1.7078
18286TIP3   OH276348   0.306   2.116  15.294  0.1588  0.6352 -0.7512
18286TIP3    H176349   0.224   2.129  15.342  0.3860  1.6715 -0.6346
18286TIP3    H276350   0.283   2.057  15.223 -0.6599  0.8076 -0.6385
18287TIP3   OH276351   0.526   5.619  13.615 -0.3409 -0.1245  0.2108
18287TIP3    H176352   0.443   5.577  13.591 -0.4173 -0.6118  1.3067
18287TIP3    H276353   0.576   5.550  13.659  0.5713  0.2264 -0.2611
18288TIP3   OH276354   1.073   6.455   0.168  0.0042  0.4137 -0.2390
18288TIP3    H176355   1.168   6.449   0.161 -0.0473  0.3631 -0.8702
18288TIP3    H276356   1.040   6.410   0.091 -0.5120  1.8188 -0.8546
18289TIP3   OH276357   2.412   3.081   1.646  0.2536  0.1605 -0.4279
18289TIP3    H176358   2.481   3.136   1.608  2.3556 -2.8519 -1.1957
18289TIP3    H276359   2.388   3.021   1.576 -1.5738 -0.2675  0.5486
18290TIP3   OH276360   4.386   0.692  10.935 -0.0769  0.2334  0.0947
18290TIP3    H176361   4.464   0.734  10.899 -0.2968  0.9735  0.4833
18290TIP3    H276362   4.314   0.751  10.912 -0.5692 -0.5963 -0.5341
18291TIP3   OH276363   3.742   0.564  14.089  0.6191  0.2683  0.3071
18291TIP3    H176364   3.764   0.604  14.005 -0.3873 -0.5660 -0.3858
18291TIP3    H276365   3.821   0.519  14.116 -0.1038 -2.6391 -2.0946
18292TIP3   OH276366   5.568   0.590   5.606 -0.6950  0.0753 -0.1386
18292TIP3    H176367   5.591   0.619   5.694 -0.6181  0.0044 -0.1358
18292TIP3    H276368   5.628   0.518   5.587  0.0384  0.8194 -0.6849
18293TIP3   OH276369   5.539   0.561  13.035  0.5029 -0.1501  0.2358
18293TIP3    H176370   5.463   0.619  13.028 -0.5604 -1.3443  1.4414
18293TIP3    H276371   5.538   0.532  13.126  2.3597 -0.2633  0.2324
18294TIP3   OH276372   3.433   3.771  15.753  0.3255 -0.4464  0.5073
18294TIP3    H176373   3.398   3.789  15.665 -1.1934 -1.3736  0.9028
18294TIP3    H276374   3.432   3.676  15.760  2.1137 -0.4567  0.8880
18295TIP3   OH276375   3.978   6.495  11.407 -0.5679 -0.3839  0.0263
18295TIP3    H176376   4.018   6.461  11.327 -0.4369  0.7575 -0.4027
18295TIP3    H276377   4.041   6.473  11.476  0.8130  1.3869 -0.6428
18296TIP3   OH276378   0.128   6.045  12.467 -0.3570  0.0190 -0.5633
18296TIP3    H176379   0.120   5.972  12.528 -0.1697 -0.4390 -1.0860
18296TIP3    H276380   0.190   6.015  12.400 -1.2459  0.1766 -1.4776
18297TIP3   OH276381   4.500   1.035  16.601 -0.2830  0.0772  0.5663
18297TIP3    H176382   4.596   1.035  16.608 -0.0763  1.9347 -1.5569
18297TIP3    H276383   4.481   0.974  16.529 -0.5295  1.1971 -0.3395
18298TIP3   OH276384   3.430   6.073  14.605 -0.7634  0.5899 -0.2100
18298TIP3    H176385   3.516   6.087  14.565 -0.6393  0.1575 -0.1044
18298TIP3    H276386   3.450   6.043  14.694 -0.9885 -1.3980 -0.8141
18299TIP3   OH276387   6.493   6.772  13.204 -0.0501  0.6885  0.3835
18299TIP3    H176388   6.524   6.863  13.200  1.3982  0.1580 -1.0721
18299TIP3    H276389   6.536   6.735  13.281 -2.0727  1.7266  2.0461
18300TIP3   OH276390   3.207   3.072   5.340 -0.4519  0.7845 -0.5850
18300TIP3    H176391   3.146   3.033   5.403  0.6690  0.0812  0.0814
18300TIP3    H276392   3.253   3.139   5.389  1.8828 -1.1485 -0.0420
18301TIP3   OH276393   0.365   0.036  15.101 -0.2695  0.1603  0.1785
18301TIP3    H176394   0.399   0.074  15.020 -2.5571 -1.9592 -1.8766
18301TIP3    H276395   0.323   0.110  15.146  2.7221  1.7643  0.4340
18302TIP3   OH276396   4.777   2.478  15.157 -0.6758  0.0837 -0.5396
18302TIP3    H176397   4.694   2.526  15.161 -0.6789 -0.0323  0.8896
18302TIP3    H276398   4.752   2.386  15.157 -0.6146  0.0566 -1.9854
18303TIP3   OH276399   6.090   4.736  14.424  0.4115  0.0740 -0.2955
18303TIP3    H176400   6.099   4.675  14.497  1.6188 -0.0755 -0.5607
18303TIP3    H276401   6.159   4.801  14.438  0.1563  0.4774 -0.8834
18304TIP3   OH276402   4.189   6.011  17.190 -0.0906 -0.2994 -0.7558
18304TIP3    H176403   4.284   6.001  17.196 -0.1888 -1.4727 -1.1608
18304TIP3    H276404   4.154   5.956  17.259 -0.3785  2.5675  1.4824
18305TIP3   OH276405   2.447   1.179  12.349 -0.1289 -0.1881  0.0351
18305TIP3    H176406   2.376   1.117  12.366 -1.2176  0.8395 -0.7250
18305TIP3    H276407   2.419   1.227  12.272  1.0112  0.8020  0.2318
18306TIP3   OH276408   2.721   3.193   5.343  0.4755  0.4493  0.2830
18306TIP3    H176409   2.658   3.239   5.287  0.8515  1.3004  0.5573
18306TIP3    H276410   2.775   3.143   5.282  0.1982  0.5283 -0.0313
18307TIP3   OH276411   4.522   1.789  15.351  0.2223 -0.0762  0.1780
18307TIP3    H176412   4.437   1.819  15.317  0.6255 -1.5664 -2.2400
18307TIP3    H276413   4.504   1.764  15.442 -1.6356  0.8507  0.0928
18308TIP3   OH276414   4.440   2.357   2.866 -0.2390 -0.9075 -0.5030
18308TIP3    H176415   4.377   2.424   2.888  0.6201  0.4057 -1.9273
18308TIP3    H276416   4.492   2.345   2.946 -1.1802 -0.7666  0.1333
18309TIP3   OH276417   2.748   5.152  15.973  0.4410 -0.1467 -0.0370
18309TIP3    H176418   2.824   5.208  15.989  1.5493 -2.3598  2.8088
18309TIP3    H276419   2.674   5.204  16.005  0.9775  1.2056 -0.9416
18310TIP3   OH276420   3.460   2.900  10.560 -0.0894  0.1340  0.1319
18310TIP3    H176421   3.548   2.925  10.533 -0.1730  0.2617 -0.0207
18310TIP3    H276422   3.413   2.883  10.478 -0.0585 -0.4399  0.2289
18311TIP3   OH276423   3.135   3.392   1.115  0.0324 -0.1009 -0.2793
18311TIP3    H176424   3.106   3.477   1.148  0.4374 -0.5624  1.2548
18311TIP3    H276425   3.227   3.386   1.139  0.3084 -0.4899 -1.3935
18312TIP3   OH276426   2.009   2.593   0.633  0.4158  0.3586 -0.5623
18312TIP3    H176427   1.924   2.628   0.660  0.1714  0.0038 -0.8719
18312TIP3    H276428   2.033   2.642   0.555 -0.9849 -1.6889 -2.3261
18313TIP3   OH276429   3.014   6.156   3.584  0.2084 -0.0927  0.4917
18313TIP3    H176430   2.953   6.083   3.595  1.1013 -0.6928  1.4251
18313TIP3    H276431   2.957   6.233   3.578 -0.6889 -0.7424  0.5018
18314TIP3   OH276432   2.451   0.759   2.444 -0.2554  0.0340  0.3298
18314TIP3    H176433   2.538   0.785   2.412  0.0922  1.6477  2.5055
18314TIP3    H276434   2.453   0.663   2.443  0.7295  0.0552 -1.7749
18315TIP3   OH276435   4.724   1.508  17.056 -0.7816 -0.9368 -0.3615
18315TIP3    H176436   4.732   1.583  17.115 -0.3433 -1.3547  0.1311
18315TIP3    H276437   4.745   1.543  16.970  1.1541 -0.8516  0.1196
18316TIP3   OH276438   2.648   1.847   5.842 -0.2794  0.1226 -0.5141
18316TIP3    H176439   2.683   1.927   5.881 -0.4774  0.0642 -0.2185
18316TIP3    H276440   2.553   1.852   5.857 -0.3338 -0.0051 -0.7918
18317TIP3   OH276441   3.506   3.445   4.691 -0.4637 -0.5966  0.1990
18317TIP3    H176442   3.437   3.490   4.643 -0.6480  0.1278  1.1335
18317TIP3    H276443   3.581   3.504   4.687  0.2709 -1.5772 -1.1985
18318TIP3   OH276444   1.636   3.132   3.151 -0.6961 -0.2530  0.4898
18318TIP3    H176445   1.625   3.079   3.230 -1.8396 -0.3419  0.2712
18318TIP3    H276446   1.689   3.206   3.179  0.4259 -1.2042  0.9344
18319TIP3   OH276447   2.454   0.534   5.803  0.4915  0.2607 -0.0487
18319TIP3    H176448   2.470   0.616   5.850  0.1544  0.8809 -0.9958
18319TIP3    H276449   2.541   0.503   5.778  0.7800 -0.7992  2.1730
18320TIP3   OH276450   2.661   2.895  16.197  0.3477  0.1550  0.1626
18320TIP3    H176451   2.731   2.879  16.133  1.1260 -1.2397  1.3554
18320TIP3    H276452   2.706   2.926  16.275 -0.3505 -0.8279  0.9665
18321TIP3   OH276453   3.791   3.805   4.463  0.7135 -0.0586 -0.1028
18321TIP3    H176454   3.741   3.806   4.381 -1.4307  1.4597  1.1790
18321TIP3    H276455   3.869   3.857   4.444 -1.4090  3.2451 -0.2472
18322TIP3   OH276456   6.095   3.980  12.301  0.4893  0.0267 -0.3889
18322TIP3    H176457   6.156   4.020  12.363  0.6534 -0.3276 -0.3262
18322TIP3    H276458   6.008   4.001  12.337  0.5902 -0.9153  0.4344
18323TIP3   OH276459   2.750   6.569   2.286  0.1005 -0.3055 -0.3068
18323TIP3    H176460   2.834   6.568   2.240  0.0945 -2.8852 -0.3722
18323TIP3    H276461   2.773   6.587   2.377  0.8393 -1.6168 -0.2109
18324TIP3   OH276462   1.886   0.298   3.824  0.4507  0.6182 -0.1947
18324TIP3    H176463   1.808   0.247   3.844 -0.1377  2.6282  3.1936
18324TIP3    H276464   1.957   0.234   3.823 -0.6924 -0.7011  0.7417
18325TIP3   OH276465   3.817   3.656  15.570 -0.7159 -0.5695  0.1567
18325TIP3    H176466   3.795   3.747  15.590  1.4725 -0.0935  0.4906
18325TIP3    H276467   3.750   3.605  15.614 -0.2068  0.7607  2.5380
18326TIP3   OH276468   1.658   4.534   2.948 -0.0478  0.3588 -0.2944
18326TIP3    H176469   1.632   4.608   2.892 -1.3552  0.6389  0.6590
18326TIP3    H276470   1.699   4.574   3.024 -1.9030  0.1774  0.8211
18327TIP3   OH276471   2.503   2.651  10.579 -0.0356 -0.0491  0.1916
18327TIP3    H176472   2.503   2.637  10.674  0.8124 -1.7566 -0.0360
18327TIP3    H276473   2.549   2.575  10.544 -1.5390 -0.1304 -1.6855
18328TIP3   OH276474   5.501   3.076   2.873 -0.2657 -0.6905  0.0478
18328TIP3    H176475   5.499   3.011   2.943  1.6285  0.0878  0.8502
18328TIP3    H276476   5.415   3.119   2.878 -0.9990 -2.1538  0.4029
18329TIP3   OH276477   2.972   4.962   4.731  0.0598  0.3193  0.3157
18329TIP3    H176478   2.940   5.034   4.784 -0.8036  0.7767 -0.8137
18329TIP3    H276479   3.064   4.951   4.758 -0.5059  0.2152  2.2188
18330TIP3   OH276480   2.019   6.619  15.959 -0.1483  0.9060 -0.6411
18330TIP3    H176481   2.086   6.681  15.932  1.5253 -1.1406 -1.3325
18330TIP3    H276482   2.011   6.632  16.054  1.6253  0.8169 -0.4652
18331TIP3   OH276483   4.962   0.630  10.656  0.4296  0.4446 -0.4332
18331TIP3    H176484   4.905   0.665  10.587  0.7350 -0.7622 -1.3196
18331TIP3    H276485   4.917   0.550  10.686  0.5171  0.7297  0.4645
18332TIP3   OH276486   6.796   3.039   5.580 -0.0924 -0.7008 -0.4120
18332TIP3    H176487   6.790   3.028   5.485  0.3260 -0.9552 -0.4106
18332TIP3    H276488   6.772   2.954   5.616  0.1179 -0.7157 -0.3041
18333TIP3   OH276489   0.341   5.223   0.795  0.0390 -0.3498 -0.0766
18333TIP3    H176490   0.397   5.207   0.872  0.1766 -0.2450 -0.1556
18333TIP3    H276491   0.346   5.141   0.745 -0.2944 -0.5298  0.1814
18334TIP3   OH276492   3.805   6.483   0.490  0.2027 -0.0264  0.0784
18334TIP3    H176493   3.881   6.534   0.459 -1.4021  0.5552 -3.1010
18334TIP3    H276494   3.766   6.448   0.410 -1.6804 -2.0711  1.8457
18335TIP3   OH276495   0.892   0.713   0.610  0.2608 -0.3829  0.4820
18335TIP3    H176496   0.877   0.766   0.532  0.5844 -1.3232 -0.2190
18335TIP3    H276497   0.982   0.682   0.601 -0.7250 -3.0658 -0.3242
18336TIP3   OH276498   2.468   1.790  12.424  0.2835  0.3520 -0.1784
18336TIP3    H176499   2.393   1.745  12.386  0.5167  0.0869 -0.3213
18336TIP3    H276500   2.429   1.854  12.484 -0.0482  0.0541 -0.0770
18337TIP3   OH276501   6.774   0.330   1.690  0.5156  0.6866 -0.0258
18337TIP3    H176502   6.832   0.270   1.736 -2.2478 -1.5531  0.7211
18337TIP3    H276503   6.730   0.379   1.760  1.0777  1.9799 -0.5604
18338TIP3   OH276504   0.179   1.247   5.799 -0.2704 -0.1876 -0.4055
18338TIP3    H176505   0.272   1.232   5.816  0.1411  0.3622 -2.0915
18338TIP3    H276506   0.155   1.181   5.734 -0.3982  1.3106 -1.9245
18339TIP3   OH276507   0.823   1.812   2.428  0.1125 -0.3769  0.2787
18339TIP3    H176508   0.753   1.872   2.453  0.6434  1.2049 -1.8855
18339TIP3    H276509   0.893   1.829   2.491  0.0574  0.9371  0.0047
18340TIP3   OH276510   1.496   6.388   3.647 -0.1369  0.5052  0.6484
18340TIP3    H176511   1.555   6.312   3.641  0.0139  0.6501  0.2150
18340TIP3    H276512   1.554   6.464   3.638 -0.5117  0.6261 -0.8993
18341TIP3   OH276513   5.683   2.988   3.153  0.5043  0.2613 -0.5331
18341TIP3    H176514   5.602   2.942   3.176  0.8558 -1.6615 -2.9589
18341TIP3    H276515   5.656   3.080   3.145 -0.6300  0.2344  2.3646
18342TIP3   OH276516   4.412   4.084  13.253  0.9770 -0.4497 -0.4103
18342TIP3    H176517   4.474   4.149  13.286 -0.0751  0.2610  0.2297
18342TIP3    H276518   4.332   4.134  13.238  0.6973 -1.2720 -1.6485
18343TIP3   OH276519   2.306   0.301   2.438 -0.4229  0.7547 -0.3891
18343TIP3    H176520   2.263   0.247   2.371 -0.4596 -1.7963  1.6151
18343TIP3    H276521   2.272   0.268   2.521  2.8358  1.0037  1.1101
18344TIP3   OH276522   0.888   4.850   6.227  0.1899  0.3669  0.3715
18344TIP3    H176523   0.859   4.815   6.143  0.2925  0.7507  0.1791
18344TIP3    H276524   0.969   4.897   6.207 -0.7179  1.9613  0.3872
18345TIP3   OH276525   1.225   5.861  12.304 -0.1723 -0.1270  0.0970
18345TIP3    H176526   1.198   5.858  12.396  0.6995  0.7360  0.3918
18345TIP3    H276527   1.285   5.787  12.295  0.3419  0.2429  0.4290
18346TIP3   OH276528   3.338   4.015   1.040 -0.5744 -0.2832 -0.0889
18346TIP3    H176529   3.286   4.080   1.087  0.3285 -0.0491  0.5933
18346TIP3    H276530   3.384   4.065   0.973 -0.4948 -0.3481 -0.0826
18347TIP3   OH276531   5.747   5.374  15.472 -0.1594 -0.1850  0.6389
18347TIP3    H176532   5.805   5.443  15.504 -0.0138  0.4813 -1.0234
18347TIP3    H276533   5.670   5.420  15.439 -0.9219 -0.9559  1.3489
18348TIP3   OH276534   0.901   4.321   3.176 -0.5615 -0.0598  0.3441
18348TIP3    H176535   0.994   4.334   3.193  0.1466 -1.8697 -1.9022
18348TIP3    H276536   0.861   4.406   3.195  1.7661  1.1904 -0.1777
18349TIP3   OH276537   3.518   6.224  12.878 -0.2745 -0.2855 -0.0652
18349TIP3    H176538   3.486   6.185  12.797  1.0344 -1.0147 -0.2442
18349TIP3    H276539   3.477   6.172  12.947 -0.2376 -0.5906 -0.2730
18350TIP3   OH276540   3.576   2.467  11.002  0.0843 -0.0691  0.0850
18350TIP3    H176541   3.625   2.501  10.927 -2.2102  2.9843 -0.1295
18350TIP3    H276542   3.573   2.373  10.988  1.2861  0.2485 -2.6813
18351TIP3   OH276543   3.219   0.674  14.858  0.1360 -0.0123 -0.0780
18351TIP3    H176544   3.209   0.629  14.942 -0.7799  0.6566  0.1885
18351TIP3    H276545   3.157   0.747  14.863 -1.3768 -1.1031 -2.1259
18352TIP3   OH276546   6.682   4.932   3.574 -0.0206 -0.6700  0.5292
18352TIP3    H176547   6.728   4.849   3.579  0.8048 -0.1506  2.0749
18352TIP3    H276548   6.746   4.994   3.539 -0.6995 -0.7116 -0.8358
18353TIP3   OH276549   3.218   5.435  14.491  0.1301  0.2071 -0.0346
18353TIP3    H176550   3.262   5.471  14.414 -1.4256 -1.4141 -1.7534
18353TIP3    H276551   3.219   5.340  14.477 -3.4076  0.0725  0.0738
18354TIP3   OH276552   0.898   2.101  15.478  0.2384 -0.1752  0.1678
18354TIP3    H176553   0.841   2.105  15.555 -1.1728 -0.9790 -0.8114
18354TIP3    H276554   0.955   2.177  15.487 -2.2547  1.7547  0.2090
18355TIP3   OH276555   0.150   1.795  16.122 -0.9687  0.0139  0.1700
18355TIP3    H176556   0.233   1.830  16.153 -0.8181  0.0525 -0.2685
18355TIP3    H276557   0.171   1.707  16.092 -1.1110 -0.0212  0.1725
18356TIP3   OH276558   3.028   3.712   3.101  0.2424  0.0134  0.0251
18356TIP3    H176559   2.980   3.663   3.034 -0.3805 -1.9355  1.8412
18356TIP3    H276560   3.117   3.677   3.097  0.1172 -0.3577  0.4460
18357TIP3   OH276561   6.556   2.362  11.202  0.3341  0.5982  0.3068
18357TIP3    H176562   6.486   2.399  11.257 -0.0808 -1.5468  1.2696
18357TIP3    H276563   6.536   2.269  11.198  2.3456  0.1941 -0.6194
18358TIP3   OH276564   6.622   3.831  15.098  0.4358 -0.0507  0.1725
18358TIP3    H176565   6.593   3.841  15.007 -1.2259  0.9337  0.7886
18358TIP3    H276566   6.579   3.903  15.145  1.3462 -0.4964  1.7178
18359TIP3   OH276567   6.341   2.834  14.714 -0.3369 -0.0819  0.3207
18359TIP3    H176568   6.350   2.859  14.622  0.5515  1.9027  0.9107
18359TIP3    H276569   6.300   2.910  14.756 -1.6259 -1.3400  1.3984
18360TIP3   OH276570   5.668   0.819  15.559 -0.4064  0.0706 -0.5359
18360TIP3    H176571   5.679   0.739  15.509 -1.5331 -0.3200 -0.1682
18360TIP3    H276572   5.684   0.889  15.496  1.2502 -0.4332 -0.7013
18361TIP3   OH276573   5.759   4.981   4.833 -0.8151 -0.2027  0.2497
18361TIP3    H176574   5.797   4.934   4.907  0.9220  1.3145  0.3619
18361TIP3    H276575   5.762   5.073   4.859  0.2295  0.3896 -1.8595
18362TIP3   OH276576   1.352   4.981  14.403  0.4465 -0.3303  0.1094
18362TIP3    H176577   1.322   4.903  14.356 -0.0279  0.2398 -0.5511
18362TIP3    H276578   1.287   4.994  14.472 -0.0531  0.0849 -0.4360
18363TIP3   OH276579   2.109   0.478  16.641  0.1857  0.1256 -0.1431
18363TIP3    H176580   2.109   0.556  16.697  0.8277  0.0477 -0.0273
18363TIP3    H276581   2.136   0.407  16.699  3.3410  0.4645 -1.0836
18364TIP3   OH276582   0.144   2.512   4.996  0.3095 -0.0840 -0.1635
18364TIP3    H176583   0.049   2.522   5.010  0.2211  2.1621 -2.0431
18364TIP3    H276584   0.183   2.564   5.066  0.2233 -2.1247  1.4507
18365TIP3   OH276585   2.895   4.109   5.037  0.4065 -0.2238 -0.0718
18365TIP3    H176586   2.945   4.142   4.963  1.3604  1.5336  1.3049
18365TIP3    H276587   2.960   4.063   5.091 -0.0807 -0.6666  0.1382
18366TIP3   OH276588   0.707   2.700  16.086 -0.6124 -0.7116  0.4652
18366TIP3    H176589   0.647   2.697  16.160 -1.3374 -1.6553 -0.1511
18366TIP3    H276590   0.654   2.729  16.012  0.7767  3.3164  0.9191
18367TIP3   OH276591   1.508   2.038   5.617  0.0857 -0.1963 -0.5818
18367TIP3    H176592   1.460   2.056   5.698  0.0967  0.3314 -0.6927
18367TIP3    H276593   1.461   2.086   5.549  0.3665 -0.2344 -0.8069
18368TIP3   OH276594   1.022   2.601  12.786 -0.3024  0.0246 -0.0636
18368TIP3    H176595   1.049   2.671  12.845  0.8447 -0.1049 -0.4180
18368TIP3    H276596   0.999   2.646  12.705  0.9099 -0.0212 -0.4558
18369TIP3   OH276597   2.700   1.549   2.913 -0.3131  0.1583  0.5422
18369TIP3    H176598   2.778   1.536   2.858 -0.2561 -0.5563  0.7800
18369TIP3    H276599   2.701   1.642   2.935 -0.7160  0.6011 -1.2295
18370TIP3   OH276600   1.338   0.269  13.762  0.3372  0.3665  0.0594
18370TIP3    H176601   1.243   0.263  13.751  0.1872  2.5909 -0.0744
18370TIP3    H276602   1.358   0.360  13.742  2.6971 -0.4311 -1.3773
18371TIP3   OH276603   2.927   3.220  13.373  0.1734  0.4034 -0.0449
18371TIP3    H176604   2.947   3.299  13.424 -1.4259  1.0533 -0.3796
18371TIP3    H276605   2.970   3.234  13.289 -0.3740  1.0893 -0.2226
18372TIP3   OH276606   6.560   1.693  11.186 -0.3666  0.2828  0.1400
18372TIP3    H176607   6.557   1.718  11.094  0.1917  1.1878  0.3549
18372TIP3    H276608   6.620   1.757  11.226 -0.6211 -0.0863  1.1267
18373TIP3   OH276609   0.774   4.376  15.885 -0.2082 -0.1739 -0.0179
18373TIP3    H176610   0.726   4.384  15.803  0.5743 -0.9179 -0.5529
18373TIP3    H276611   0.851   4.432  15.872  0.6525 -1.4183 -0.3431
18374TIP3   OH276612   2.479   1.816   6.131 -0.0167 -0.4520  0.2042
18374TIP3    H176613   2.453   1.907   6.117  1.1575  0.2580  2.5110
18374TIP3    H276614   2.401   1.773   6.166 -1.0932 -0.7871 -2.4685
18375TIP3   OH276615   6.503   0.201  13.089 -0.8136 -0.2512 -0.3871
18375TIP3    H176616   6.597   0.220  13.085 -0.4771 -0.9134  2.8325
18375TIP3    H276617   6.467   0.238  13.009  1.7626  2.6378 -0.2781
18376TIP3   OH276618   1.027   1.427   4.174  0.2628  0.3608  0.1945
18376TIP3    H176619   1.086   1.480   4.227 -0.0354  0.3321  0.5660
18376TIP3    H276620   1.042   1.455   4.084 -0.6505  1.8213  0.4857
18377TIP3   OH276621   6.370   0.035   0.903  0.8860 -0.3274 -0.6156
18377TIP3    H176622   6.414   0.064   0.823 -0.0341 -0.6698 -1.2465
18377TIP3    H276623   6.392   0.103   0.967  1.2501  0.1917 -1.2754
18378TIP3   OH276624   6.475   0.129   3.376 -0.3690  0.0347  0.6182
18378TIP3    H176625   6.487   0.038   3.351 -0.1201  0.3841 -0.5937
18378TIP3    H276626   6.559   0.171   3.353 -1.1396  0.9399 -0.6505
18379TIP3   OH276627   2.156   1.786  12.553 -0.3177 -0.3655  0.4649
18379TIP3    H176628   2.065   1.786  12.581 -0.5067 -0.2192 -0.1460
18379TIP3    H276629   2.178   1.878  12.542 -0.1087 -0.4019  0.5807
18380TIP3   OH276630   3.823   5.778  12.411 -0.2082 -0.5407 -0.8030
18380TIP3    H176631   3.860   5.752  12.495  1.4078 -0.4453 -1.4618
18380TIP3    H276632   3.766   5.706  12.386 -1.1554 -0.3015  0.6409
18381TIP3   OH276633   4.385   2.708  16.884 -0.1880 -0.2817  0.3739
18381TIP3    H176634   4.320   2.752  16.829  1.0252  0.5358 -0.4303
18381TIP3    H276635   4.366   2.615  16.874 -2.7215 -0.0225  2.0029
18382TIP3   OH276636   2.510   5.103  17.203 -0.0196 -0.5566  0.0601
18382TIP3    H176637   2.583   5.049  17.234  0.6115  0.4245  0.3118
18382TIP3    H276638   2.519   5.103  17.108  2.4555  2.4377  0.2057
18383TIP3   OH276639   6.132   1.266   5.033  0.7277 -0.5421  0.2970
18383TIP3    H176640   6.100   1.215   5.107 -0.5106 -0.8761 -0.4478
18383TIP3    H276641   6.223   1.240   5.023  0.4452 -1.7042  0.6991
18384TIP3   OH276642   0.710   5.694   1.428 -0.3552 -0.3564  0.0727
18384TIP3    H176643   0.686   5.751   1.354 -1.8119 -0.2504  0.6086
18384TIP3    H276644   0.691   5.606   1.398 -1.4282 -0.2786  0.4617
18385TIP3   OH276645   4.298   2.541  16.060 -0.2156 -0.3189  0.3032
18385TIP3    H176646   4.238   2.566  16.129  2.5154  0.9300  2.3049
18385TIP3    H276647   4.304   2.445  16.066  0.0451 -0.2139  1.8663
18386TIP3   OH276648   0.396   2.227   5.627 -0.5089 -0.1332 -0.1263
18386TIP3    H176649   0.468   2.164   5.634  0.1365  0.3129 -2.4784
18386TIP3    H276650   0.322   2.174   5.599 -0.4796 -0.1785 -0.1182
18387TIP3   OH276651   2.903   2.746  11.972  0.1793  0.1538  0.6112
18387TIP3    H176652   2.975   2.808  11.987 -0.1245  0.7535 -0.3924
18387TIP3    H276653   2.877   2.719  12.060  0.8618  0.8155  1.0319
18388TIP3   OH276654   5.886   1.931   3.738 -0.4317  0.1528 -0.0769
18388TIP3    H176655   5.820   2.000   3.745 -1.6104 -1.0303  0.6751
18388TIP3    H276656   5.946   1.947   3.811  0.4013  1.4967 -1.0284
18389TIP3   OH276657   5.695   1.943   0.448 -0.3111 -0.5038 -0.6497
18389TIP3    H176658   5.694   1.978   0.358  0.4108 -0.6779 -0.7285
18389TIP3    H276659   5.645   1.862   0.442 -3.2896  1.2228 -0.1608
18390TIP3   OH276660   0.579   3.539  14.672 -0.4240 -0.4047  0.2270
18390TIP3    H176661   0.593   3.493  14.589  0.0042  1.9384 -1.0361
18390TIP3    H276662   0.648   3.505  14.729  0.8454 -0.2395 -1.1589
18391TIP3   OH276663   2.343   5.200  10.669 -0.1990 -0.2093  0.4625
18391TIP3    H176664   2.318   5.109  10.655 -1.1082  0.0983  0.0533
18391TIP3    H276665   2.269   5.239  10.715  0.7947 -0.0270  1.9402
18392TIP3   OH276666   0.971   4.559  15.810  0.2594  0.3546  0.4171
18392TIP3    H176667   1.055   4.527  15.778  0.8821  1.3447  1.0381
18392TIP3    H276668   0.991   4.643  15.851 -1.1614  0.9556 -0.1012
18393TIP3   OH276669   3.471   4.442  12.996 -0.6587  0.4757  0.1318
18393TIP3    H176670   3.432   4.524  13.028 -2.2828 -0.6297  1.0734
18393TIP3    H276671   3.467   4.383  13.071  1.5173 -0.1530 -0.2026
18394TIP3   OH276672   1.917   6.222   3.776 -0.2179 -0.3540 -0.2830
18394TIP3    H176673   1.930   6.191   3.865 -1.4678 -0.5575 -0.1698
18394TIP3    H276674   1.963   6.306   3.773 -0.3582 -0.2422  0.6143
18395TIP3   OH276675   6.225   3.692   3.466  0.6152  0.3461  0.2124
18395TIP3    H176676   6.301   3.642   3.495  0.1579 -0.9033 -0.7407
18395TIP3    H276677   6.242   3.781   3.497  0.8699 -0.6213  2.9749
18396TIP3   OH276678   2.760   0.939   0.323  0.6404 -0.0953 -0.1226
18396TIP3    H176679   2.726   0.884   0.394 -1.7690 -2.3656 -2.8780
18396TIP3    H276680   2.838   0.893   0.292  0.1706 -0.5169 -0.6768
18397TIP3   OH276681   3.970   1.576  15.521 -0.0388  0.3663 -0.2011
18397TIP3    H176682   3.875   1.586  15.517 -0.3813 -3.0331 -3.8305
18397TIP3    H276683   4.003   1.631  15.450  0.5785  0.3516  0.0708
18398TIP3   OH276684   2.699   6.781  12.979 -0.4141  0.1384 -0.0893
18398TIP3    H176685   2.657   6.743  12.902 -0.9550  0.4228  0.0637
18398TIP3    H276686   2.645   6.857  13.000  1.1499  1.5143 -0.9144
18399TIP3   OH276687   3.159   0.674   3.089  0.0214  0.5625  0.0178
18399TIP3    H176688   3.128   0.593   3.129  0.4598  0.4943  0.2221
18399TIP3    H276689   3.152   0.740   3.158  0.9992  0.3941  0.2812
18400TIP3   OH276690   5.455   3.566  10.927 -0.3354  0.9260  0.1575
18400TIP3    H176691   5.380   3.507  10.916 -0.3210  0.8126  0.6240
18400TIP3    H276692   5.518   3.514  10.978 -0.3125  1.3326  0.5498
18401TIP3   OH276693   3.792   5.083  13.955 -0.3928  0.1579  0.1399
18401TIP3    H176694   3.821   4.995  13.978  3.0693  0.7807 -1.5355
18401TIP3    H276695   3.759   5.074  13.866 -1.5865  0.2702  0.5581
18402TIP3   OH276696   2.941   1.328   5.587 -0.1320 -1.0020 -0.4905
18402TIP3    H176697   2.867   1.268   5.584 -1.6847  0.6857  1.8424
18402TIP3    H276698   3.014   1.274   5.618 -1.2866 -1.9119  0.7172
18403TIP3   OH276699   0.659   3.857   0.774 -0.0432 -0.2956 -1.1351
18403TIP3    H176700   0.742   3.880   0.733  0.4439  0.4598  0.2494
18403TIP3    H276701   0.671   3.878   0.867 -1.2204 -1.7326 -0.6383
18404TIP3   OH276702   2.796   0.909  12.652 -0.3031  0.5402 -0.0722
18404TIP3    H176703   2.775   0.816  12.643 -1.4105  0.5198  2.4845
18404TIP3    H276704   2.715   0.954  12.628 -0.0450  0.8145 -0.4287
18405TIP3   OH276705   4.557   4.984   4.674  0.0430  0.4073  0.1683
18405TIP3    H176706   4.478   5.037   4.665 -0.3531 -0.2905 -0.4386
18405TIP3    H276707   4.585   4.999   4.765 -1.9380 -0.9622  1.0352
18406TIP3   OH276708   4.646   4.397  15.012  1.0163  0.1429 -0.0128
18406TIP3    H176709   4.636   4.302  15.016  1.4584  0.0673 -0.6773
18406TIP3    H276710   4.557   4.431  15.007  0.7239 -0.1166  2.6568
18407TIP3   OH276711   5.191   4.820  10.801 -0.8744  0.0339  0.4955
18407TIP3    H176712   5.116   4.760  10.808 -1.1737  0.7549  4.9738
18407TIP3    H276713   5.261   4.776  10.849 -0.0842  1.8319  1.0123
18408TIP3   OH276714   1.922   6.031   3.081  0.1441  0.1094  0.2512
18408TIP3    H176715   1.845   6.009   3.030  0.3543 -0.6778  0.2621
18408TIP3    H276716   1.943   5.950   3.128  1.8093 -0.1306 -0.8463
18409TIP3   OH276717   2.690   4.802   2.159 -0.3368 -0.3815 -0.2148
18409TIP3    H176718   2.620   4.843   2.109 -0.1683 -0.8447 -0.8415
18409TIP3    H276719   2.671   4.823   2.250 -0.5968  0.5452 -0.4842
18410TIP3   OH276720   0.827   2.618  16.372  0.4224  0.1498 -0.3298
18410TIP3    H176721   0.797   2.708  16.369 -0.6848 -0.2130 -0.5800
18410TIP3    H276722   0.832   2.591  16.280  0.2926 -0.1881 -0.2392
18411TIP3   OH276723   2.896   4.813   4.299 -0.0711  0.1117 -0.2044
18411TIP3    H176724   2.948   4.762   4.361  0.5413 -0.9729 -1.5985
18411TIP3    H276725   2.890   4.900   4.339 -0.5417 -0.8232  1.8694
18412TIP3   OH276726   0.246   6.000   4.878  0.2771  0.1804 -0.0018
18412TIP3    H176727   0.168   6.054   4.885 -0.1135 -0.1940 -1.3549
18412TIP3    H276728   0.264   5.972   4.967 -1.4602 -0.1896  0.2498
18413TIP3   OH276729   1.293   1.446   4.669 -0.5184 -0.1526  0.1565
18413TIP3    H176730   1.264   1.384   4.603 -0.9122  1.1790 -0.9543
18413TIP3    H276731   1.250   1.528   4.645  2.2066  1.2681 -0.1130
18414TIP3   OH276732   5.130   3.425   0.542 -0.7915 -0.0432  0.0906
18414TIP3    H176733   5.098   3.404   0.454 -0.6922  0.7036 -0.1278
18414TIP3    H276734   5.211   3.375   0.550 -1.1564 -0.6457  0.0178
18415TIP3   OH276735   5.395   4.617  16.800  0.3572 -0.6083 -0.2564
18415TIP3    H176736   5.300   4.623  16.795  0.4213  0.3738 -0.5411
18415TIP3    H276737   5.425   4.631  16.710  0.7591 -1.0551 -0.1936
18416TIP3   OH276738   5.793   2.201  14.980  0.2006  0.3879  0.7212
18416TIP3    H176739   5.850   2.141  14.933  0.9026  2.7785 -1.5918
18416TIP3    H276740   5.730   2.144  15.025  0.7678 -2.0460 -1.4590
18417TIP3   OH276741   0.365   4.355   1.164  0.6516  0.0521 -0.2610
18417TIP3    H176742   0.351   4.436   1.116 -0.2327 -0.0116 -0.1131
18417TIP3    H276743   0.404   4.382   1.247 -2.8020  0.6615  1.2453
18418TIP3   OH276744   3.794   4.748   0.705 -0.1463 -0.0047  0.0420
18418TIP3    H176745   3.861   4.810   0.730 -0.2130  0.6949 -1.4486
18418TIP3    H276746   3.712   4.798   0.707 -0.1604  0.0555 -1.4394
18419TIP3   OH276747   2.393   0.237   3.635 -0.5715 -0.4041 -0.0980
18419TIP3    H176748   2.440   0.167   3.680 -1.2998 -0.9779 -0.2358
18419TIP3    H276749   2.409   0.315   3.689 -0.8458 -0.9390  0.7605
18420TIP3   OH276750   6.794   4.415  15.217 -0.5178  0.1543  0.6144
18420TIP3    H176751   6.838   4.447  15.138 -0.0465 -0.4852  0.6129
18420TIP3    H276752   6.731   4.350  15.184 -0.2468 -0.1916  0.7685
18421TIP3   OH276753   0.348   6.572  16.545 -0.2385  0.0285  0.0356
18421TIP3    H176754   0.358   6.591  16.638  0.0521  0.6193 -0.1161
18421TIP3    H276755   0.416   6.625  16.502 -1.5433  1.1426 -0.6746
18422TIP3   OH276756   0.397   5.563  14.914  0.0510  0.1099  0.1436
18422TIP3    H176757   0.491   5.566  14.934  0.0676 -0.8168  0.2304
18422TIP3    H276758   0.371   5.473  14.936 -0.6274  0.0432 -0.9099
18423TIP3   OH276759   5.660   4.309  11.883  0.1890  0.1446  0.2387
18423TIP3    H176760   5.703   4.355  11.811 -0.0449 -0.9576 -0.6219
18423TIP3    H276761   5.569   4.336  11.877 -0.2077 -1.3561 -1.0592
18424TIP3   OH276762   1.562   1.550  12.897  0.1897 -0.1907 -0.3602
18424TIP3    H176763   1.480   1.542  12.944  0.3299 -0.1754 -0.1159
18424TIP3    H276764   1.552   1.629  12.844 -1.5622 -2.4116 -3.4962
18425TIP3   OH276765   4.056   1.467   2.913  0.8864  0.1162 -0.2444
18425TIP3    H176766   4.031   1.428   2.829  0.2814  0.8591 -0.4155
18425TIP3    H276767   4.012   1.412   2.978  0.9832 -0.1847 -0.4336
18426TIP3   OH276768   5.063   2.544   2.519  0.1516  0.0677  0.0635
18426TIP3    H176769   5.133   2.536   2.584  1.2765 -1.9307 -1.3241
18426TIP3    H276770   4.987   2.503   2.561  0.7777 -0.9165  0.2487
18427TIP3   OH276771   1.513   3.239  11.465 -0.2064 -0.2338  0.0613
18427TIP3    H176772   1.464   3.321  11.474 -2.5963 -1.5961  0.0708
18427TIP3    H276773   1.554   3.244  11.379  0.7017  1.4797  0.5705
18428TIP3   OH276774   6.330   1.930  15.757  0.2834  0.0791  0.5365
18428TIP3    H176775   6.360   1.842  15.779 -0.0976 -0.5272 -1.2230
18428TIP3    H276776   6.401   1.987  15.785 -0.1075 -0.6217  3.0835
18429TIP3   OH276777   6.507   3.502  15.119 -1.1508 -0.4711 -0.6064
18429TIP3    H176778   6.458   3.425  15.148  0.9559 -2.0986 -1.2721
18429TIP3    H276779   6.440   3.570  15.109 -2.8177 -1.7064  1.6202
18430TIP3   OH276780   4.833   6.425  10.992  0.3161  0.0510  0.1965
18430TIP3    H176781   4.772   6.418  10.918 -0.1742  1.6294  0.4411
18430TIP3    H276782   4.890   6.498  10.969  1.3808 -0.6629  0.5291
18431TIP3   OH276783   5.780   1.686  10.242  1.0121 -0.4442 -0.1770
18431TIP3    H176784   5.742   1.620  10.301  1.3916 -0.7901 -0.3111
18431TIP3    H276785   5.834   1.741  10.299 -1.6237  1.5712  0.4256
18432TIP3   OH276786   1.895   2.051  14.307  0.1619  0.8050  0.4666
18432TIP3    H176787   1.904   1.963  14.342 -1.1726 -0.1797 -1.5452
18432TIP3    H276788   1.945   2.050  14.225 -0.8905  1.5110 -0.1978
18433TIP3   OH276789   6.597   6.570   3.453  0.0977  0.0506  0.2814
18433TIP3    H176790   6.600   6.476   3.471  1.5171  0.3602  1.7969
18433TIP3    H276791   6.508   6.596   3.477  0.0686 -0.6814  1.0094
18434TIP3   OH276792   4.706   2.635  12.479  0.5578 -0.0576  0.4594
18434TIP3    H176793   4.623   2.675  12.505  1.5644  1.0608  2.0690
18434TIP3    H276794   4.697   2.543  12.505 -1.0821 -0.5038 -1.6121
18435TIP3   OH276795   3.404   6.475  14.973  0.1656 -0.2572  0.0425
18435TIP3    H176796   3.444   6.557  14.945 -0.8374  0.4112  0.5312
18435TIP3    H276797   3.310   6.492  14.970 -0.0965 -1.7319 -0.8973
18436TIP3   OH276798   1.267   3.631  13.913 -0.4880  0.3166  0.0417
18436TIP3    H176799   1.320   3.558  13.946 -0.8954  0.0981  0.2241
18436TIP3    H276800   1.329   3.688  13.869  0.1849  0.9866  1.8276
18437TIP3   OH276801   2.034   3.585   4.933  0.2589  0.2561  0.5583
18437TIP3    H176802   2.013   3.570   4.841 -1.7168 -1.2870  1.2219
18437TIP3    H276803   2.000   3.673   4.951 -1.3516 -0.3211  0.3760
18438TIP3   OH276804   2.771   4.400  13.358 -0.0163 -0.0664 -0.4960
18438TIP3    H176805   2.798   4.475  13.306  0.6854 -0.9325 -1.4154
18438TIP3    H276806   2.675   4.406  13.361 -0.2196 -0.8689 -3.3020
18439TIP3   OH276807   0.129   3.041  15.151 -0.1730  0.4304  0.2572
18439TIP3    H176808   0.148   2.950  15.127 -0.0550  0.6550 -0.4901
18439TIP3    H276809   0.215   3.080  15.168 -0.2564  0.2653  1.0731
18440TIP3   OH276810   6.187   0.386  12.107 -0.6410  0.8162  0.2468
18440TIP3    H176811   6.201   0.452  12.039  1.2187  0.1294 -0.0529
18440TIP3    H276812   6.124   0.325  12.067  0.3718  0.4629 -0.8631
18441TIP3   OH276813   0.459   1.628  12.603  0.4945 -0.3429  0.6807
18441TIP3    H176814   0.554   1.644  12.599  0.3796  0.9634  2.5675
18441TIP3    H276815   0.436   1.648  12.694 -1.8358  0.6694 -0.1127
18442TIP3   OH276816   5.185   6.406   1.968 -0.3158 -0.5189  0.2481
18442TIP3    H176817   5.267   6.377   2.008 -0.6949 -2.3833 -0.2725
18442TIP3    H276818   5.125   6.332   1.979 -1.2700  0.0001 -1.2684
18443TIP3   OH276819   2.893   3.581   5.173  0.7271 -0.2658  0.3998
18443TIP3    H176820   2.982   3.559   5.145  0.6920 -0.1499  0.1893
18443TIP3    H276821   2.874   3.520   5.244  0.1938 -1.6918 -0.9440
18444TIP3   OH276822   3.988   6.481  14.000 -0.1161 -0.5826 -0.0764
18444TIP3    H176823   3.908   6.436  14.027 -0.2060  0.3329  1.1924
18444TIP3    H276824   4.024   6.425  13.931 -1.2879 -1.5503  0.0735
18445TIP3   OH276825   1.929   5.602   0.583  0.3211  0.6723  0.4560
18445TIP3    H176826   1.880   5.524   0.561 -1.8347  2.3082 -0.7513
18445TIP3    H276827   2.020   5.580   0.561 -0.3189 -1.3002 -0.3361
18446TIP3   OH276828   4.594   1.755  11.204 -0.0022  0.2385 -0.1579
18446TIP3    H176829   4.680   1.783  11.235 -1.7096  0.9137  4.4814
18446TIP3    H276830   4.590   1.662  11.225 -0.2103  0.0652 -0.9399
18447TIP3   OH276831   1.488   4.806  14.852  0.2734  0.0396 -0.2391
18447TIP3    H176832   1.412   4.749  14.841  0.2293 -0.0482  0.4549
18447TIP3    H276833   1.451   4.890  14.881  0.4224  0.0646 -0.1179
18448TIP3   OH276834   5.200   4.750  17.008  0.0381  0.5814 -0.2249
18448TIP3    H176835   5.224   4.841  17.022  0.7233  0.3471  0.1350
18448TIP3    H276836   5.202   4.739  16.913  0.8405  0.7035 -0.2217
18449TIP3   OH276837   0.744   1.539  12.035 -0.4935 -0.2738 -0.4392
18449TIP3    H176838   0.737   1.490  11.953  1.3430  2.4549 -2.2796
18449TIP3    H276839   0.654   1.568  12.053 -0.9766 -1.2255 -1.2258
18450TIP3   OH276840   3.756   1.320  15.097 -0.5844  0.3715 -0.2248
18450TIP3    H176841   3.831   1.331  15.039 -1.1343  0.6770 -0.8799
18450TIP3    H276842   3.682   1.359  15.050 -1.0883  0.3879  0.5592
18451TIP3   OH276843   1.790   0.899   3.187 -0.1818  0.1470 -0.2104
18451TIP3    H176844   1.699   0.901   3.216  0.2191  0.8373  1.0159
18451TIP3    H276845   1.814   0.807   3.189 -1.0691 -0.1268 -1.2659
18452TIP3   OH276846   2.496   0.139   5.789 -0.3467  0.0846  0.4587
18452TIP3    H176847   2.583   0.114   5.757 -1.1731 -1.6990 -0.4554
18452TIP3    H276848   2.513   0.179   5.874  1.5828  1.8715 -0.7027
18453TIP3   OH276849   0.289   1.670  11.924  0.0833 -0.2523  0.1388
18453TIP3    H176850   0.326   1.732  11.861 -1.7548 -0.0066 -0.7199
18453TIP3    H276851   0.364   1.642  11.976  1.0553  2.1878  0.1170
18454TIP3   OH276852   1.353   5.643   4.200  0.1142 -0.0485  0.6185
18454TIP3    H176853   1.422   5.605   4.254 -2.0590  0.3039  3.7515
18454TIP3    H276854   1.385   5.731   4.179  2.7011 -1.5222 -2.0564
18455TIP3   OH276855   1.341   1.566  13.083  0.6381 -0.2003 -0.2123
18455TIP3    H176856   1.293   1.642  13.117  0.0684  0.1129 -1.6673
18455TIP3    H276857   1.383   1.528  13.160 -0.0914  0.8588  0.7337
18456TIP3   OH276858   2.429   1.811  13.470 -0.1033  0.0773  0.5884
18456TIP3    H176859   2.361   1.744  13.479 -0.9257  0.7990 -0.2596
18456TIP3    H276860   2.434   1.852  13.557 -1.0391  0.3018  0.5344
18457TIP3   OH276861   5.004   2.997  16.483  0.3909 -0.7493  0.5185
18457TIP3    H176862   5.057   2.980  16.561  0.6335 -1.1104  0.2750
18457TIP3    H276863   4.914   3.001  16.516  0.6568  0.8090  1.0749
18458TIP3   OH276864   2.671   1.870   0.863  0.1800 -0.3029 -0.2424
18458TIP3    H176865   2.637   1.925   0.793 -3.7456  1.6745  3.0023
18458TIP3    H276866   2.607   1.799   0.871  2.5252 -2.5895 -0.9955
18459TIP3   OH276867   6.373   0.583  15.982 -0.4565 -0.5679 -0.1798
18459TIP3    H176868   6.408   0.671  15.967 -0.5644 -0.4793  0.0818
18459TIP3    H276869   6.438   0.541  16.038  1.1574 -1.7199 -2.7944
18460TIP3   OH276870   3.850   4.229   2.411  0.2255  0.0542  0.0605
18460TIP3    H176871   3.799   4.238   2.491 -1.3942  1.2755 -1.0542
18460TIP3    H276872   3.858   4.319   2.377  1.1803 -0.3976 -0.9651
18461TIP3   OH276873   6.659   0.931  10.998 -0.1945 -0.1498 -0.4192
18461TIP3    H176874   6.647   0.869  11.070 -0.1607  0.8025  0.4012
18461TIP3    H276875   6.740   0.902  10.955  0.4352  0.0195  0.6584
18462TIP3   OH276876   4.325   4.870   4.863 -0.3960 -0.2915 -0.1762
18462TIP3    H176877   4.293   4.807   4.926  0.3232 -0.9177 -0.4315
18462TIP3    H276878   4.369   4.818   4.796  0.5325  0.4962 -0.1975
18463TIP3   OH276879   1.527   0.503   5.552  0.2748  0.3098  0.1969
18463TIP3    H176880   1.603   0.458   5.589  0.1672 -0.0152  0.0274
18463TIP3    H276881   1.550   0.518   5.461  1.0005  2.1333  0.6729
18464TIP3   OH276882   3.592   1.818  17.183  0.2092 -0.4130  0.0677
18464TIP3    H176883   3.605   1.804  17.089  0.9874 -1.1293  0.2719
18464TIP3    H276884   3.585   1.912  17.193 -0.2038 -0.3488 -0.7503
18465TIP3   OH276885   1.012   3.397  15.070 -0.0657 -0.1842 -0.3716
18465TIP3    H176886   1.039   3.441  14.990 -0.2823 -0.5476 -0.6439
18465TIP3    H276887   1.078   3.328  15.083  1.0395  1.0542  0.7765
18466TIP3   OH276888   0.937   4.091   1.846 -0.6036  0.0043 -0.2934
18466TIP3    H176889   0.961   4.000   1.863 -1.9478 -0.1132  1.0648
18466TIP3    H276890   0.969   4.139   1.923 -1.0150  0.4859 -0.4206
18467TIP3   OH276891   1.772   5.395  15.972 -0.5065  0.6524 -0.4971
18467TIP3    H176892   1.719   5.402  16.051  1.4338  2.9824  0.6724
18467TIP3    H276893   1.711   5.405  15.899 -1.8089  2.0794  0.7898
18468TIP3   OH276894   3.221   3.347   4.366  0.1871  0.2613  0.1060
18468TIP3    H176895   3.270   3.328   4.446  0.7219 -0.3880 -0.3753
18468TIP3    H276896   3.280   3.323   4.295  0.9301  3.7345 -0.5591
18469TIP3   OH276897   2.035   1.193   4.838 -0.6883  0.3067 -0.0786
18469TIP3    H176898   1.965   1.232   4.891  0.2335  0.8269  0.7825
18469TIP3    H276899   1.994   1.118   4.796 -1.7266  0.5135  0.5282
18470TIP3   OH276900   6.224   6.376   4.079 -0.2497  0.7015  0.2238
18470TIP3    H176901   6.175   6.321   4.018 -0.1787  1.9490 -1.0039
18470TIP3    H276902   6.283   6.315   4.125  0.9767 -0.0542 -2.2485
18471TIP3   OH276903   6.581   6.095   1.750  0.3195 -0.0481 -0.0557
18471TIP3    H176904   6.504   6.146   1.727 -0.4418 -1.3316 -0.3995
18471TIP3    H276905   6.655   6.147   1.718 -0.4320  0.8336 -0.3768
18472TIP3   OH276906   5.479   5.834  12.066 -0.0194  0.7096  0.3623
18472TIP3    H176907   5.420   5.820  12.140  1.6795 -0.3525  1.5388
18472TIP3    H276908   5.518   5.749  12.050 -1.3614  0.5938 -2.6735
18473TIP3   OH276909   1.944   3.833  15.586 -0.1448  0.1782  0.3144
18473TIP3    H176910   1.969   3.923  15.566  0.3066  0.3614  1.6318
18473TIP3    H276911   1.948   3.828  15.681  3.8075 -2.3545  0.1315
18474TIP3   OH276912   6.095   0.872   6.764 -0.4998 -0.8009  0.1943
18474TIP3    H176913   6.090   0.778   6.744  0.6994 -0.7986 -0.1534
18474TIP3    H276914   6.089   0.915   6.679  0.7025 -0.6324  0.1937
18475TIP3   OH276915   1.307   3.297   3.306  0.5531  0.3417 -0.3059
18475TIP3    H176916   1.238   3.298   3.372  1.7008  1.0698  0.9228
18475TIP3    H276917   1.382   3.336   3.351  2.1430 -1.6210 -1.1982
18476TIP3   OH276918   5.122   5.736  15.845  0.4596  0.3589 -0.3750
18476TIP3    H176919   5.119   5.822  15.804  0.2067 -0.2198 -1.6060
18476TIP3    H276920   5.092   5.676  15.776  1.7111 -0.8431  0.1070
18477TIP3   OH276921   4.914   6.063   4.841 -0.4358 -0.2807  0.0739
18477TIP3    H176922   4.973   6.064   4.766 -1.2660  2.3538 -0.6099
18477TIP3    H276923   4.895   5.970   4.856  0.7711 -0.9140 -2.1403
18478TIP3   OH276924   4.316   1.778  15.551 -0.3990  0.1120 -0.7686
18478TIP3    H176925   4.341   1.851  15.607  0.0992 -0.2570 -0.5040
18478TIP3    H276926   4.356   1.701  15.593 -1.3160 -0.3765 -0.7708
18479TIP3   OH276927   5.877   6.678  16.823  0.0095 -0.1426  0.2310
18479TIP3    H176928   5.877   6.717  16.911  0.2442  0.9513 -0.2380
18479TIP3    H276929   5.784   6.675  16.798 -0.0621 -0.5074  0.5404
18480TIP3   OH276930   1.657   0.870  14.554 -0.2520  0.0545  0.9152
18480TIP3    H176931   1.663   0.966  14.558 -0.8591  0.2341 -1.5231
18480TIP3    H276932   1.603   0.853  14.477  0.5796 -2.2829  0.8165
18481TIP3   OH276933   0.698   0.842   1.844  0.2379  0.3238 -0.0125
18481TIP3    H176934   0.608   0.852   1.813 -0.1299  0.2619  1.0147
18481TIP3    H276935   0.724   0.755   1.815 -0.4071 -0.0764  0.5957
18482TIP3   OH276936   4.802   2.606  14.280 -0.3394 -1.0841 -0.2680
18482TIP3    H176937   4.774   2.691  14.315  2.5107 -0.9308  1.8054
18482TIP3    H276938   4.769   2.542  14.342  1.2458 -1.1235  0.5624
18483TIP3   OH276939   0.265   6.122  13.163 -0.6694 -0.6139  0.0597
18483TIP3    H176940   0.210   6.190  13.125  1.3777  0.7457 -0.5575
18483TIP3    H276941   0.297   6.160  13.245  2.7387  0.3452 -1.6353
18484TIP3   OH276942   0.210   4.723  14.483  0.3728  0.0471 -0.4716
18484TIP3    H176943   0.223   4.812  14.516 -1.3370 -0.3593  1.3741
18484TIP3    H276944   0.130   4.728  14.431 -0.5074 -0.7051  0.7999
18485TIP3   OH276945   3.751   6.003  16.690  0.2289  0.0979 -0.5190
18485TIP3    H176946   3.716   6.086  16.658 -0.4400 -0.2879 -0.7997
18485TIP3    H276947   3.831   6.027  16.736 -0.0071  0.9075 -0.5231
18486TIP3   OH276948   4.133   1.394   6.086 -0.2915  0.2301  0.3354
18486TIP3    H176949   4.193   1.467   6.102 -0.4814  0.7271 -1.1344
18486TIP3    H276950   4.100   1.371   6.173  3.2020 -1.1075  1.3987
18487TIP3   OH276951   0.066   3.982   1.955  0.1286  0.3221  0.5788
18487TIP3    H176952   0.140   3.937   1.995  3.6324  1.5113 -4.1578
18487TIP3    H276953   0.065   4.068   1.997 -1.2601 -1.0645  3.5603
18488TIP3   OH276954   2.641   2.203   1.576 -0.4139  0.3851  0.2057
18488TIP3    H176955   2.707   2.268   1.602 -2.1016  2.1870  0.1397
18488TIP3    H276956   2.625   2.152   1.655  1.0750 -0.0907  0.2126
18489TIP3   OH276957   1.657   1.227  13.450  0.0843 -0.1289  0.0084
18489TIP3    H176958   1.653   1.182  13.365  1.1034 -1.1265  0.4791
18489TIP3    H276959   1.571   1.210  13.489 -0.9173  1.5132 -1.3887
18490TIP3   OH276960   6.078   6.047  14.865  0.5361 -1.0685 -0.3097
18490TIP3    H176961   6.014   5.980  14.890 -1.9168  0.3743 -2.4062
18490TIP3    H276962   6.148   5.998  14.821 -0.4868 -2.4415 -0.4655
18491TIP3   OH276963   2.951   0.349   6.566 -0.0692  0.2271  0.1714
18491TIP3    H176964   3.031   0.356   6.618  1.9013 -1.2083 -2.4758
18491TIP3    H276965   2.907   0.271   6.599  0.5427  0.0255  0.5146
18492TIP3   OH276966   2.616   5.532   2.938  0.4913 -0.4749 -0.1293
18492TIP3    H176967   2.665   5.613   2.926  0.6250 -0.3233  1.3023
18492TIP3    H276968   2.530   5.560   2.969 -0.0655 -0.8066 -1.3321
18493TIP3   OH276969   0.274   5.449   1.333  0.1118 -0.3636  0.3028
18493TIP3    H176970   0.219   5.372   1.317  0.0158 -0.4186  0.8797
18493TIP3    H276971   0.213   5.515   1.364  0.2676 -0.2034  0.2658
18494TIP3   OH276972   3.073   4.998   3.615  0.1458  0.2571 -0.6853
18494TIP3    H176973   3.100   5.061   3.548  0.2542 -0.2977 -1.1651
18494TIP3    H276974   2.981   4.981   3.596  0.1002  0.3172 -0.5166
18495TIP3   OH276975   4.514   6.021   4.177 -0.2125  0.2736  0.0810
18495TIP3    H176976   4.467   5.963   4.237  0.3071  0.4746  0.6967
18495TIP3    H276977   4.538   5.966   4.103 -1.5923  0.2208 -0.3252
18496TIP3   OH276978   4.498   6.453  17.259 -0.5943  0.0952 -0.0370
18496TIP3    H176979   4.506   6.369  17.306  1.6991 -0.7733 -1.8780
18496TIP3    H276980   4.496   6.519  17.328 -0.7326 -1.3783  1.3964
18497TIP3   OH276981   3.796   4.953   5.982 -0.2873 -0.2240 -1.0030
18497TIP3    H176982   3.800   4.970   6.076 -3.0380  2.4520 -1.2954
18497TIP3    H276983   3.885   4.968   5.950  0.6068 -0.8974  1.0835
18498TIP3   OH276984   1.387   4.128   1.017 -0.3851  0.1060 -0.2893
18498TIP3    H176985   1.478   4.123   1.047 -0.5717 -0.9828  0.1161
18498TIP3    H276986   1.344   4.053   1.058 -1.7523  1.2861  0.4798
18499TIP3   OH276987   1.227   5.735   2.480 -0.7082 -0.5627  0.4864
18499TIP3    H176988   1.212   5.830   2.476 -3.0651 -0.7445  3.3930
18499TIP3    H276989   1.253   5.719   2.570  0.3780 -2.6062 -0.1727
18500TIP3   OH276990   2.992   0.034   6.522 -0.9103  0.3090  0.1253
18500TIP3    H176991   2.942  -0.032   6.473 -0.2920  0.2461 -0.4172
18500TIP3    H276992   2.928   0.070   6.584 -1.0779 -1.3019  0.9294
18501TIP3   OH276993   1.841   4.072  17.288 -1.0275 -0.0302 -0.1211
18501TIP3    H176994   1.824   3.978  17.287 -0.9327 -0.0641  1.4717
18501TIP3    H276995   1.936   4.080  17.297 -1.1504  0.2285  0.9369
18502TIP3   OH276996   6.452   0.586   5.521 -0.4570  0.2871 -0.0766
18502TIP3    H176997   6.511   0.530   5.472  1.3020  0.2220  2.0489
18502TIP3    H276998   6.493   0.672   5.520 -1.1347  0.6206  0.0502
18503TIP3   OH276999   0.455   3.980  12.884  0.1207  0.3477 -0.6618
18503TIP3    H177000   0.381   3.939  12.840 -1.6045  0.6931  1.8123
18503TIP3    H277001   0.432   4.073  12.888  0.1478  0.2861  1.1321
18504TIP3   OH277002   2.833   4.830  16.087  0.0530 -0.2074  0.0848
18504TIP3    H177003   2.875   4.761  16.036  2.3233 -0.4063  2.1170
18504TIP3    H277004   2.852   4.910  16.038  1.6349 -0.4744  0.2324
18505TIP3   OH277005   3.253   5.640  15.624 -0.5777  0.3455  0.0082
18505TIP3    H177006   3.344   5.656  15.646 -0.4476 -0.3650  0.0054
18505TIP3    H277007   3.204   5.663  15.703 -0.2509 -0.7339  0.5292
18506TIP3   OH277008   1.315   1.021  11.096 -0.0441 -0.1813 -0.4169
18506TIP3    H177009   1.319   1.117  11.089 -2.2378  0.0048  0.4215
18506TIP3    H277010   1.395   0.998  11.143  0.0519  1.3607  0.2444
18507TIP3   OH277011   1.583   1.500  13.863 -0.4162 -0.0467  0.0521
18507TIP3    H177012   1.556   1.591  13.879  1.2786  0.6026 -0.6409
18507TIP3    H277013   1.627   1.503  13.779 -0.0988 -1.4738  0.1624
18508TIP3   OH277014   3.930   1.749  13.354 -0.5528  0.1348  0.2425
18508TIP3    H177015   4.011   1.798  13.340 -0.1094 -0.4336  0.8391
18508TIP3    H277016   3.892   1.786  13.434 -2.0484  1.9646 -1.2628
18509TIP3   OH277017   4.662   4.862   0.920  0.2762  0.2262 -0.9465
18509TIP3    H177018   4.743   4.886   0.876  0.4239  1.2750 -0.1263
18509TIP3    H277019   4.639   4.939   0.972  1.1188 -1.5704  2.2678
18510TIP3   OH277020   3.216   5.387  12.529  0.1774  0.2099 -0.1043
18510TIP3    H177021   3.191   5.397  12.621  1.1497  0.0838  0.1882
18510TIP3    H277022   3.212   5.475  12.492  1.3910  0.5376  0.4996
18511TIP3   OH277023   5.808   4.405   5.435  0.3222 -0.6969  0.0068
18511TIP3    H177024   5.871   4.411   5.363  0.7976 -0.9279  0.4021
18511TIP3    H277025   5.791   4.312   5.444  0.1678 -0.6585  0.1146
18512TIP3   OH277026   1.711   4.352  12.117  0.0432 -0.3715  0.4620
18512TIP3    H177027   1.782   4.289  12.129 -0.0794 -0.4533  0.7672
18512TIP3    H277028   1.634   4.298  12.096 -0.7177 -0.5479  3.4855
18513TIP3   OH277029   1.442   5.413  16.557 -0.6519  0.0797  0.8236
18513TIP3    H177030   1.375   5.392  16.493  1.2825  0.4172 -1.3881
18513TIP3    H277031   1.514   5.354  16.537  0.6136  1.3183  1.6089
18514TIP3   OH277032   0.733   4.959   5.040 -0.0278  0.0580 -0.4489
18514TIP3    H177033   0.826   4.983   5.039  0.2201 -0.9075 -0.5277
18514TIP3    H277034   0.729   4.881   5.096 -0.8724  0.4330  0.0270
18515TIP3   OH277035   4.516   5.468   3.134 -0.0331 -0.2059  0.0729
18515TIP3    H177036   4.504   5.482   3.040  1.0990  1.2079  0.1217
18515TIP3    H277037   4.432   5.433   3.164  0.0542 -2.0591 -1.7114
18516TIP3   OH277038   1.035   4.613   4.057 -0.1937 -0.0720 -0.1533
18516TIP3    H177039   0.950   4.569   4.047 -0.2948  0.3154 -0.9704
18516TIP3    H277040   1.096   4.542   4.078 -0.7045 -0.3578  0.3894
18517TIP3   OH277041   3.501   2.962   2.778  0.4941 -0.3186  0.3465
18517TIP3    H177042   3.437   2.891   2.775 -0.2273  0.3169  0.4121
18517TIP3    H277043   3.456   3.036   2.737  2.0315 -0.5209 -1.7590
18518TIP3   OH277044   4.263   1.422   5.406  0.4305  0.2504 -0.7262
18518TIP3    H177045   4.225   1.376   5.331  0.3719 -1.6947  0.4538
18518TIP3    H277046   4.353   1.391   5.410  0.6565  0.9322 -0.4629
18519TIP3   OH277047   1.074   5.826   5.757 -0.0631 -0.6218 -0.0509
18519TIP3    H177048   1.127   5.749   5.778 -0.1115 -1.0120 -1.3429
18519TIP3    H277049   0.989   5.791   5.733 -0.3293 -0.1100  0.1345
18520TIP3   OH277050   2.803   5.204  14.255 -1.1877 -0.1599 -0.7680
18520TIP3    H177051   2.846   5.191  14.339 -0.6634  1.1295 -0.8381
18520TIP3    H277052   2.847   5.143  14.195  0.5712  1.1708 -0.8499
18521TIP3   OH277053   4.871   3.357  11.823  0.1531  0.0019 -0.4578
18521TIP3    H177054   4.830   3.363  11.737 -0.8873  1.4504  0.1220
18521TIP3    H277055   4.951   3.408  11.816 -0.0100  0.2476 -0.5350
18522TIP3   OH277056   1.271   3.078  13.551 -0.3253 -0.5634 -0.3737
18522TIP3    H177057   1.366   3.083  13.559 -0.4186  1.3605 -0.2609
18522TIP3    H277058   1.256   3.069  13.457 -0.0606 -0.2860 -0.4436
18523TIP3   OH277059   1.624   5.623   1.753 -0.5345 -0.5117  0.1595
18523TIP3    H177060   1.548   5.661   1.710 -0.0239 -0.7350 -0.9563
18523TIP3    H277061   1.601   5.531   1.767 -1.1450 -0.1833  1.4186
18524TIP3   OH277062   3.311   0.286   4.174  0.0088 -0.0104  0.3019
18524TIP3    H177063   3.353   0.202   4.192  0.5806 -0.2522 -1.9704
18524TIP3    H277064   3.384   0.348   4.166 -0.2480  0.1702 -0.6595
18525TIP3   OH277065   6.462   1.105   1.431  0.1357  0.3811 -0.5185
18525TIP3    H177066   6.476   1.144   1.345  0.7246  0.4301 -0.3995
18525TIP3    H277067   6.547   1.108   1.474 -0.2306  0.6987  0.2089
18526TIP3   OH277068   4.455   1.484  17.051 -0.0654 -0.4844  0.4073
18526TIP3    H177069   4.442   1.398  17.012 -0.7855 -1.1094  1.9624
18526TIP3    H277070   4.538   1.477  17.099  0.9065  0.3314 -1.1216
18527TIP3   OH277071   5.315   0.766   5.267 -0.5627  0.3211 -0.2358
18527TIP3    H177072   5.319   0.743   5.174  2.2947 -1.2054  0.1808
18527TIP3    H277073   5.225   0.745   5.293 -1.0293 -0.4835 -2.3649
18528TIP3   OH277074   1.740   0.236   4.274  0.9308  0.3208  0.1260
18528TIP3    H177075   1.665   0.200   4.321  0.3369  0.3711 -0.7774
18528TIP3    H277076   1.730   0.204   4.184  1.9943  0.3231  0.0070
18529TIP3   OH277077   4.795   4.022   2.464  0.2974 -0.2382  0.5322
18529TIP3    H177078   4.727   3.964   2.429  0.4621  1.1970 -2.3288
18529TIP3    H277079   4.748   4.082   2.523 -1.2669  1.6867 -2.5365
18530TIP3   OH277080   3.221   1.361   1.090 -0.8978  0.3237 -0.2876
18530TIP3    H177081   3.250   1.308   1.164 -0.2597 -2.0736 -2.1680
18530TIP3    H277082   3.128   1.342   1.080 -0.4038 -1.4381 -1.7134
18531TIP3   OH277083   1.889   0.189  16.305 -0.0209  0.0556 -0.2498
18531TIP3    H177084   1.877   0.095  16.311 -0.9982  0.2605  1.1805
18531TIP3    H277085   1.909   0.217  16.394 -0.3781  1.2977 -0.5405
18532TIP3   OH277086   4.684   0.148  15.457  0.0445  0.6762 -0.0718
18532TIP3    H177087   4.606   0.168  15.406 -0.2815 -1.7978 -0.6104
18532TIP3    H277088   4.747   0.217  15.432 -1.0625  1.1375 -1.6735
18533TIP3   OH277089   1.517   1.348   1.141 -0.0170  0.3243  0.3947
18533TIP3    H177090   1.429   1.361   1.175 -0.3804  0.0938 -0.4398
18533TIP3    H277091   1.530   1.253   1.144  0.6055  0.4358  1.4948
18534TIP3   OH277092   1.724   3.728   1.222  0.1036 -0.3154 -0.4650
18534TIP3    H177093   1.731   3.652   1.280 -0.3500  1.0366  1.3794
18534TIP3    H277094   1.732   3.804   1.279  1.2495  1.0672 -2.3692
18535TIP3   OH277095   6.110   5.864  16.331 -0.3331 -0.3171 -0.5363
18535TIP3    H177096   6.129   5.958  16.324 -1.5216  0.1949  2.2294
18535TIP3    H277097   6.172   5.823  16.271  1.7704  2.0904 -0.1159
18536TIP3   OH277098   1.484   5.808   1.015  0.0805 -0.0083  0.1675
18536TIP3    H177099   1.566   5.826   1.062  0.7487 -0.6034 -0.7591
18536TIP3    H277100   1.511   5.782   0.927 -0.9067 -3.3777  0.7722
18537TIP3   OH277101   3.391   6.301   1.471 -0.4022 -0.2029 -0.2508
18537TIP3    H177102   3.422   6.366   1.534 -0.4565 -1.7695  1.4335
18537TIP3    H277103   3.471   6.259   1.438 -0.3589  0.7963 -1.4389
18538TIP3   OH277104   2.738   0.520  16.808  0.6715 -0.3770 -0.1651
18538TIP3    H177105   2.764   0.524  16.900  0.6379 -0.6313 -0.1465
18538TIP3    H277106   2.759   0.430  16.781 -1.3243 -0.9557  0.1873
18539TIP3   OH277107   6.344   0.169  14.977  0.3855 -0.4127  0.0278
18539TIP3    H177108   6.303   0.178  14.891  1.3259 -1.8736 -0.5848
18539TIP3    H277109   6.420   0.113  14.962  1.7967  1.0617  1.4095
18540TIP3   OH277110   4.431   2.487   0.630 -0.5307 -0.4007 -0.1418
18540TIP3    H177111   4.382   2.560   0.668 -0.0531  0.6444 -1.4871
18540TIP3    H277112   4.513   2.527   0.600  0.1589 -1.6897  0.0299
18541TIP3   OH277113   5.180   1.055   3.903  0.0498  0.1556  0.4517
18541TIP3    H177114   5.089   1.061   3.874 -0.2820 -0.3442  1.3820
18541TIP3    H277115   5.201   1.142   3.936 -0.0039  0.3422  0.0033
18542TIP3   OH277116   3.195   5.664   4.615  0.3384  0.8309 -0.3290
18542TIP3    H177117   3.252   5.622   4.680  1.3102  1.6944 -0.6049
18542TIP3    H277118   3.143   5.593   4.579  1.9448 -0.1444 -0.7744
18543TIP3   OH277119   1.535   6.495   2.641  0.5079  0.2226 -0.2221
18543TIP3    H177120   1.630   6.498   2.637  0.4654  0.7495 -0.7302
18543TIP3    H277121   1.510   6.566   2.700  0.2757  1.8499 -2.2312
18544TIP3   OH277122   4.919   5.410   0.084  0.4459 -0.3579 -0.1441
18544TIP3    H177123   4.894   5.335   0.139  0.5166 -1.2076 -1.2576
18544TIP3    H277124   4.899   5.487   0.138 -3.1034 -1.0425 -0.4026
18545TIP3   OH277125   2.638   0.565   3.982 -0.6179 -0.6857 -0.1134
18545TIP3    H177126   2.596   0.576   4.068 -0.2529 -2.2436  0.2863
18545TIP3    H277127   2.572   0.520   3.929 -0.4360 -0.7317 -0.2993
18546TIP3   OH277128   4.502   1.583  12.140  0.4265 -0.2390  0.5301
18546TIP3    H177129   4.502   1.645  12.212  0.2045 -0.6381  0.8792
18546TIP3    H277130   4.410   1.562  12.127  0.4287  0.1459 -0.1458
18547TIP3   OH277131   4.330   6.132   0.776 -0.2093  0.4669  0.1319
18547TIP3    H177132   4.298   6.080   0.849 -1.8653  1.3713  0.0813
18547TIP3    H277133   4.271   6.111   0.704 -0.5032  1.9053 -0.0689
18548TIP3   OH277134   0.300   2.003   5.468  0.0807  0.3445  0.3664
18548TIP3    H177135   0.381   1.959   5.493  0.9168  1.4045 -0.4400
18548TIP3    H277136   0.252   1.938   5.418  1.6961  0.5989 -1.5653
18549TIP3   OH277137   5.555   2.427   0.827 -0.2593  0.0221 -0.1576
18549TIP3    H177138   5.547   2.507   0.878 -2.4385 -0.6829  0.6811
18549TIP3    H277139   5.650   2.413   0.818  0.1502  1.4118  1.6953
18550TIP3   OH277140   1.073   5.137   1.083  0.2361 -0.2343  0.3279
18550TIP3    H177141   1.111   5.224   1.095  0.4256 -0.2298 -0.2910
18550TIP3    H277142   1.126   5.080   1.139  1.5926 -0.3485 -1.0493
18551TIP3   OH277143   0.266   2.001  13.238 -0.0366 -0.1687  0.1026
18551TIP3    H177144   0.204   1.929  13.222  0.5536 -0.4502 -0.9161
18551TIP3    H277145   0.211   2.079  13.238 -0.8423 -0.6883  2.2344
18552TIP3   OH277146   3.942   4.512   5.080  0.0242 -0.3802 -0.3902
18552TIP3    H177147   3.982   4.538   5.163 -1.3471  0.9019 -0.1256
18552TIP3    H277148   3.989   4.432   5.055 -0.1546 -1.2829  2.0728
18553TIP3   OH277149   5.284   5.122  16.782 -0.3825 -0.2537  0.3921
18553TIP3    H177150   5.366   5.090  16.744 -0.9816 -1.2172 -0.1160
18553TIP3    H277151   5.216   5.074  16.735 -1.5076  4.0216 -2.6524
18554TIP3   OH277152   4.652   3.477  11.265  0.5055  0.0121 -0.1813
18554TIP3    H177153   4.623   3.390  11.293 -0.4577 -0.1455 -1.5765
18554TIP3    H277154   4.571   3.527  11.256  1.0695  1.0968  0.7606
18555TIP3   OH277155   0.359   3.204   0.221  0.3432 -0.3815 -0.4438
18555TIP3    H177156   0.430   3.176   0.164  0.6762 -0.8729  0.2092
18555TIP3    H277157   0.291   3.235   0.161  0.7603 -0.7218 -1.0970
18556TIP3   OH277158   2.268   5.580  12.119  0.1155  0.4064  0.1541
18556TIP3    H177159   2.297   5.618  12.037  2.3181  0.0863  0.7535
18556TIP3    H277160   2.250   5.488  12.098  0.4742  0.3743 -0.0028
18557TIP3   OH277161   4.134   2.618   1.562  0.5456  0.1898 -0.3842
18557TIP3    H177162   4.210   2.618   1.503  2.1960  2.2542  1.6659
18557TIP3    H277163   4.166   2.576   1.642 -1.5033 -2.0232 -0.6460
18558TIP3   OH277164   0.874   6.222   2.750 -0.1271  0.6498 -0.6703
18558TIP3    H177165   0.815   6.245   2.822  0.0784 -0.4921 -0.1222
18558TIP3    H277166   0.908   6.306   2.719  0.4792  1.0974  1.1628
18559TIP3   OH277167   4.649   1.688   3.766 -0.4119  0.2998 -0.5703
18559TIP3    H177168   4.571   1.720   3.722 -0.4578  0.5975 -0.2735
18559TIP3    H277169   4.675   1.611   3.715 -1.9482 -0.8887  0.3762
18560TIP3   OH277170   4.472   6.238   0.150  0.0030 -0.6737  0.3169
18560TIP3    H177171   4.397   6.289   0.181 -0.7024 -2.3498  1.4859
18560TIP3    H277172   4.448   6.147   0.170  1.2294 -1.4661 -1.6704
18561TIP3   OH277173   1.537   3.754  12.965  0.5715 -0.6691  0.8374
18561TIP3    H177174   1.621   3.793  12.940  0.9451 -0.8997  1.7226
18561TIP3    H277175   1.526   3.681  12.904  0.8377 -0.4137  0.4800
18562TIP3   OH277176   1.144   4.749   5.115  0.4109 -0.5965  0.0945
18562TIP3    H177177   1.122   4.692   5.189 -0.1387  0.3593  0.6661
18562TIP3    H277178   1.240   4.747   5.111  0.4164 -1.1645  0.4094
18563TIP3   OH277179   0.262   5.749  16.023  0.2648 -0.8281 -0.0318
18563TIP3    H177180   0.198   5.688  15.988  0.4514 -0.8306 -0.3662
18563TIP3    H277181   0.323   5.765  15.951 -0.6441  0.9381 -0.4346
18564TIP3   OH277182   2.870   1.379   0.171  0.5526 -0.7374 -0.2538
18564TIP3    H177183   2.926   1.435   0.117  2.0060 -1.6891  0.2413
18564TIP3    H277184   2.823   1.325   0.109 -1.3308  1.4384 -0.7740
18565TIP3   OH277185   1.228   0.689  15.387 -0.5594 -0.0950  0.6959
18565TIP3    H177186   1.264   0.697  15.299  0.1863 -0.3835  0.9693
18565TIP3    H277187   1.232   0.595  15.406  0.6056  0.1344  1.5886
18566TIP3   OH277188   2.550   2.199   6.698  0.0864  0.5960 -0.2750
18566TIP3    H177189   2.466   2.177   6.658  0.4540  0.3709 -0.9142
18566TIP3    H277190   2.580   2.277   6.652 -0.3877  1.4596  0.8330
18567TIP3   OH277191   3.974   0.890   6.387 -0.0139 -0.6892  0.2895
18567TIP3    H177192   3.925   0.836   6.450  0.3968 -1.5607 -0.1317
18567TIP3    H277193   4.018   0.827   6.331  0.4416  0.0959 -0.2396
18568TIP3   OH277194   0.071   2.162   3.865  0.3972  0.2220  0.0306
18568TIP3    H177195   0.079   2.244   3.816  0.6996  1.1518  1.5919
18568TIP3    H277196   0.111   2.181   3.950 -0.3154 -1.2820  0.7214
18569TIP3   OH277197   3.753   0.964   4.515  0.0514  0.4357 -0.1534
18569TIP3    H177198   3.825   0.929   4.568 -0.3477 -0.1974 -0.0190
18569TIP3    H277199   3.679   0.905   4.534  0.0296 -0.0671 -1.7535
18570TIP3   OH277200   4.012   0.387  13.681  0.2635 -0.4986  0.1072
18570TIP3    H177201   3.960   0.378  13.601  0.4318 -0.0606 -0.0520
18570TIP3    H277202   4.103   0.387  13.652  0.3735 -1.6164  0.4195
18571TIP3   OH277203   3.850   5.342  13.203 -0.0135  0.3324 -0.1740
18571TIP3    H177204   3.832   5.372  13.114 -1.8489  0.6355  0.2625
18571TIP3    H277205   3.862   5.247  13.195 -1.1672  0.2135 -0.6324
18572TIP3   OH277206   2.910   6.058   0.290  0.7064 -0.8812  0.0669
18572TIP3    H177207   2.957   6.081   0.210 -0.1466  0.6903  0.0112
18572TIP3    H277208   2.899   6.141   0.336 -1.6060 -1.2924  0.2951
18573TIP3   OH277209   4.467   0.447   0.261 -0.3861 -0.1616 -0.2826
18573TIP3    H177210   4.374   0.469   0.254 -0.2058  1.4802  1.8697
18573TIP3    H277211   4.512   0.530   0.245  0.5571 -0.2101  1.9543
18574TIP3   OH277212   2.508   1.014   5.878  0.1877 -0.4220  0.1329
18574TIP3    H177213   2.562   1.093   5.875  1.8491 -1.5541  0.1270
18574TIP3    H277214   2.538   0.962   5.804 -1.2648 -0.8448 -0.1704
18575TIP3   OH277215   2.842   2.974   6.722 -0.4106  0.2849  0.2785
18575TIP3    H177216   2.836   2.885   6.757 -1.5294  1.0189  1.9852
18575TIP3    H277217   2.757   2.988   6.679 -0.3885  0.6593  0.3556
18576TIP3   OH277218   1.292   2.780  12.723 -0.0061  0.2466 -0.2016
18576TIP3    H177219   1.232   2.742  12.660  1.0265 -0.5535 -0.7317
18576TIP3    H277220   1.264   2.744  12.807 -0.2823 -0.1180 -0.4437
18577TIP3   OH277221   4.093   6.170  14.102 -0.3120  0.5847 -0.4347
18577TIP3    H177222   4.129   6.231  14.038 -0.3133  1.8404  0.7352
18577TIP3    H277223   4.166   6.152  14.161 -0.6075  0.3077 -0.1511
18578TIP3   OH277224   2.857   4.613   4.621 -0.2513  0.3694 -0.7283
18578TIP3    H177225   2.884   4.688   4.674  1.5620 -0.4236 -0.5156
18578TIP3    H277226   2.762   4.607   4.635 -0.0204  1.0523  1.2856
18579TIP3   OH277227   5.535   1.632  16.779 -0.3484 -0.2687 -0.3575
18579TIP3    H177228   5.458   1.642  16.723 -0.6376  0.3674  0.1533
18579TIP3    H277229   5.502   1.644  16.868  0.1531 -1.0209 -0.0545
18580TIP3   OH277230   3.999   6.175   1.652  0.7436 -0.5210  0.0338
18580TIP3    H177231   3.926   6.155   1.712  0.2441 -1.6515 -0.9203
18580TIP3    H277232   4.039   6.254   1.688  0.2700 -1.0188  1.7001
18581TIP3   OH277233   6.701   4.802  15.210  0.1794 -0.7243  0.2947
18581TIP3    H177234   6.727   4.804  15.303 -0.4667  0.3997  0.4534
18581TIP3    H277235   6.620   4.751  15.209 -0.3806  0.1496  0.4972
18582TIP3   OH277236   4.759   3.504  10.913  0.0388 -0.9145 -0.6201
18582TIP3    H177237   4.836   3.447  10.921 -0.5566 -1.5960  0.3980
18582TIP3    H277238   4.791   3.581  10.866  0.8612 -2.0686 -1.9973
18583TIP3   OH277239   2.956   2.033  16.550 -0.7617 -0.1082 -0.2671
18583TIP3    H177240   2.953   2.123  16.517  0.6266 -0.9572 -2.8378
18583TIP3    H277241   2.867   2.000  16.537 -0.6810  0.1477 -1.5576
18584TIP3   OH277242   4.923   1.087  16.764  0.8405 -0.2026 -0.0490
18584TIP3    H177243   5.014   1.056  16.759  0.6994 -0.5697 -0.3976
18584TIP3    H277244   4.878   1.022  16.818  1.3050  1.2456  2.1149
18585TIP3   OH277245   2.528   0.317   3.186 -0.3859 -0.2936 -0.6128
18585TIP3    H177246   2.479   0.282   3.260  1.1064 -0.9970  0.0537
18585TIP3    H277247   2.497   0.407   3.178 -1.6837 -0.6756 -0.1300
18586TIP3   OH277248   2.084   6.414   2.026  0.5145 -0.2706 -0.3649
18586TIP3    H177249   2.017   6.389   1.962 -0.6653  1.0789  0.3104
18586TIP3    H277250   2.078   6.349   2.095  0.0180 -0.2461 -0.3884
18587TIP3   OH277251   6.213   3.018   0.339 -0.9822  0.1302  0.8448
18587TIP3    H177252   6.297   2.995   0.299 -2.3900 -1.2547 -1.3590
18587TIP3    H277253   6.203   3.112   0.321 -2.1273 -0.6900 -3.1794
18588TIP3   OH277254   4.026   1.080  15.279 -0.4959 -0.1818 -0.5115
18588TIP3    H177255   4.094   1.036  15.331  0.0711  0.0273 -1.0785
18588TIP3    H277256   3.969   1.010  15.251 -0.4676 -0.3714 -0.1049
18589TIP3   OH277257   5.613   2.048  15.101  0.2612 -0.7225 -0.4309
18589TIP3    H177258   5.521   2.039  15.075 -0.2243  0.2587  0.8317
18589TIP3    H277259   5.609   2.102  15.181  1.9907 -0.0602 -0.7789
18590TIP3   OH277260   2.137   5.904   2.281 -0.0610 -0.0499 -0.2063
18590TIP3    H177261   2.201   5.841   2.250 -1.6668 -1.9453  0.1831
18590TIP3    H277262   2.053   5.858   2.272 -1.2601  2.0327  0.1150
18591TIP3   OH277263   1.415   4.905  11.781 -0.4757  0.2208  0.2503
18591TIP3    H177264   1.462   4.985  11.802  0.1508 -0.4005  1.2374
18591TIP3    H277265   1.467   4.835  11.822 -3.1313 -0.3331  2.7703
18592TIP3   OH277266   6.221   0.848   1.325  0.3045  0.4329 -0.2975
18592TIP3    H177267   6.237   0.935   1.289 -0.8543  0.8584  0.1796
18592TIP3    H277268   6.157   0.863   1.396  1.3867 -0.5679  0.9151
18593TIP3   OH277269   2.737   1.807  15.410  0.5268  0.3890  0.4989
18593TIP3    H177270   2.666   1.761  15.453  1.0581 -0.3455  0.5952
18593TIP3    H277271   2.817   1.773  15.451  0.9806  0.4512 -0.3093
18594TIP3   OH277272   3.010   0.185   2.397 -0.7483  1.0903 -0.0191
18594TIP3    H177273   3.031   0.152   2.484  1.0104 -0.0061 -0.8097
18594TIP3    H277274   3.040   0.276   2.398  1.1098  0.5144 -0.0591
18595TIP3   OH277275   1.288   4.121   6.666  0.6646  0.2011 -0.8391
18595TIP3    H177276   1.193   4.134   6.656  0.7338  1.6067  0.0920
18595TIP3    H277277   1.324   4.210   6.665  1.9247 -0.2992 -0.6585
18596TIP3   OH277278   2.105   1.916  15.247 -0.1642  0.0212 -0.0749
18596TIP3    H177279   2.153   1.992  15.280  0.4904 -0.7289  0.7029
18596TIP3    H277280   2.131   1.909  15.155 -0.0514  0.6025 -0.0875
18597TIP3   OH277281   6.594   1.860   3.601  0.2354 -0.3645  0.2488
18597TIP3    H177282   6.596   1.773   3.561 -0.3773 -0.7328  1.0023
18597TIP3    H277283   6.672   1.862   3.657  0.0188 -0.5912  0.5610
18598TIP3   OH277284   0.143   6.735  12.673  0.2437  0.3432 -0.4968
18598TIP3    H177285   0.187   6.815  12.645 -0.4672 -0.0884 -2.9844
18598TIP3    H277286   0.050   6.756  12.666  0.0509 -0.2760  0.1585
18599TIP3   OH277287   1.784   3.905   0.859  0.7078 -0.1366  0.1695
18599TIP3    H177288   1.867   3.860   0.845  0.9850 -0.1165  1.6663
18599TIP3    H277289   1.733   3.886   0.780  1.4501 -1.6599  0.0322
18600TIP3   OH277290   1.899   4.435  16.746 -0.1414  0.2998 -0.5624
18600TIP3    H177291   1.814   4.458  16.784 -0.3585 -0.2719 -0.6989
18600TIP3    H277292   1.939   4.375  16.809  0.4366  1.0686 -0.1967
18601TIP3   OH277293   1.266   1.224  13.455  0.1436  0.1639 -0.7462
18601TIP3    H177294   1.192   1.279  13.427  1.0915  1.6604 -0.4011
18601TIP3    H277295   1.255   1.216  13.549  0.4347  0.4227 -0.6890
18602TIP3   OH277296   2.382   6.815  15.133 -0.3684  0.6421  0.5603
18602TIP3    H177297   2.374   6.814  15.228 -1.0620  0.0407  0.5038
18602TIP3    H277298   2.373   6.908  15.109 -1.2276  0.6785  1.0037
18603TIP3   OH277299   5.328   5.172  12.669 -0.4452  0.0966 -0.5855
18603TIP3    H177300   5.265   5.171  12.741 -1.4697 -0.0758 -1.4719
18603TIP3    H277301   5.403   5.220  12.704 -0.9307  0.0094  0.5985
18604TIP3   OH277302   0.373   3.466  11.258  0.3611 -0.5202  0.0358
18604TIP3    H177303   0.382   3.455  11.163 -1.8071  0.1640 -0.2636
18604TIP3    H277304   0.291   3.423  11.280  1.6594 -2.1857  1.9156
18605TIP3   OH277305   3.613   4.662   2.837  0.2105  0.3662  0.5342
18605TIP3    H177306   3.619   4.735   2.775 -1.7369  0.0355 -0.0757
18605TIP3    H277307   3.632   4.701   2.922  0.3168  1.3558  0.0599
18606TIP3   OH277308   4.096   0.077   3.149  0.1974 -0.1036  0.4151
18606TIP3    H177309   4.063   0.030   3.072 -1.6825  0.4186  0.8836
18606TIP3    H277310   4.169   0.022   3.181  0.6071 -0.6280 -1.3622
18607TIP3   OH277311   0.888   3.534  14.049  0.2278 -0.1438  0.4120
18607TIP3    H177312   0.923   3.520  13.962 -2.0076  0.8479 -0.6981
18607TIP3    H277313   0.960   3.575  14.098  1.1766  0.2369 -1.2605
18608TIP3   OH277314   6.466   3.976   3.086  0.2270  0.4174  0.9552
18608TIP3    H177315   6.482   4.050   3.144 -0.6865  0.0999  1.6423
18608TIP3    H277316   6.373   3.955   3.099  0.7555 -1.6292  1.7093
18609TIP3   OH277317   6.800   1.734  15.908  0.1117  0.5548  0.0466
18609TIP3    H177318   6.814   1.804  15.971 -1.4299  1.4016 -0.5207
18609TIP3    H277319   6.717   1.694  15.935 -0.0893  0.3336 -0.8847
18610TIP3   OH277320   2.631   0.195  16.196 -0.1617 -0.1979  0.1542
18610TIP3    H177321   2.578   0.253  16.142 -0.1165 -0.1134  0.1999
18610TIP3    H277322   2.601   0.107  16.173 -1.1249 -0.1056  1.0236
18611TIP3   OH277323   1.454   1.700  11.151 -0.3676  0.1119  0.0204
18611TIP3    H177324   1.520   1.657  11.206 -1.3883 -0.2367  1.0039
18611TIP3    H277325   1.504   1.741  11.081  0.9028 -0.0848  0.7918
18612TIP3   OH277326   6.582   4.629  16.638 -0.1416 -0.1708 -0.2506
18612TIP3    H177327   6.665   4.663  16.604  0.2724 -0.2517  0.6520
18612TIP3    H277328   6.589   4.641  16.733 -1.5873  0.7525 -0.2537
18613TIP3   OH277329   3.436   3.109  14.476 -0.3736  0.8147  0.5564
18613TIP3    H177330   3.476   3.056  14.407 -1.3622  0.7719  0.0038
18613TIP3    H277331   3.372   3.050  14.517 -0.7392  1.2515  0.6210
18614TIP3   OH277332   3.895   1.268  15.601  0.8532 -0.0543 -0.5517
18614TIP3    H177333   3.863   1.241  15.515  4.2368 -2.0494 -1.2872
18614TIP3    H277334   3.975   1.318  15.582  0.7361  0.9101  1.3610
18615TIP3   OH277335   4.336   6.657   3.581 -0.0630 -0.0846  0.2299
18615TIP3    H177336   4.387   6.612   3.513  0.3585  1.7132 -0.6657
18615TIP3    H277337   4.357   6.750   3.569 -0.3891  0.2942  2.4955
18616TIP3   OH277338   0.003   4.901  13.031  0.0331 -0.1656 -0.2929
18616TIP3    H177339   0.075   4.932  12.976  0.8754 -1.1493  0.2396
18616TIP3    H277340  -0.062   4.972  13.028  1.6855  1.4096  0.4717
18617TIP3   OH277341   5.378   2.151  15.498 -0.1469 -0.2266 -0.5029
18617TIP3    H177342   5.334   2.091  15.557  0.4087 -0.6301 -0.4983
18617TIP3    H277343   5.342   2.237  15.520  1.2530 -0.1506  1.5505
18618TIP3   OH277344   4.097   2.458  15.013 -0.5184 -0.3955 -0.0512
18618TIP3    H177345   4.184   2.496  15.008 -1.2770  1.3955 -0.0496
18618TIP3    H277346   4.042   2.516  14.960 -2.0021 -0.6450  1.1827
18619TIP3   OH277347   5.041   4.767   0.836  0.2663  0.3969 -0.6177
18619TIP3    H177348   5.090   4.742   0.757  1.2740  2.1738 -0.5823
18619TIP3    H277349   4.963   4.811   0.803  0.4626  0.7357 -0.6313
18620TIP3   OH277350   6.578   4.025  17.066 -0.6446 -0.2509  0.1905
18620TIP3    H177351   6.562   4.010  16.973 -1.1580 -0.0768  0.2513
18620TIP3    H277352   6.646   3.962  17.089  0.9943  1.1099 -0.7885
18621TIP3   OH277353   6.595   2.229   6.802 -0.1781 -0.3774 -0.5385
18621TIP3    H177354   6.688   2.217   6.817 -0.0043  1.1259 -0.3888
18621TIP3    H277355   6.553   2.173   6.867  0.6111  0.5926  0.8306
18622TIP3   OH277356   5.638   3.218   4.814  0.0069 -0.1112 -0.0950
18622TIP3    H177357   5.584   3.265   4.878 -0.2879 -0.9586  0.2826
18622TIP3    H277358   5.594   3.133   4.803  0.0434  0.0303 -1.4351
18623TIP3   OH277359   2.825   1.293   6.748  0.2120  0.0626 -0.2086
18623TIP3    H177360   2.788   1.224   6.803  0.3587 -2.3304 -2.9686
18623TIP3    H277361   2.750   1.336   6.708  0.1838  0.2389  0.0325
18624TIP3   OH277362   3.383   3.508   2.304 -0.3581 -0.1701  0.6349
18624TIP3    H177363   3.433   3.583   2.334  2.5118 -1.0831 -1.6503
18624TIP3    H277364   3.439   3.433   2.321 -0.9563 -1.2462 -1.8723
18625TIP3   OH277365   4.038   1.212   1.280 -0.1847 -0.9556 -0.3540
18625TIP3    H177366   4.077   1.290   1.240  0.8705 -1.4963 -0.4023
18625TIP3    H277367   4.053   1.142   1.215 -2.5550 -0.8769 -1.0482
18626TIP3   OH277368   1.264   4.168  13.199 -0.3250 -0.3155 -0.1868
18626TIP3    H177369   1.239   4.259  13.218 -1.1847 -0.7545  0.8334
18626TIP3    H277370   1.204   4.115  13.251  1.5855 -1.4529  0.9128
18627TIP3   OH277371   6.408   1.244  16.165 -0.0276 -0.2082  0.0143
18627TIP3    H177372   6.386   1.300  16.090 -1.3956  0.2524  0.7525
18627TIP3    H277373   6.351   1.168  16.156 -1.1759  0.4839  1.3315
18628TIP3   OH277374   3.811   4.692  10.902 -0.5053  0.5637 -0.0181
18628TIP3    H177375   3.820   4.788  10.898 -3.0867  0.8138 -0.6407
18628TIP3    H277376   3.728   4.678  10.949  1.3484 -1.4488  2.8133
18629TIP3   OH277377   5.094   3.338  11.565  0.8785  0.6610 -0.1700
18629TIP3    H177378   5.077   3.244  11.572  1.5629  0.3590 -2.2499
18629TIP3    H277379   5.007   3.378  11.565  0.5315 -0.0791 -0.6181
18630TIP3   OH277380   5.732   4.303   6.479 -0.0414  0.4560  0.0346
18630TIP3    H177381   5.742   4.398   6.482 -0.0950  0.4819 -0.5458
18630TIP3    H277382   5.809   4.273   6.430 -0.4023  0.2657 -0.4190
18631TIP3   OH277383   0.245   3.329   2.227  0.3906  0.2419  0.0145
18631TIP3    H177384   0.167   3.324   2.170  1.5424 -1.0922 -1.4774
18631TIP3    H277385   0.265   3.422   2.230 -0.7966  0.5262 -0.2405
18632TIP3   OH277386   2.912   6.520  12.734  0.0635  0.1912  0.0769
18632TIP3    H177387   2.924   6.615  12.734 -1.2473  0.3649  0.1053
18632TIP3    H277388   2.920   6.495  12.642 -1.8699  0.6450 -0.2342
18633TIP3   OH277389   3.459   2.419   0.061 -0.1923 -0.1282  0.1509
18633TIP3    H177390   3.389   2.391   0.002  1.0083 -2.1949 -0.3453
18633TIP3    H277391   3.416   2.433   0.145 -0.8506 -3.6662  0.4566
18634TIP3   OH277392   4.485   1.714  14.415 -0.2573 -0.0852  0.1136
18634TIP3    H177393   4.402   1.760  14.426 -0.5089 -0.8542  1.4705
18634TIP3    H277394   4.478   1.672  14.330 -1.3023 -0.2293  0.2631
18635TIP3   OH277395   6.046   0.532   1.685  0.4689 -0.8270 -0.5049
18635TIP3    H177396   6.139   0.541   1.668  0.6965 -0.9215  0.6573
18635TIP3    H277397   6.035   0.558   1.776 -0.8515  0.5589 -1.0170
18636TIP3   OH277398   2.448   2.060  12.276 -0.1147 -0.1764  0.5653
18636TIP3    H177399   2.470   1.968  12.267  0.3392 -0.1803  1.6601
18636TIP3    H277400   2.376   2.074  12.214  0.7594 -0.9223 -0.6461
18637TIP3   OH277401   1.139   6.130   5.741  0.5282 -0.3638 -0.2767
18637TIP3    H177402   1.065   6.115   5.683 -0.6362  1.9363  0.5401
18637TIP3    H277403   1.141   6.053   5.798 -1.2473 -0.4455 -0.3077
18638TIP3   OH277404   2.166   0.968  13.372  0.0821  0.5226  0.8565
18638TIP3    H177405   2.247   0.924  13.400  0.2163  0.2367  0.0282
18638TIP3    H277406   2.098   0.932  13.429  0.5022  0.6114  1.4178
18639TIP3   OH277407   3.618   0.505   1.683  0.0678  0.0618  0.0560
18639TIP3    H177408   3.607   0.553   1.765  0.5678  0.7033 -0.2469
18639TIP3    H277409   3.618   0.573   1.616  1.9348 -0.2588 -0.2749
18640TIP3   OH277410   6.393   5.245   0.767  0.2110  0.2564  0.5790
18640TIP3    H177411   6.471   5.193   0.785  0.5096  0.6867  0.5310
18640TIP3    H277412   6.401   5.271   0.676  0.1490  0.5353  0.6534
18641TIP3   OH277413   2.325   2.297   2.445 -0.1694 -0.2312  0.2122
18641TIP3    H177414   2.401   2.247   2.477 -0.8050 -0.7294  0.9761
18641TIP3    H277415   2.358   2.386   2.433  0.7964 -0.6773 -0.4621
18642TIP3   OH277416   5.436   2.771   4.328  0.4173  0.0298 -0.3521
18642TIP3    H177417   5.471   2.692   4.370  0.8100 -0.1575 -1.0218
18642TIP3    H277418   5.509   2.805   4.276  0.5772  1.4462  0.7900
18643TIP3   OH277419   4.911   2.571  14.024  0.2080  0.4283 -0.0634
18643TIP3    H177420   4.895   2.477  14.018  0.0454  0.4277  0.3445
18643TIP3    H277421   4.879   2.596  14.111 -0.0063  0.9121 -0.2745
18644TIP3   OH277422   5.389   0.701  12.303 -0.1087  0.6463 -0.0255
18644TIP3    H177423   5.464   0.652  12.336 -0.2113  1.1254  0.9330
18644TIP3    H277424   5.384   0.779  12.359  0.0978  1.7941 -1.5690
18645TIP3   OH277425   3.628   6.523  13.120 -0.2293  0.0744  0.1286
18645TIP3    H177426   3.533   6.523  13.128 -0.3582  4.1095 -0.0396
18645TIP3    H277427   3.660   6.501  13.207 -1.4105  2.6179  1.2624
18646TIP3   OH277428   5.923   1.218   0.694 -0.4630  0.1599 -0.4096
18646TIP3    H177429   5.883   1.175   0.618 -0.1668 -1.1169  0.1322
18646TIP3    H277430   6.017   1.204   0.682 -0.4461 -0.5340  0.4620
18647TIP3   OH277431   2.339   0.038  14.461  0.5310  0.5633  0.0268
18647TIP3    H177432   2.295   0.114  14.500  2.1597  1.4128  0.2519
18647TIP3    H277433   2.379  -0.007  14.535 -1.7873 -1.4688  0.1039
18648TIP3   OH277434   0.780   3.338   2.485  0.1024  0.4777 -0.0923
18648TIP3    H177435   0.849   3.315   2.424 -1.8557  1.4755 -2.8044
18648TIP3    H277436   0.718   3.390   2.433 -1.5864  1.4819  2.7715
18649TIP3   OH277437   4.194   2.631   4.357 -0.5532  0.0109 -0.6665
18649TIP3    H177438   4.205   2.638   4.452 -1.3920 -2.9467 -0.3259
18649TIP3    H277439   4.280   2.605   4.325  0.0083  2.0406 -0.8632
18650TIP3   OH277440   0.418   4.234   5.044 -0.0496 -0.3242  0.8233
18650TIP3    H177441   0.490   4.236   5.107  0.4903  0.4879  0.1874
18650TIP3    H277442   0.353   4.177   5.085 -0.4926  1.6291  3.0075
18651TIP3   OH277443   2.307   6.624  12.299 -0.3392 -0.2813  0.5629
18651TIP3    H177444   2.314   6.719  12.297  1.6904 -0.4154  0.8450
18651TIP3    H277445   2.213   6.607  12.288 -0.8684  1.7744  1.7323
18652TIP3   OH277446   0.407   4.194   4.020  0.1127  0.7661 -0.7342
18652TIP3    H177447   0.369   4.246   4.091  0.7822 -0.4750  0.5713
18652TIP3    H277448   0.461   4.256   3.971 -2.1103  2.1322 -1.5068
18653TIP3   OH277449   2.191   0.706   1.976  0.0648 -0.6974  0.3806
18653TIP3    H177450   2.164   0.615   1.988  1.6825 -1.6074 -2.4344
18653TIP3    H277451   2.164   0.728   1.888 -0.0845  1.4979  0.9479
18654TIP3   OH277452   6.141   3.661  15.763  0.5151  0.4493 -0.3129
18654TIP3    H177453   6.140   3.733  15.826  1.8646 -0.1813  0.4477
18654TIP3    H277454   6.208   3.687  15.699  1.3676 -0.3607  0.2458
18655TIP3   OH277455   4.360   4.306  13.484  0.5966  0.6497  0.2640
18655TIP3    H177456   4.306   4.370  13.439  2.0701  1.0559 -0.9691
18655TIP3    H277457   4.298   4.248  13.528 -0.8224  1.0199 -1.2304
18656TIP3   OH277458   5.228   2.358   3.557 -0.4607 -0.4984 -0.3067
18656TIP3    H177459   5.176   2.288   3.598 -1.0391 -0.1223 -0.3944
18656TIP3    H277460   5.166   2.406   3.503  0.3469 -1.0981 -1.7853
18657TIP3   OH277461   2.721   5.278   0.547  0.0596 -0.2670 -0.0754
18657TIP3    H177462   2.707   5.249   0.637 -2.4012  0.0565 -0.3196
18657TIP3    H277463   2.792   5.222   0.514 -0.3410 -1.6897  1.4413
18658TIP3   OH277464   5.252   3.377  15.272 -0.0240 -0.4038  0.2852
18658TIP3    H177465   5.282   3.459  15.311  1.6825 -0.5510 -0.6582
18658TIP3    H277466   5.253   3.314  15.344 -0.3908  0.1722  0.7921
18659TIP3   OH277467   3.093   0.118  13.127 -0.1282 -0.1591 -0.3116
18659TIP3    H177468   3.187   0.106  13.139 -0.4710 -2.4667  0.1607
18659TIP3    H277469   3.059   0.133  13.215  0.1386  3.7067 -0.7534
18660TIP3   OH277470   4.306   5.672   0.605  1.0108 -0.5243 -0.5193
18660TIP3    H177471   4.266   5.591   0.638  3.1246 -1.6503 -0.6224
18660TIP3    H277472   4.299   5.665   0.510 -0.4413  0.2870 -0.4802
18661TIP3   OH277473   1.144   2.097   0.556 -0.3238 -0.2576 -0.1899
18661TIP3    H177474   1.211   2.060   0.498 -0.5506  1.3939 -1.5529
18661TIP3    H277475   1.062   2.085   0.508 -0.4938  1.2887 -0.3019
18662TIP3   OH277476   3.448   2.856  13.308  0.0568  0.1695  0.0524
18662TIP3    H177477   3.517   2.793  13.329  0.7161  0.4886 -1.0776
18662TIP3    H277478   3.445   2.857  13.212 -1.6668  0.0171  0.1016
18663TIP3   OH277479   3.347   6.759   2.948 -0.5504  0.1449 -0.2207
18663TIP3    H177480   3.422   6.732   2.895 -1.7743 -0.4530 -1.6757
18663TIP3    H277481   3.332   6.851   2.924  1.5463  1.2250  2.2936
18664TIP3   OH277482   0.277   1.235  11.030  0.7580 -0.2014  0.5200
18664TIP3    H177483   0.329   1.156  11.017 -0.3975 -0.7347 -1.0150
18664TIP3    H277484   0.341   1.307  11.027  1.5399 -0.9171 -0.4064
18665TIP3   OH277485   5.472   6.544   5.448 -0.5156 -0.5169 -0.3397
18665TIP3    H177486   5.548   6.533   5.505 -0.1791 -0.5137 -0.7862
18665TIP3    H277487   5.508   6.540   5.360 -0.6800  1.9089 -0.5594
18666TIP3   OH277488   5.749   0.948   5.782 -0.0681 -0.1873 -0.4401
18666TIP3    H177489   5.816   0.935   5.714  0.0299 -1.9428 -0.0516
18666TIP3    H277490   5.798   0.981   5.857  0.3541 -1.2202 -0.2395
18667TIP3   OH277491   2.843   2.337  11.023 -0.4326 -0.1845  0.3791
18667TIP3    H177492   2.939   2.344  11.026 -0.4777  0.4066  0.5360
18667TIP3    H277493   2.825   2.280  10.949 -0.0241  1.0070 -0.6531
18668TIP3   OH277494   2.179   5.549   0.037  0.1430  0.0883  0.2409
18668TIP3    H177495   2.105   5.506  -0.005  0.6682 -1.2628  0.6584
18668TIP3    H277496   2.140   5.598   0.110 -0.4951  0.5474 -0.4052
18669TIP3   OH277497   0.318   4.106   5.444 -0.1966 -0.2350  0.7473
18669TIP3    H177498   0.404   4.086   5.482 -0.5986 -2.8804  0.3573
18669TIP3    H277499   0.285   4.021   5.413 -2.2019  1.0207 -0.6783
18670TIP3   OH277500   3.107   4.883   0.112 -0.4898  0.0117 -0.0906
18670TIP3    H177501   3.100   4.815   0.179 -0.2555 -1.7933 -1.8465
18670TIP3    H277502   3.104   4.965   0.161  2.1356 -1.2771  2.3828
18671TIP3   OH277503   2.753   4.623  15.837  0.8139 -0.2397  0.0028
18671TIP3    H177504   2.659   4.610  15.825  0.9131 -0.8055 -0.1621
18671TIP3    H277505   2.778   4.685  15.769  0.5962 -0.2128 -0.0537
18672TIP3   OH277506   3.711   6.161   4.582 -0.0623 -0.1260 -0.0005
18672TIP3    H177507   3.683   6.190   4.669  0.2334  2.4255 -0.6919
18672TIP3    H277508   3.803   6.186   4.577  0.3782 -1.8054 -0.4393
18673TIP3   OH277509   6.629   3.344  14.220  0.1377 -0.5404 -0.9356
18673TIP3    H177510   6.540   3.372  14.198  0.8229  0.5466 -2.3456
18673TIP3    H277511   6.628   3.336  14.315 -0.6203  2.4426 -0.6509
18674TIP3   OH277512   5.799   3.095  14.192  0.3801  0.0629 -0.0439
18674TIP3    H177513   5.813   3.007  14.226  0.8650 -0.1033 -0.6532
18674TIP3    H277514   5.738   3.135  14.253 -0.0124 -0.7723  0.1232
18675TIP3   OH277515   4.396   2.314   4.497 -0.5755 -0.6473 -0.1906
18675TIP3    H177516   4.366   2.390   4.547  0.6804 -0.7004  0.6650
18675TIP3    H277517   4.464   2.350   4.439  0.6366 -1.2424  0.8224
18676TIP3   OH277518   4.512   2.387   2.619  0.2479  0.0067 -0.1751
18676TIP3    H177519   4.486   2.316   2.561  1.2242  0.2292 -0.9063
18676TIP3    H277520   4.473   2.365   2.703  2.0099 -2.3626  0.0770
18677TIP3   OH277521   2.269   3.819   4.342  0.1725  0.0126 -0.4865
18677TIP3    H177522   2.328   3.857   4.407  1.0630 -0.3016 -1.0944
18677TIP3    H277523   2.296   3.859   4.259 -0.9115  0.3659 -0.6835
18678TIP3   OH277524   1.063   1.142  14.349  0.3973 -0.5018  0.4602
18678TIP3    H177525   0.995   1.091  14.304 -0.5841  1.6394 -0.5361
18678TIP3    H277526   1.031   1.150  14.439 -0.8461  0.7602 -0.0825
18679TIP3   OH277527   5.044   2.570  17.038  0.6850 -0.0595 -0.3666
18679TIP3    H177528   5.119   2.626  17.020  2.5333 -2.4029 -0.1713
18679TIP3    H277529   5.043   2.561  17.133  0.7185 -0.8211 -0.4406
18680TIP3   OH277530   6.365   2.835  13.754  0.6759 -0.3861  0.0445
18680TIP3    H177531   6.422   2.762  13.732  0.2866 -0.5766 -0.3505
18680TIP3    H277532   6.276   2.801  13.738  0.5171  0.3294 -0.6448
18681TIP3   OH277533   1.884   6.417   5.325 -0.0828 -0.4482 -0.6313
18681TIP3    H177534   1.836   6.334   5.335  1.2134 -1.3722 -2.0311
18681TIP3    H277535   1.830   6.468   5.266  1.2247 -1.9784 -3.2246
18682TIP3   OH277536   4.524   1.421   6.112 -0.0244 -0.3971  0.1819
18682TIP3    H177537   4.490   1.335   6.134 -0.8294 -0.5214 -1.5066
18682TIP3    H277538   4.483   1.443   6.029  0.3071  1.5466  0.5084
18683TIP3   OH277539   0.420   6.185   1.071 -0.0184  0.0319 -0.2810
18683TIP3    H177540   0.360   6.246   1.028 -0.1940 -0.2876 -0.4949
18683TIP3    H277541   0.413   6.105   1.019 -0.1603 -0.3293  0.3017
18684TIP3   OH277542   3.970   3.100   0.255  0.3997 -0.0384 -0.1569
18684TIP3    H177543   4.020   3.083   0.175 -0.7272 -1.3458 -0.6137
18684TIP3    H277544   3.898   3.037   0.252 -0.8952  1.3539  0.8148
18685TIP3   OH277545   2.150   3.680  15.611  0.2901  0.9170  0.1129
18685TIP3    H177546   2.071   3.735  15.603  0.2893  1.0623  1.0095
18685TIP3    H277547   2.121   3.604  15.662  1.4017  2.4008  3.1004
18686TIP3   OH277548   6.134   5.328  13.515  0.1518  1.1182 -0.2619
18686TIP3    H177549   6.190   5.400  13.544  2.4370 -0.4279 -0.7597
18686TIP3    H277550   6.184   5.285  13.446 -0.7283 -1.6087  0.7672
18687TIP3   OH277551   3.239   6.774  12.861 -0.3993 -0.6825  0.2227
18687TIP3    H177552   3.147   6.794  12.879  0.0571  2.5019 -0.7193
18687TIP3    H277553   3.246   6.776  12.766  0.3506 -2.4673  0.2171
18688TIP3   OH277554   0.613   0.043   2.677  0.3842  0.2906 -0.6800
18688TIP3    H177555   0.583   0.054   2.767 -0.2758 -1.5463 -0.6579
18688TIP3    H277556   0.708   0.053   2.682  0.3996 -0.3138  0.3266
18689TIP3   OH277557   3.079   0.923  13.280  0.7669 -0.4624  0.0899
18689TIP3    H177558   3.069   0.895  13.189  1.2022  0.1322 -0.1384
18689TIP3    H277559   3.006   0.879  13.326  0.6273 -0.8695 -0.5110
18690TIP3   OH277560   0.826   0.641   3.258 -0.0441  0.6968  0.6780
18690TIP3    H177561   0.897   0.640   3.193  1.6292 -2.4703  2.4529
18690TIP3    H277562   0.861   0.692   3.331 -0.5371  1.1372  0.6121
18691TIP3   OH277563   0.360   6.283   0.396 -0.2386  0.2608 -0.4488
18691TIP3    H177564   0.280   6.289   0.345 -0.3569  1.6171 -0.1065
18691TIP3    H277565   0.347   6.344   0.469  0.0682 -1.3483  1.0138
18692TIP3   OH277566   6.342   4.056  12.420 -0.0927  0.2215  0.0797
18692TIP3    H177567   6.386   4.131  12.378 -0.2528 -1.2287 -2.8092
18692TIP3    H277568   6.323   4.086  12.509 -0.0117  3.5599 -0.9657
18693TIP3   OH277569   3.449   2.713  15.365 -0.3157  0.7369 -0.2871
18693TIP3    H177570   3.485   2.726  15.453 -1.3558 -1.7071  0.5262
18693TIP3    H277571   3.366   2.760  15.366 -0.8035 -0.1284  0.3799
18694TIP3   OH277572   2.256   4.949   2.296 -0.4179  0.5509 -0.0438
18694TIP3    H177573   2.310   4.893   2.351  0.2420  0.1652 -1.0782
18694TIP3    H277574   2.166   4.928   2.322 -0.1501 -0.4880  0.0594
18695TIP3   OH277575   1.368   2.958   1.003 -0.3588  0.3487  0.1044
18695TIP3    H177576   1.394   2.985   1.090  0.1008 -0.3556  0.1897
18695TIP3    H277577   1.315   3.030   0.970  0.9723  1.4083  0.2603
18696TIP3   OH277578   2.816   4.781   5.326 -0.0226  0.1792 -0.1124
18696TIP3    H177579   2.720   4.781   5.325 -0.1406 -2.5415  3.0056
18696TIP3    H277580   2.840   4.823   5.408  1.3462 -1.8752  0.5734
18697TIP3   OH277581   5.295   6.727   6.372  0.9753 -0.8865 -0.3151
18697TIP3    H177582   5.272   6.758   6.460  0.9370 -2.5440  0.2831
18697TIP3    H277583   5.257   6.640   6.367  2.0516 -1.3041 -1.5258
18698TIP3   OH277584   3.902   1.233   2.487 -0.2264  0.1023 -0.4004
18698TIP3    H177585   3.930   1.297   2.552  0.3700 -0.6207  0.0582
18698TIP3    H277586   3.814   1.207   2.514 -0.3036  0.4106 -0.3527
18699TIP3   OH277587   5.749   5.161   3.035  0.1944 -0.5372 -0.3083
18699TIP3    H177588   5.669   5.204   3.064 -1.0576 -4.2907  2.1972
18699TIP3    H277589   5.809   5.169   3.110 -0.0021 -2.8953  0.1365
18700TIP3   OH277590   6.495   0.948  12.370  0.0682 -0.1416 -0.0409
18700TIP3    H177591   6.460   1.036  12.363 -0.1663 -0.2019  0.3269
18700TIP3    H277592   6.553   0.952  12.447  2.9705  0.6514 -2.1881
18701TIP3   OH277593   4.839   6.119  11.635  0.2448 -0.0495  0.1379
18701TIP3    H177594   4.785   6.196  11.620 -0.1690 -0.2954  0.3694
18701TIP3    H277595   4.793   6.048  11.589  0.3076 -0.2824  0.4325
18702TIP3   OH277596   0.212   3.167   5.077 -0.0076  0.0623  0.2695
18702TIP3    H177597   0.239   3.255   5.050 -4.5857  1.3499 -0.6614
18702TIP3    H277598   0.144   3.142   5.014 -0.2133 -3.3227  1.6900
18703TIP3   OH277599   3.413   0.422   4.727 -0.5277  0.4230 -0.2801
18703TIP3    H177600   3.479   0.447   4.663  0.5041 -1.1343  0.1359
18703TIP3    H277601   3.338   0.478   4.708  0.1999  0.8253 -2.0488
18704TIP3   OH277602   3.327   3.584  14.333 -0.0933  0.3996 -0.0684
18704TIP3    H177603   3.384   3.544  14.398  1.4785  4.4001  1.1610
18704TIP3    H277604   3.240   3.584  14.374  0.2725  0.0527  0.7128
18705TIP3   OH277605   3.340   1.804   1.988  0.3267 -0.4020 -0.0528
18705TIP3    H177606   3.260   1.773   2.031 -0.1019 -1.1690 -1.3543
18705TIP3    H277607   3.395   1.835   2.059 -1.1331  0.1295  0.8674
18706TIP3   OH277608   1.067   2.807  10.426  0.4648 -0.2325  0.5981
18706TIP3    H177609   1.035   2.846  10.507  0.1301 -1.2487  0.9604
18706TIP3    H277610   1.029   2.719  10.425 -0.7637  0.2659 -1.3665
18707TIP3   OH277611   5.964   4.766  14.825  0.3407 -0.0898 -0.4235
18707TIP3    H177612   5.923   4.683  14.801  1.7527 -0.5284 -1.3893
18707TIP3    H277613   6.058   4.752  14.808  0.3804  2.3040 -2.3471
18708TIP3   OH277614   5.616   2.043   2.619 -0.3140  0.3005  0.1565
18708TIP3    H177615   5.648   1.978   2.681 -0.6194  1.0797  1.1569
18708TIP3    H277616   5.689   2.104   2.608 -0.4104  0.4012  0.0801
18709TIP3   OH277617   4.027   4.637   5.536 -0.3581  0.4553  0.3767
18709TIP3    H177618   4.036   4.573   5.465 -0.1063  1.4956 -0.5547
18709TIP3    H277619   4.108   4.628   5.587 -0.3121  0.0487  0.2347
18710TIP3   OH277620   4.599   2.649  15.847  0.5448  0.1930  0.3553
18710TIP3    H177621   4.635   2.581  15.790  0.5036  1.8387 -1.6877
18710TIP3    H277622   4.649   2.728  15.825 -1.5196  1.5554  0.4137
18711TIP3   OH277623   6.345   3.790   2.159 -0.3617  0.4419  0.0115
18711TIP3    H177624   6.426   3.785   2.209 -0.8303 -0.6186  0.6943
18711TIP3    H277625   6.290   3.721   2.196 -1.4364  0.9050 -0.6874
18712TIP3   OH277626   2.597   2.479  16.522 -0.3747 -0.0557  0.0341
18712TIP3    H177627   2.649   2.429  16.460  0.5498  0.5230  0.3282
18712TIP3    H277628   2.509   2.480  16.486  0.7105  2.7244 -2.7839
18713TIP3   OH277629   5.262   1.303   0.147 -0.1133  0.0845  0.6075
18713TIP3    H177630   5.209   1.225   0.164  0.8164 -0.5945  0.4387
18713TIP3    H277631   5.213   1.351   0.081 -0.2669 -0.8141  0.0493
18714TIP3   OH277632   2.802   1.007  13.562 -0.5790  0.1373 -0.3247
18714TIP3    H177633   2.846   0.923  13.551  1.1018  0.9473  0.0355
18714TIP3    H277634   2.845   1.047  13.638 -0.9342  1.5663 -0.8593
18715TIP3   OH277635   3.421   2.901   4.178 -0.0057 -0.5754 -0.2716
18715TIP3    H177636   3.370   2.821   4.168 -0.3612 -0.3459 -0.3107
18715TIP3    H277637   3.434   2.911   4.272  1.3043 -1.4655 -0.3411
18716TIP3   OH277638   0.048   2.245   0.723  0.5951 -0.1987 -0.3098
18716TIP3    H177639  -0.017   2.292   0.774 -0.0090 -1.5740  0.2020
18716TIP3    H277640   0.018   2.154   0.723  1.3462 -0.4661 -1.9046
18717TIP3   OH277641   1.888   1.570   2.361  0.4099 -0.7117  0.1000
18717TIP3    H177642   1.887   1.484   2.319  1.5022 -0.3867 -0.5896
18717TIP3    H277643   1.826   1.622   2.310  0.7891 -0.6857 -0.3325
18718TIP3   OH277644   4.951   0.353   5.996  0.0650  0.1993  0.2424
18718TIP3    H177645   5.002   0.408   6.055  1.7108 -0.7070 -0.3190
18718TIP3    H277646   4.953   0.266   6.035  0.0958 -0.1368 -0.4903
18719TIP3   OH277647   6.476   4.200  11.979 -0.1532  0.2634  0.2862
18719TIP3    H177648   6.469   4.117  11.932 -1.0841  0.9159 -0.7635
18719TIP3    H277649   6.400   4.201  12.037 -0.0509  0.3065  0.4204
18720TIP3   OH277650   3.335   0.059  16.512 -0.1122  0.3922 -0.2953
18720TIP3    H177651   3.430   0.073  16.515 -0.1059  0.4689 -1.0166
18720TIP3    H277652   3.297   0.144  16.535 -0.0062  0.1548  0.8314
18721TIP3   OH277653   4.443   5.305  15.197 -0.0244 -1.0056 -0.1746
18721TIP3    H177654   4.527   5.259  15.192  0.6913  0.2151  0.4232
18721TIP3    H277655   4.378   5.235  15.194  1.0133 -1.9841 -0.4620
18722TIP3   OH277656   1.067   3.135  15.828  0.3143 -0.0778  0.0673
18722TIP3    H177657   1.007   3.090  15.769 -0.3213 -0.3602  0.9167
18722TIP3    H277658   1.103   3.065  15.883  2.5548 -0.1315 -1.4019
18723TIP3   OH277659   4.577   3.921   6.114 -0.5028  0.2164 -0.1276
18723TIP3    H177660   4.523   3.875   6.049 -1.2239  1.1964 -0.2390
18723TIP3    H277661   4.514   3.955   6.178  0.1395 -0.0992  0.6772
18724TIP3   OH277662   6.532   2.421   5.882 -0.4123  0.2966 -0.4478
18724TIP3    H177663   6.530   2.348   5.820  0.0080 -0.3670  0.3093
18724TIP3    H277664   6.606   2.474   5.854  1.0026 -1.0478  0.6317
18725TIP3   OH277665   3.645   0.144  17.080 -0.5297 -0.2831 -0.2326
18725TIP3    H177666   3.708   0.186  17.140 -1.2139  1.4418 -0.7118
18725TIP3    H277667   3.692   0.138  16.997 -0.7137  0.2579 -0.3755
18726TIP3   OH277668   6.432   0.049   1.688  0.6344  0.4308  0.2922
18726TIP3    H177669   6.349   0.087   1.658  0.9476  1.2537  0.4600
18726TIP3    H277670   6.473   0.118   1.739  0.4410 -0.6997  2.0454
18727TIP3   OH277671   4.896   1.029  13.301 -0.5049 -0.3417 -0.4509
18727TIP3    H177672   4.958   0.956  13.296 -0.4427 -0.2718 -0.7244
18727TIP3    H277673   4.939   1.100  13.252  0.2004  0.4293  1.2358
18728TIP3   OH277674   3.264   4.125  12.155  0.4644  0.0320 -0.2635
18728TIP3    H177675   3.190   4.064  12.158  0.8015 -0.3162  1.4413
18728TIP3    H277676   3.228   4.208  12.186  0.0550  0.6923 -2.3911
18729TIP3   OH277677   6.512   0.065  12.242  0.3004 -0.2895 -0.2274
18729TIP3    H177678   6.582   0.085  12.305 -1.0641  1.3568  0.7744
18729TIP3    H277679   6.534   0.116  12.164 -0.2530  0.9147  0.4014
18730TIP3   OH277680   0.551   0.073   4.808 -0.5393 -0.0517  0.0799
18730TIP3    H177681   0.590   0.135   4.870 -2.7167  1.3679  0.0720
18730TIP3    H277682   0.575   0.107   4.722 -0.5388 -0.0363  0.0862
18731TIP3   OH277683   4.018   0.099   5.092 -0.6555 -0.1818 -0.4484
18731TIP3    H177684   3.926   0.104   5.118 -0.3206 -1.9254  1.2154
18731TIP3    H277685   4.017   0.050   5.009 -1.0416 -2.6445  0.9634
18732TIP3   OH277686   3.315   0.408  15.701  0.0075  0.1209 -0.0845
18732TIP3    H177687   3.363   0.490  15.700  2.5937 -1.2875  1.6106
18732TIP3    H277688   3.297   0.392  15.794 -0.5393 -1.1930 -0.3977
18733TIP3   OH277689   5.786   2.610  16.215 -0.1368 -0.7756  0.1261
18733TIP3    H177690   5.881   2.616  16.220 -0.0035  1.4241 -3.6538
18733TIP3    H277691   5.769   2.525  16.173  0.0171 -2.0313  2.5040
18734TIP3   OH277692   0.032   4.664  11.993  0.3014 -0.2267 -0.8082
18734TIP3    H177693   0.077   4.642  12.075 -2.5212  0.1219  0.8746
18734TIP3    H277694  -0.021   4.588  11.973  0.2191  0.0870 -1.8137
18735TIP3   OH277695   0.751   5.710   5.807 -0.4806  0.0061  0.1997
18735TIP3    H177696   0.796   5.768   5.868 -1.3090 -0.2629  1.0834
18735TIP3    H277697   0.663   5.747   5.800 -1.1664 -1.4092  1.1468
18736TIP3   OH277698   3.309   4.657  11.139 -0.6892 -0.2844  0.2657
18736TIP3    H177699   3.339   4.741  11.172  0.8900 -0.8069  0.2118
18736TIP3    H277700   3.227   4.677  11.093  0.8243  1.6050 -1.7142
18737TIP3   OH277701   0.849   0.073   5.275 -0.3059 -0.0025 -0.3352
18737TIP3    H177702   0.756   0.050   5.278 -0.4884  0.7950  0.3261
18737TIP3    H277703   0.873   0.089   5.366  0.1136  1.2006 -0.6429
18738TIP3   OH277704   0.772   0.834   3.990  0.1207  0.7391 -0.2751
18738TIP3    H177705   0.786   0.907   3.930  0.4200 -0.5075 -1.7595
18738TIP3    H277706   0.789   0.756   3.937  2.0333 -0.3542  1.8638
18739TIP3   OH277707   3.420   2.819  13.053  0.4056 -0.3785  0.9918
18739TIP3    H177708   3.417   2.904  13.010  0.4117 -0.9296 -0.1084
18739TIP3    H277709   3.405   2.755  12.983  1.4132 -1.3382  1.6281
18740TIP3   OH277710   6.388   0.461  11.156 -0.1062  0.0652  0.3930
18740TIP3    H177711   6.296   0.481  11.142  0.5077  1.2003 -2.3983
18740TIP3    H277712   6.397   0.370  11.126 -0.0615  0.4271 -0.7286
18741TIP3   OH277713   3.851   2.713  16.208 -0.2082  0.3975 -0.0401
18741TIP3    H177714   3.797   2.745  16.281 -1.2907 -0.8868 -0.2450
18741TIP3    H277715   3.833   2.774  16.137  0.3091  1.2531  0.5615
18742TIP3   OH277716   5.376   3.829   5.099  0.4248 -0.2400 -0.3324
18742TIP3    H177717   5.413   3.823   5.011  0.7552  1.2279 -0.2990
18742TIP3    H277718   5.418   3.757   5.147  0.1912 -1.0807 -1.3879
18743TIP3   OH277719   0.570   5.291   0.617  0.0914 -0.0934 -0.7131
18743TIP3    H177720   0.616   5.331   0.691  0.1670 -0.2741 -0.6609
18743TIP3    H277721   0.480   5.282   0.648 -0.7662  3.2776 -1.9867
18744TIP3   OH277722   4.227   1.025  16.698 -0.6894 -0.6501 -0.7009
18744TIP3    H177723   4.216   0.993  16.608 -0.4626  0.9872 -1.3342
18744TIP3    H277724   4.257   1.115  16.687  0.4183 -0.7981  1.0339
18745TIP3   OH277725   2.459   6.345   0.458 -0.0679 -0.4542 -0.1747
18745TIP3    H177726   2.447   6.373   0.549  0.7464 -2.5982  0.6186
18745TIP3    H277727   2.370   6.333   0.425 -0.3455 -1.4816  0.9309
18746TIP3   OH277728   5.154   4.933  11.129  0.0716  0.2165  0.2614
18746TIP3    H177729   5.221   4.876  11.092 -0.5879 -0.0433 -0.5479
18746TIP3    H277730   5.073   4.905  11.087 -0.5213  0.6379  1.1115
18747TIP3   OH277731   6.783   6.575   6.863  0.5229  0.3170  0.0460
18747TIP3    H177732   6.803   6.521   6.786  0.3370 -1.0801  0.9729
18747TIP3    H277733   6.868   6.609   6.891  1.0063 -1.7091  1.0930
18748TIP3   OH277734   6.272   1.739  15.064 -0.6705 -0.2309 -0.2680
18748TIP3    H177735   6.304   1.649  15.061  0.9263  0.3558 -1.1585
18748TIP3    H277736   6.243   1.757  14.975 -1.1301  0.0932 -0.0546
18749TIP3   OH277737   3.442   4.763   0.936 -0.0588  0.1045 -0.7402
18749TIP3    H177738   3.435   4.852   0.971  1.6580  0.3537 -0.9866
18749TIP3    H277739   3.380   4.761   0.863 -2.0330  0.2695  0.8812
18750TIP3   OH277740   2.265   2.387  15.468 -0.3554 -0.2982 -0.1427
18750TIP3    H177741   2.346   2.432  15.494  0.5433 -0.9737 -1.7027
18750TIP3    H277742   2.210   2.391  15.545  1.3488 -0.2159  1.1044
18751TIP3   OH277743   4.940   0.010  13.946 -0.3211  0.1477 -0.5449
18751TIP3    H177744   4.901  -0.066  13.901 -0.0752 -0.3308  0.0432
18751TIP3    H277745   4.883   0.083  13.922 -0.3258 -0.1401 -1.4517
18752TIP3   OH277746   5.530   1.722  11.102  0.4147 -0.5579  0.6065
18752TIP3    H177747   5.608   1.715  11.046 -0.4269 -0.3415 -0.6128
18752TIP3    H277748   5.544   1.802  11.153  0.3118  0.3265 -0.7140
18753TIP3   OH277749   5.453   1.117  11.788 -0.2832  0.1929  0.3428
18753TIP3    H177750   5.544   1.110  11.817 -0.4491  0.3272  0.9013
18753TIP3    H277751   5.414   1.032  11.809 -0.1722 -0.0256 -0.3110
18754TIP3   OH277752   3.825   4.212  13.017  0.4667  0.6579 -0.3186
18754TIP3    H177753   3.774   4.282  12.977 -0.6797  1.3801  2.2701
18754TIP3    H277754   3.762   4.140  13.029  0.9078  0.2745 -0.2725
18755TIP3   OH277755   1.711   5.929  11.671 -0.4458  0.3876  0.5439
18755TIP3    H177756   1.671   5.854  11.628 -0.6449  1.1264 -0.5754
18755TIP3    H277757   1.747   5.981  11.600  0.1728  1.0779  1.3504
18756TIP3   OH277758   6.355   6.605  14.914 -0.0841 -0.5345  0.2968
18756TIP3    H177759   6.324   6.539  14.851  0.4444  0.8842 -1.4779
18756TIP3    H277760   6.317   6.687  14.884 -1.0980 -0.0382  2.7483
18757TIP3   OH277761   1.802   1.639  13.113  0.5901  0.6302 -0.1455
18757TIP3    H177762   1.897   1.642  13.110  0.6282 -0.8922 -0.9478
18757TIP3    H277763   1.778   1.569  13.051 -1.0340  0.9615  0.0847
18758TIP3   OH277764   4.342   2.272  13.992 -0.1873  0.3660  0.3025
18758TIP3    H177765   4.401   2.209  13.951 -0.0615  0.2981  0.5901
18758TIP3    H277766   4.399   2.332  14.040 -0.3467  0.3257  0.5440
18759TIP3   OH277767   3.524   3.223   5.858  0.2317  0.1432  0.4929
18759TIP3    H177768   3.612   3.187   5.846  0.6846  1.5726 -0.7321
18759TIP3    H277769   3.533   3.281   5.934  0.5232  0.7614 -0.0019
18760TIP3   OH277770   5.470   4.859  12.721  0.3458  0.1733 -0.2121
18760TIP3    H177771   5.424   4.827  12.799  0.2346 -1.2266 -0.8386
18760TIP3    H277772   5.452   4.953  12.720 -0.6863  0.0038  0.7557
18761TIP3   OH277773   4.153   6.649   1.789  0.0496  0.4752 -0.2337
18761TIP3    H177774   4.107   6.728   1.760  1.7776  1.0984 -1.3481
18761TIP3    H277775   4.197   6.676   1.870 -2.6915 -0.5379  1.6402
18762TIP3   OH277776   5.137   6.224  11.991 -0.0318  0.4818  0.1595
18762TIP3    H177777   5.160   6.157  12.055 -0.0170  0.2614 -0.0734
18762TIP3    H277778   5.217   6.274  11.978 -0.2791  1.1105  0.9983
18763TIP3   OH277779   0.189   5.111  13.501  0.1710  0.4157 -0.5771
18763TIP3    H177780   0.154   5.179  13.558  1.3153  0.3826  0.1808
18763TIP3    H277781   0.272   5.145  13.470  1.2573 -1.0202  0.6362
18764TIP3   OH277782   0.266   3.427  12.717 -0.2165 -0.0075  0.0189
18764TIP3    H177783   0.312   3.345  12.700 -0.8749 -0.3067 -0.3359
18764TIP3    H277784   0.196   3.402  12.778  0.5033  0.5671  1.1080
18765TIP3   OH277785   4.304   3.458  13.786  0.2776 -0.4128 -0.2582
18765TIP3    H177786   4.384   3.508  13.804  0.8301 -1.1716 -0.5924
18765TIP3    H277787   4.233   3.515  13.815  0.7769  1.4594 -2.6003
18766TIP3   OH277788   2.832   1.346   1.392 -0.3167 -0.3147  0.1021
18766TIP3    H177789   2.863   1.354   1.302 -0.9529  0.2606 -0.0664
18766TIP3    H277790   2.773   1.420   1.404  2.4447  1.6750  2.0755
18767TIP3   OH277791   3.541   5.246   3.389 -0.0089 -0.2131 -0.4647
18767TIP3    H177792   3.457   5.233   3.345 -0.5368 -1.8241  0.9645
18767TIP3    H277793   3.559   5.163   3.432  2.2630  0.1511 -0.6225
18768TIP3   OH277794   2.549   4.165  12.780 -0.2006 -0.2831  0.4541
18768TIP3    H177795   2.496   4.101  12.732  0.4564 -0.0963 -0.5363
18768TIP3    H277796   2.502   4.248  12.767 -0.8465 -0.4858  1.4212
18769TIP3   OH277797   5.574   1.313  13.180 -0.4262 -0.5311 -0.0040
18769TIP3    H177798   5.603   1.264  13.103 -1.6989 -0.6249 -0.4392
18769TIP3    H277799   5.497   1.362  13.149  0.2480  0.9901  0.6765
18770TIP3   OH277800   6.729   0.317  14.425  0.0773  0.3007  0.5138
18770TIP3    H177801   6.672   0.325  14.348  1.6160  1.0950 -0.5633
18770TIP3    H277802   6.712   0.229  14.459 -1.3138  0.2935 -0.1672
18771TIP3   OH277803   1.918   2.958  17.097  0.3676 -0.7878  0.1545
18771TIP3    H177804   1.955   2.870  17.097  1.2765 -0.4226 -1.2942
18771TIP3    H277805   1.828   2.947  17.069  0.7677 -1.1524 -1.0126
18772TIP3   OH277806   5.509   6.316  14.390 -0.4668 -0.2045 -0.0490
18772TIP3    H177807   5.441   6.249  14.388 -0.5838 -0.0684 -1.1432
18772TIP3    H277808   5.461   6.398  14.404 -0.5481 -0.1060 -0.8421
18773TIP3   OH277809   0.266   0.356  14.673 -0.4237 -0.0366  0.2745
18773TIP3    H177810   0.252   0.318  14.760  1.1503  1.6813  1.3126
18773TIP3    H277811   0.253   0.450  14.686 -1.4388  0.1270 -1.6513
18774TIP3   OH277812   4.045   6.635  12.413 -0.1810 -0.0583 -0.3375
18774TIP3    H177813   4.113   6.697  12.435 -0.3022 -0.3192  0.7831
18774TIP3    H277814   3.963   6.684  12.421 -0.4759 -0.9682  2.9848
18775TIP3   OH277815   3.209   5.225   4.738  0.0838 -0.5626 -0.0690
18775TIP3    H177816   3.119   5.245   4.764  1.0815  2.2627  1.5260
18775TIP3    H277817   3.242   5.170   4.809 -0.5570 -2.1618 -0.9872
18776TIP3   OH277818   1.799   3.895   0.296  0.6058 -0.0343 -0.1442
18776TIP3    H177819   1.836   3.963   0.351  1.8039 -0.6527 -0.1784
18776TIP3    H277820   1.874   3.844   0.266 -0.4057 -2.3617  1.1894
18777TIP3   OH277821   4.010   6.439   4.841 -0.5930  0.6084 -0.9784
18777TIP3    H177822   4.003   6.463   4.933 -0.7308 -0.8121 -0.5977
18777TIP3    H277823   4.103   6.451   4.820  0.0582 -1.9758  0.2107
18778TIP3   OH277824   4.278   6.475   4.784 -0.4124 -0.1812 -0.1408
18778TIP3    H177825   4.322   6.395   4.813 -0.9546 -0.8800 -1.2205
18778TIP3    H277826   4.344   6.522   4.733 -0.5064 -0.5907 -0.6432
18779TIP3   OH277827   3.506   6.774  12.259  0.3156  0.0208  0.2134
18779TIP3    H177828   3.515   6.835  12.332 -0.7659  0.5206 -0.0532
18779TIP3    H277829   3.552   6.816  12.187 -0.7950  0.7488 -0.0912
18780TIP3   OH277830   2.192   0.469   3.014  0.1115  0.0068 -0.1510
18780TIP3    H177831   2.189   0.422   2.931  2.1496 -0.6167  0.1094
18780TIP3    H277832   2.170   0.559   2.992 -1.3942 -0.5589 -1.0361
18781TIP3   OH277833   6.194   3.904   4.258  0.6485  0.8629  0.0499
18781TIP3    H177834   6.250   3.847   4.312  0.0699  0.7084  0.5046
18781TIP3    H277835   6.197   3.865   4.171  1.3075  0.9000  0.0561
18782TIP3   OH277836   1.761   0.053  13.665 -0.6650 -0.3327  0.1694
18782TIP3    H177837   1.827  -0.005  13.627 -0.8585 -1.8144  2.0136
18782TIP3    H277838   1.767   0.133  13.614  1.8765 -0.8035 -0.3364
18783TIP3   OH277839   0.255   3.386  15.943 -0.7886 -0.4152 -0.1112
18783TIP3    H177840   0.175   3.346  15.977 -0.6927 -1.3666 -0.9679
18783TIP3    H277841   0.259   3.357  15.852 -0.3056  0.9367 -0.5340
18784TIP3   OH277842   3.825   3.770   3.220  0.2177 -0.3048 -0.4098
18784TIP3    H177843   3.833   3.816   3.136  1.2744 -0.7346 -0.5494
18784TIP3    H277844   3.913   3.768   3.255 -0.0034 -1.2747  0.1025
18785TIP3   OH277845   5.316   1.281  15.643  0.7114  0.6800  0.1213
18785TIP3    H177846   5.364   1.260  15.723  2.4182  2.1343 -0.4812
18785TIP3    H277847   5.288   1.196  15.609  1.9680 -0.1319  1.0691
18786TIP3   OH277848   0.959   2.753   0.774  0.0151 -0.3170 -0.3068
18786TIP3    H177849   1.011   2.682   0.811  1.1188  0.7638  0.2526
18786TIP3    H277850   0.960   2.737   0.680  0.6271 -0.7913 -0.2215
18787TIP3   OH277851   4.984   0.242   1.995 -0.7933  0.2448  0.1783
18787TIP3    H177852   4.987   0.264   2.088 -1.7685  1.0608  0.0261
18787TIP3    H277853   5.008   0.323   1.950 -1.5345  0.2003 -0.3104
18788TIP3   OH277854   6.800   0.148  16.388  0.3194  0.3186 -0.1162
18788TIP3    H177855   6.712   0.115  16.371 -0.4384  1.3259  1.6664
18788TIP3    H277856   6.856   0.102  16.325 -1.4139 -0.6279 -0.9974
18789TIP3   OH277857   5.088   1.415  14.639 -0.0541  0.1218 -0.7570
18789TIP3    H177858   5.073   1.482  14.573  0.6031  1.3697  0.3206
18789TIP3    H277859   5.049   1.451  14.719  1.0132 -0.4119  0.0179
18790TIP3   OH277860   3.695   2.033  13.214 -0.2942  0.1537 -0.0172
18790TIP3    H177861   3.739   2.100  13.162  0.5914 -1.0081 -0.8170
18790TIP3    H277862   3.760   2.008  13.280 -0.4332 -0.2744 -0.0423
18791TIP3   OH277863   1.736   2.692  12.316  0.1932  0.2039  0.0235
18791TIP3    H177864   1.717   2.687  12.223  0.4356  3.4046 -0.2610
18791TIP3    H277865   1.651   2.713  12.357  0.3786  0.4078  0.3148
18792TIP3   OH277866   2.839   2.399   0.479  0.4568 -0.2258 -0.1287
18792TIP3    H177867   2.785   2.459   0.531  0.7729 -1.1572  1.2812
18792TIP3    H277868   2.900   2.360   0.542  0.3444 -1.9353 -1.0447
18793TIP3   OH277869   5.241   6.401   2.507 -0.6266  0.0947 -0.5465
18793TIP3    H177870   5.179   6.329   2.496 -0.9828  0.5022 -1.2553
18793TIP3    H277871   5.186   6.480   2.513 -0.2919  0.2025  1.3412
18794TIP3   OH277872   3.209   1.235  13.212  1.4032 -0.1863  0.5602
18794TIP3    H177873   3.189   1.192  13.128 -0.7868 -1.9124  1.9008
18794TIP3    H277874   3.302   1.219  13.226  1.7964  0.1236 -1.5301
18795TIP3   OH277875   6.591   1.776   5.369 -0.1064  0.7750  0.2095
18795TIP3    H177876   6.543   1.737   5.441 -2.2469  1.7369 -0.6729
18795TIP3    H277877   6.575   1.717   5.295 -0.3422  1.3488 -0.2044
18796TIP3   OH277878   4.553   4.391   5.131 -0.9500  0.5497  0.1459
18796TIP3    H177879   4.627   4.452   5.128  0.1127 -0.7216 -4.5513
18796TIP3    H277880   4.594   4.305   5.144 -1.9216  0.2119  1.0274
18797TIP3   OH277881   4.563   3.502   4.484  0.5190  0.0393 -0.5819
18797TIP3    H177882   4.522   3.584   4.512  0.6441 -0.1789  0.2777
18797TIP3    H277883   4.518   3.479   4.403  0.0335  0.6232 -0.4833
18798TIP3   OH277884   5.861   3.052   1.378 -0.5149 -0.1011  0.0107
18798TIP3    H177885   5.845   3.017   1.466  1.7683  0.7227  0.8065
18798TIP3    H277886   5.839   3.145   1.385 -2.5313 -0.4907 -0.9383
18799TIP3   OH277887   6.440   1.001   4.477 -0.0708  0.8844 -0.3275
18799TIP3    H177888   6.411   0.924   4.428 -1.9641  0.2721  1.6718
18799TIP3    H277889   6.385   1.072   4.446  0.2050  0.9623 -0.6360
18800TIP3   OH277890   5.353   2.055  11.328 -0.4207  0.0556 -0.3509
18800TIP3    H177891   5.304   2.125  11.371  0.4277  0.1880  0.4254
18800TIP3    H277892   5.357   1.986  11.394  0.1781 -0.0681 -0.5151
18801TIP3   OH277893   3.852   3.979   3.619  0.4056 -0.3413  0.2655
18801TIP3    H177894   3.834   4.068   3.648  0.8106 -0.6673  1.5271
18801TIP3    H277895   3.912   3.989   3.545 -0.3974  0.4696 -0.2967
18802TIP3   OH277896   3.810   6.204  14.088 -0.0975 -0.3235 -0.4775
18802TIP3    H177897   3.837   6.233  14.175  0.0085  1.9093 -1.2289
18802TIP3    H277898   3.890   6.171  14.048 -0.2352 -1.7979  0.4129
18803TIP3   OH277899   3.983   2.306   3.498  0.2147 -0.0479 -0.2375
18803TIP3    H177900   3.966   2.339   3.586 -0.5179  3.4880 -1.6036
18803TIP3    H277901   3.972   2.212   3.505 -0.2384  0.1985  3.3546
18804TIP3   OH277902   5.015   0.065  12.324 -0.4468 -0.4796  0.1433
18804TIP3    H177903   5.088   0.016  12.360 -0.0981  0.6749  1.0055
18804TIP3    H277904   5.001   0.026  12.237 -0.1468 -2.0596  0.7903
18805TIP3   OH277905   6.187   3.277  16.664 -0.1723  0.6444  0.2823
18805TIP3    H177906   6.226   3.193  16.642 -0.3412  0.5540  0.3309
18805TIP3    H277907   6.169   3.318  16.579 -1.6382 -0.0783  0.2152
18806TIP3   OH277908   6.100   4.485  17.211  0.0106 -0.3181 -0.2249
18806TIP3    H177909   6.065   4.430  17.280  0.4564 -0.2890  0.0198
18806TIP3    H277910   6.034   4.481  17.141  0.2743 -1.5436 -0.4020
18807TIP3   OH277911   6.383   5.937  14.719  0.1105 -0.3365  0.3528
18807TIP3    H177912   6.376   6.032  14.705 -0.5114 -0.6447 -1.7068
18807TIP3    H277913   6.474   5.916  14.697  0.8774  0.0861  3.0000
18808TIP3   OH277914   1.083   6.817  15.842 -0.0881  0.0821 -0.6011
18808TIP3    H177915   1.117   6.797  15.755 -0.0322 -2.9649  0.0634
18808TIP3    H277916   1.089   6.912  15.848  1.3448  0.2391 -3.3295
18809TIP3   OH277917   5.006   2.426  14.471  0.0436  0.3510  0.5415
18809TIP3    H177918   4.940   2.358  14.480 -0.7286  1.1331  0.9002
18809TIP3    H277919   4.979   2.495  14.532  1.0646  0.7780  0.5341
18810TIP3   OH277920   0.745   2.925   3.637  0.3383 -0.2357 -0.3138
18810TIP3    H177921   0.654   2.956   3.639  0.8965  1.4723 -0.5394
18810TIP3    H277922   0.757   2.892   3.548  0.2716  0.5908 -0.6330
18811TIP3   OH277923   6.147   2.143   4.712 -0.2913  0.3294 -0.0906
18811TIP3    H177924   6.205   2.077   4.748  0.6889  0.7214 -0.9298
18811TIP3    H277925   6.130   2.115   4.622  1.2288  1.8922 -0.9028
18812TIP3   OH277926   1.886   4.929  16.106 -0.1704  0.1436  0.1980
18812TIP3    H177927   1.804   4.972  16.132 -0.1744  0.0616  0.3213
18812TIP3    H277928   1.937   4.923  16.187 -0.1048  0.0583  0.1496
18813TIP3   OH277929   4.186   2.203  13.000  0.0515  0.2037 -0.1081
18813TIP3    H177930   4.264   2.150  13.014  1.0834  1.2719 -1.7060
18813TIP3    H277931   4.219   2.290  12.976 -1.6097  0.5897 -1.1302
18814TIP3   OH277932   3.567   5.662  12.961 -0.4348 -0.2903 -0.1147
18814TIP3    H177933   3.527   5.641  13.046  0.0918 -0.3852  0.1129
18814TIP3    H277934   3.658   5.686  12.982 -0.4993  0.3741 -0.5794
18815TIP3   OH277935   4.102   4.067   5.772  0.0661  0.5123  0.7589
18815TIP3    H177936   4.090   3.988   5.719  1.7302  0.4492  0.4524
18815TIP3    H277937   4.028   4.066   5.833 -0.3916 -0.8342  0.2083
18816TIP3   OH277938   5.114   1.265   0.556  0.0485 -0.4327  0.4840
18816TIP3    H177939   5.176   1.310   0.614  0.4306  0.4276 -0.5711
18816TIP3    H277940   5.169   1.205   0.505  0.6465  2.8324 -2.9567
18817TIP3   OH277941   1.971   6.797  14.712 -0.4224  0.1184  0.0605
18817TIP3    H177942   1.958   6.703  14.728 -1.4538  0.2772  0.1617
18817TIP3    H277943   2.009   6.800  14.623 -1.1088 -0.3504 -0.2529
18818TIP3   OH277944   1.649   5.957   0.067  0.1387 -0.8534  0.0879
18818TIP3    H177945   1.655   5.867   0.102 -1.5621 -0.1282  2.3917
18818TIP3    H277946   1.566   5.990   0.102  1.6169  2.2367  0.7955
18819TIP3   OH277947   4.320   3.217   2.053 -0.2662  0.7378 -0.5052
18819TIP3    H177948   4.291   3.170   1.975  0.2790 -0.9989  0.3147
18819TIP3    H277949   4.243   3.219   2.110 -1.0964  3.3101 -1.6734
18820TIP3   OH277950   2.026   5.104  12.943  0.0129 -0.1688 -0.5376
18820TIP3    H177951   1.955   5.047  12.915  0.0191  0.5594 -2.1112
18820TIP3    H277952   1.989   5.156  13.015 -0.5393 -0.8976 -0.2951
18821TIP3   OH277953   1.671   0.300   5.107  0.0643 -0.2298  0.0367
18821TIP3    H177954   1.728   0.227   5.131 -0.0062 -0.5216 -0.6969
18821TIP3    H277955   1.720   0.349   5.042 -1.3365 -1.6546 -2.1796
18822TIP3   OH277956   5.877   0.353   1.270  0.0622  0.2558  0.5165
18822TIP3    H177957   5.785   0.378   1.274  0.1834  0.5213  1.9624
18822TIP3    H277958   5.916   0.416   1.209 -0.9759 -0.7384 -1.2040
18823TIP3   OH277959   3.997   4.912  14.593 -0.2913 -0.8043  1.0638
18823TIP3    H177960   3.951   4.878  14.516 -2.7368 -0.6913  2.4272
18823TIP3    H277961   4.038   4.835  14.633  0.3780 -0.9720  0.0637
18824TIP3   OH277962   5.829   6.390   4.886 -0.4025  0.3403 -0.1222
18824TIP3    H177963   5.770   6.465   4.880  0.8442  1.1960 -2.1634
18824TIP3    H277964   5.840   6.361   4.795 -1.2951 -2.6831  0.6767
18825TIP3   OH277965   1.796   3.492   1.645  0.3567  0.4998  0.0273
18825TIP3    H177966   1.762   3.417   1.693  1.7913  0.9351  1.7483
18825TIP3    H277967   1.888   3.470   1.628 -0.3281 -0.0673 -3.3746
18826TIP3   OH277968   2.437   4.653   6.577 -0.0613  0.1980  0.1740
18826TIP3    H177969   2.450   4.576   6.521  0.7510  0.8461 -0.5382
18826TIP3    H277970   2.367   4.627   6.637 -1.8124 -0.0897 -1.9201
18827TIP3   OH277971   5.846   6.671  14.150 -0.1588  0.4766  0.6235
18827TIP3    H177972   5.849   6.651  14.244  0.5801 -1.8873  0.1389
18827TIP3    H277973   5.761   6.637  14.122 -0.6341  1.7209  0.5284
18828TIP3   OH277974   4.979   0.581  16.420 -0.1499 -0.0111  0.0295
18828TIP3    H177975   5.024   0.591  16.504 -0.9216  0.3147  0.4065
18828TIP3    H277976   5.050   0.575  16.356  0.4376  0.1150  0.6550
18829TIP3   OH277977   3.851   6.147  12.443  0.3004  0.5313 -0.0136
18829TIP3    H177978   3.831   6.236  12.413  2.9251  0.8281 -0.9901
18829TIP3    H277979   3.921   6.117  12.386 -0.7416 -2.3266  0.1184
18830TIP3   OH277980   3.998   5.015   5.766 -0.2481 -0.2611 -0.2662
18830TIP3    H177981   4.072   5.071   5.790  1.1189 -2.2363  0.2478
18830TIP3    H277982   4.022   4.977   5.682 -0.8724 -0.5588 -0.3150
18831TIP3   OH277983   4.572   0.612   5.196 -0.7973  0.3415  0.3336
18831TIP3    H177984   4.565   0.587   5.104 -2.2993 -1.0734  0.8122
18831TIP3    H277985   4.526   0.543   5.244  0.8052  0.5386  2.2361
18832TIP3   OH277986   6.719   4.160   2.120  0.0433 -0.1215  0.0277
18832TIP3    H177987   6.684   4.202   2.041  1.6487 -0.3294 -0.8240
18832TIP3    H277988   6.644   4.115   2.158 -0.7317 -0.1656 -1.4910
18833TIP3   OH277989   4.739   3.987  13.411  0.1817 -1.4306 -0.4334
18833TIP3    H177990   4.649   3.959  13.428 -0.4689  0.3256 -0.8879
18833TIP3    H277991   4.747   4.071  13.456  1.8322 -1.9299  0.2282
18834TIP3   OH277992   5.059   5.054  12.410 -0.4936  0.7836 -0.6074
18834TIP3    H177993   5.078   4.960  12.401 -2.2591  0.2706  0.5938
18834TIP3    H277994   5.010   5.060  12.492 -0.1299  2.8171 -0.5193
18835TIP3   OH277995   0.466   2.040  16.935 -0.4763 -0.5212 -0.1298
18835TIP3    H177996   0.442   2.005  16.849 -1.0788 -0.8886  0.1775
18835TIP3    H277997   0.561   2.045  16.934 -0.4911 -0.3989 -0.8676
18836TIP3   OH277998   5.705   2.065  13.062  0.2752  0.9761 -0.0183
18836TIP3    H177999   5.702   2.160  13.074 -1.7270  0.8349  0.7762
18836TIP3    H278000   5.635   2.032  13.117  0.6973 -0.9436 -0.6070
18837TIP3   OH278001   5.404   6.525  16.682 -0.4229  0.0107 -0.1522
18837TIP3    H178002   5.315   6.495  16.664 -0.2929  0.0025 -0.7861
18837TIP3    H278003   5.440   6.547  16.596 -0.1053  0.8338  0.1794
18838TIP3   OH278004   0.680   6.240  17.001  0.2945 -0.6301  0.0903
18838TIP3    H178005   0.669   6.225  16.907 -0.3275  0.4298 -0.0139
18838TIP3    H278006   0.646   6.160  17.041  1.1034 -1.3334 -0.6069
18839TIP3   OH278007   0.177   5.386   2.735 -0.4928 -0.0571 -0.1135
18839TIP3    H178008   0.105   5.322   2.733  0.3403 -1.0704  1.4957
18839TIP3    H278009   0.144   5.458   2.788  0.0904 -1.0570  1.6399
18840TIP3   OH278010   0.867   5.823   2.335  0.0572  0.5632  0.1544
18840TIP3    H178011   0.780   5.793   2.364  0.5278  0.8880  1.9781
18840TIP3    H278012   0.920   5.744   2.331  0.0526  0.5466  0.4132
18841TIP3   OH278013   1.203   1.741   2.704 -0.3249 -0.1913  0.0964
18841TIP3    H178014   1.158   1.704   2.781  0.8748 -0.7239  0.5629
18841TIP3    H278015   1.262   1.807   2.741 -0.4296  0.2139 -0.4643
18842TIP3   OH278016   4.100   6.427   4.098  0.0936 -0.1872 -0.3033
18842TIP3    H178017   4.148   6.393   4.173 -0.6629  0.7111  0.6028
18842TIP3    H278018   4.160   6.415   4.024  1.5761  0.5763  0.7497
18843TIP3   OH278019   5.820   4.963   2.860 -0.4039  1.1442  0.3880
18843TIP3    H178020   5.776   5.034   2.907 -1.0374  0.1546  1.3181
18843TIP3    H278021   5.750   4.899   2.842  0.2110  0.6233 -0.1911
18844TIP3   OH278022   1.440   4.521   4.467  0.4326 -0.1055 -0.3017
18844TIP3    H178023   1.532   4.521   4.495  0.9589  0.6898 -1.9493
18844TIP3    H278024   1.405   4.604   4.500  0.7829  0.3827 -1.1503
18845TIP3   OH278025   3.442   0.232   6.561 -0.3495 -0.1200 -0.0476
18845TIP3    H178026   3.537   0.235   6.551 -0.2044  2.5343  1.6670
18845TIP3    H278027   3.424   0.146   6.599  1.3813 -0.5241 -0.1045
18846TIP3   OH278028   4.546   0.353   3.521 -0.6436 -0.0007  0.9931
18846TIP3    H178029   4.603   0.305   3.461  0.8510  1.4687  1.2238
18846TIP3    H278030   4.497   0.284   3.567  0.8913 -1.2673  0.7602
18847TIP3   OH278031   2.701   5.210   5.353 -0.0146  0.3643  0.6935
18847TIP3    H178032   2.772   5.151   5.379 -0.2533 -0.4875 -0.5142
18847TIP3    H278033   2.667   5.172   5.272 -2.5409  0.1600  1.7814
18848TIP3   OH278034   1.815   0.536   0.217  0.4361  0.3850 -0.7057
18848TIP3    H178035   1.743   0.535   0.154 -0.6498 -0.3744  0.5276
18848TIP3    H278036   1.828   0.629   0.238 -0.7064  0.4718 -0.3615
18849TIP3   OH278037   1.132   5.008  11.238  0.4977  0.1551 -0.1261
18849TIP3    H178038   1.098   5.067  11.305  0.1381 -3.0030  2.6124
18849TIP3    H278039   1.055   4.987  11.184  0.1617  0.4339  0.2400
18850TIP3   OH278040   2.405   3.277   0.620  0.2053  0.5775 -0.9712
18850TIP3    H178041   2.379   3.348   0.562  1.0446  0.8182 -1.0633
18850TIP3    H278042   2.500   3.269   0.607  0.5322  1.0959  0.8417
18851TIP3   OH278043   0.111   0.775  11.256 -0.6633  0.5237 -0.2291
18851TIP3    H178044   0.079   0.712  11.320  0.0997  0.4087  0.0547
18851TIP3    H278045   0.124   0.856  11.307 -2.0016  1.0262 -0.6684
18852TIP3   OH278046   0.895   3.579   1.302  0.0452 -0.0013 -0.2738
18852TIP3    H178047   0.963   3.519   1.334  0.3066  2.2018  3.5548
18852TIP3    H278048   0.814   3.548   1.344 -0.3459  0.6188 -0.5588
18853TIP3   OH278049   5.620   1.171   5.200  0.1811 -0.1760 -0.2023
18853TIP3    H178050   5.582   1.103   5.144  0.1095  0.3153 -0.7494
18853TIP3    H278051   5.545   1.220   5.234  0.1215 -1.4426  1.5930
18854TIP3   OH278052   3.291   1.696  15.804  0.3127 -0.1136 -0.3733
18854TIP3    H178053   3.197   1.702  15.792  0.1523 -2.0418 -0.1834
18854TIP3    H278054   3.317   1.782  15.839 -1.3842  0.3402 -0.2149
18855TIP3   OH278055   5.332   3.913  16.147 -0.1410  0.3332  0.3251
18855TIP3    H178056   5.264   3.908  16.214 -1.2104 -0.2466 -0.7736
18855TIP3    H278057   5.414   3.899  16.195 -0.7637  1.2907  1.7017
18856TIP3   OH278058   2.681   2.376  13.080 -0.4637  0.3153  0.0882
18856TIP3    H178059   2.607   2.363  13.021 -1.5066 -0.8031  1.6053
18856TIP3    H278060   2.642   2.400  13.164  0.7868 -1.3752  1.2107
18857TIP3   OH278061   0.524   3.988  15.837 -0.0040  0.1926 -0.5629
18857TIP3    H178062   0.579   4.029  15.769  0.0141  0.7726 -0.2049
18857TIP3    H278063   0.540   4.041  15.915 -1.5034  0.7133 -0.5923
18858TIP3   OH278064   3.710   3.764   0.124 -0.1214  0.0841 -0.2006
18858TIP3    H178065   3.675   3.708   0.054  1.2590  1.0982 -1.7586
18858TIP3    H278066   3.788   3.717   0.155  0.2306  0.4456 -0.5307
18859TIP3   OH278067   1.747   6.114   2.369  0.0319 -0.3966  0.1067
18859TIP3    H178068   1.774   6.082   2.283  0.8581  1.1993 -0.2476
18859TIP3    H278069   1.657   6.144   2.356  0.5606  0.9473 -0.5084
18860TIP3   OH278070   2.775   3.600  14.581 -0.0969 -0.4654 -0.1550
18860TIP3    H178071   2.702   3.585  14.641 -0.6793  0.1280 -0.7010
18860TIP3    H278072   2.749   3.556  14.501  0.6341 -1.1675 -0.0035
18861TIP3   OH278073   0.206   5.726   2.693 -0.4768  0.2570  0.1867
18861TIP3    H178074   0.258   5.647   2.683  0.9323  1.3269 -1.1393
18861TIP3    H278075   0.221   5.754   2.783  0.2465 -0.1227  0.1848
18862TIP3   OH278076   5.428   2.076   1.409 -0.3022  0.1980 -0.2111
18862TIP3    H178077   5.416   2.155   1.463  1.3289  0.2039  0.1687
18862TIP3    H278078   5.492   2.102   1.343 -0.6618 -0.4588 -0.8204
18863TIP3   OH278079   0.047   3.607  11.480  0.0790 -0.1736  0.5393
18863TIP3    H178080   0.135   3.641  11.497  0.1216 -0.8017  1.5925
18863TIP3    H278081  -0.004   3.684  11.453  1.1589  0.0457 -0.9269
18864TIP3   OH278082   4.655   2.961  12.926 -0.0721  0.0187 -0.6016
18864TIP3    H178083   4.682   3.011  12.848 -1.3080  1.6922  0.0092
18864TIP3    H278084   4.605   2.887  12.891  0.2611  0.1877 -1.4474
18865TIP3   OH278085   4.485   1.886   0.351  0.0923 -0.7674 -0.5327
18865TIP3    H178086   4.543   1.828   0.301  0.0568 -0.0855 -1.3688
18865TIP3    H278087   4.397   1.861   0.323 -0.0270 -1.6750  0.5986
18866TIP3   OH278088   3.697   4.021  14.633 -0.2252 -0.4002  0.5841
18866TIP3    H178089   3.775   4.071  14.609 -1.7323  0.8854 -1.8975
18866TIP3    H278090   3.657   4.071  14.705  1.0028 -0.8524  1.5888
18867TIP3   OH278091   4.157   1.846  14.800  0.4769 -0.2536 -0.0226
18867TIP3    H178092   4.221   1.877  14.735  1.2602  2.4429  1.9587
18867TIP3    H278093   4.211   1.809  14.870 -0.2916 -1.3904 -0.0254
18868TIP3   OH278094   4.669   3.251  11.006  0.1705  1.1868 -0.5885
18868TIP3    H178095   4.746   3.205  11.037 -0.0542  0.9177 -0.4340
18868TIP3    H278096   4.684   3.343  11.030  0.3619  1.1067 -0.4080
18869TIP3   OH278097   5.423   3.401  16.366 -0.0583  0.0568 -0.2697
18869TIP3    H178098   5.336   3.431  16.338  0.1346  0.2614 -0.6659
18869TIP3    H278099   5.467   3.481  16.395 -0.9531 -0.4309  2.6000
18870TIP3   OH278100   3.993   6.035   4.504 -0.4559 -0.2312 -0.1691
18870TIP3    H178101   4.030   6.081   4.580  0.0416  0.2814 -0.7207
18870TIP3    H278102   3.940   6.100   4.460 -1.2781 -0.7107  0.0919
18871TIP3   OH278103   3.139   3.922  15.383 -0.5209  0.6045 -0.3814
18871TIP3    H178104   3.049   3.890  15.385 -0.3063  0.0281  0.0298
18871TIP3    H278105   3.131   4.016  15.403 -0.9607  0.4063  0.4147
18872TIP3   OH278106   0.325   3.039  17.036 -0.1431 -0.4615 -0.3904
18872TIP3    H178107   0.375   3.107  16.990 -1.2021  1.1629  0.8221
18872TIP3    H278108   0.240   3.080  17.054 -1.3825 -2.6712 -1.0724
18873TIP3   OH278109   3.724   3.342  10.775  0.1837  0.2922 -0.1745
18873TIP3    H178110   3.711   3.386  10.859  0.6949 -2.3493  1.3730
18873TIP3    H278111   3.801   3.286  10.790 -0.4094 -1.0626 -2.0417
18874TIP3   OH278112   5.316   6.024  16.736 -0.3529  0.1207 -0.2727
18874TIP3    H178113   5.354   6.094  16.683  0.8447  0.6069  1.1894
18874TIP3    H278114   5.335   5.944  16.689  2.1622  0.3975  0.2306
18875TIP3   OH278115   6.713   0.790   3.141 -0.6225 -0.1844 -0.5212
18875TIP3    H178116   6.696   0.844   3.217 -0.1690  0.6949 -1.0388
18875TIP3    H278117   6.795   0.825   3.104  0.3485 -1.9899 -0.1628
18876TIP3   OH278118   1.547   3.556  16.840  0.3479 -0.1701  0.5061
18876TIP3    H178119   1.583   3.493  16.903  0.1335  0.2640  1.0691
18876TIP3    H278120   1.489   3.611  16.892 -0.6901 -0.4993 -0.2930
18877TIP3   OH278121   4.531   0.387   0.697 -0.0928 -0.3830 -0.0571
18877TIP3    H178122   4.437   0.394   0.677  0.1361 -2.1015 -1.8421
18877TIP3    H278123   4.570   0.463   0.654 -0.1623 -1.7830 -2.6356
18878TIP3   OH278124   5.044   0.231  14.590 -0.1878 -0.1255  0.4747
18878TIP3    H178125   5.036   0.293  14.662  0.5381 -1.6196  1.8789
18878TIP3    H278126   5.134   0.240  14.559 -0.4738  0.4553 -0.1879
18879TIP3   OH278127   0.876   3.629  17.005  0.0865 -1.0332  0.1018
18879TIP3    H178128   0.933   3.700  16.975 -0.3640 -0.3763  0.8032
18879TIP3    H278129   0.827   3.666  17.078 -0.0920 -2.0918  0.5289
18880TIP3   OH278130   1.977   3.288  17.002  0.0407  0.0934  0.8496
18880TIP3    H178131   1.970   3.197  17.032 -0.7647  0.3551  1.4867
18880TIP3    H278132   2.069   3.299  16.979 -0.4728 -1.9844 -2.7297
18881TIP3   OH278133   4.713   4.320   2.054 -0.4995  0.3162 -0.5217
18881TIP3    H178134   4.755   4.324   2.140  1.7585 -1.9961 -1.4811
18881TIP3    H278135   4.640   4.259   2.065 -1.7426  1.8870  0.3141
18882TIP3   OH278136   6.391   5.965  15.771 -0.8243 -0.0092  0.5940
18882TIP3    H178137   6.475   5.964  15.817 -1.1338 -1.2715  1.1546
18882TIP3    H278138   6.392   5.885  15.718 -1.2057  0.5413 -0.2361
18883TIP3   OH278139   1.623   0.222   5.810 -0.2151  0.3040 -0.6483
18883TIP3    H178140   1.577   0.303   5.788  0.5017  0.2985 -2.3193
18883TIP3    H278141   1.617   0.169   5.730  2.2237  0.1241 -0.7718
18884TIP3   OH278142   1.047   3.568  13.807  0.6758 -0.0930  0.3226
18884TIP3    H178143   1.039   3.660  13.781  0.9025  0.6264  2.6572
18884TIP3    H278144   1.141   3.553  13.811  0.6575 -0.0075  1.2668
18885TIP3   OH278145   0.036   6.555   0.631 -0.7635  0.0800  0.1443
18885TIP3    H178146  -0.004   6.628   0.678 -0.3495  0.9046 -0.7527
18885TIP3    H278147   0.033   6.582   0.539  1.6481  0.0685  0.0236
18886TIP3   OH278148   0.373   0.084   2.044  0.7022 -0.2591  0.5218
18886TIP3    H178149   0.393   0.096   2.136  0.2661  1.9750  0.3546
18886TIP3    H278150   0.458   0.092   1.999  0.5033  1.8281  0.4699
18887TIP3   OH278151   4.807   5.507  11.319  0.0262  0.7779 -0.1414
18887TIP3    H178152   4.868   5.574  11.349 -1.1177  2.7234 -1.9990
18887TIP3    H278153   4.857   5.458  11.253  0.1898  1.1770 -0.3179
18888TIP3   OH278154   4.725   0.988   4.316 -0.0182  0.7107  0.1625
18888TIP3    H178155   4.809   0.941   4.314 -0.0028  0.7456 -0.0800
18888TIP3    H278156   4.674   0.943   4.383  0.6061  1.4025  1.1134
18889TIP3   OH278157   2.800   5.633  16.679 -0.1761  0.3594 -0.2684
18889TIP3    H178158   2.813   5.600  16.768  1.0766  1.3765 -0.0532
18889TIP3    H278159   2.725   5.692  16.686  1.8645  2.9263  0.8154
18890TIP3   OH278160   3.266   6.474   0.498 -0.5739 -0.4585 -0.8666
18890TIP3    H178161   3.294   6.385   0.521  2.4326  0.5743 -0.2495
18890TIP3    H278162   3.203   6.498   0.566 -1.4337 -2.0972 -1.0521
18891TIP3   OH278163   3.059   1.798  15.692 -0.6299 -0.1158 -0.3130
18891TIP3    H178164   3.054   1.894  15.690  3.9376  0.2016 -0.9608
18891TIP3    H278165   3.072   1.773  15.601 -1.5248 -1.3673 -0.1049
18892TIP3   OH278166   3.720   5.599  16.030  0.0108 -0.2522 -0.0883
18892TIP3    H178167   3.762   5.525  16.075 -3.0950 -2.5432 -0.8148
18892TIP3    H278168   3.627   5.590  16.050 -0.5754  2.8834 -1.0875
18893TIP3   OH278169   0.254   2.383   0.108  0.4016 -0.6652  0.2697
18893TIP3    H178170   0.178   2.388   0.049  2.0410 -0.2134 -1.8513
18893TIP3    H278171   0.251   2.465   0.157 -0.7310 -0.8574  0.5587
18894TIP3   OH278172   1.121   5.596  12.680  0.1238  0.2113 -0.5251
18894TIP3    H178173   1.078   5.521  12.638  0.5612 -0.9719  1.0506
18894TIP3    H278174   1.176   5.556  12.748  1.6483  1.8700 -0.7540
18895TIP3   OH278175   3.328   2.769   2.672  0.3500  0.0439  0.4956
18895TIP3    H178176   3.274   2.781   2.750 -0.2693 -0.2531  0.1131
18895TIP3    H278177   3.308   2.680   2.643  0.4906  0.1985 -0.0744
18896TIP3   OH278178   1.720   5.934   4.064  0.1599 -0.1900 -0.1175
18896TIP3    H178179   1.799   5.987   4.056  0.7182 -1.0155 -0.1047
18896TIP3    H278180   1.660   5.972   4.000 -0.1631  1.6973  1.2672
18897TIP3   OH278181   0.478   1.164   0.414  0.4151 -0.2071 -0.0979
18897TIP3    H178182   0.478   1.159   0.510  0.0850  1.0488 -0.0314
18897TIP3    H278183   0.431   1.085   0.386 -0.4613 -0.0158  0.8041
18898TIP3   OH278184   3.050   4.296   3.411  0.1355  0.5413 -0.2482
18898TIP3    H178185   3.131   4.282   3.362  0.4258  0.8024  0.1499
18898TIP3    H278186   2.980   4.292   3.345  0.3904 -0.6078 -0.4598
18899TIP3   OH278187   3.109   5.913   4.537 -0.0899 -0.4492  0.7239
18899TIP3    H178188   3.154   5.828   4.537  0.3145 -0.2390  1.0070
18899TIP3    H278189   3.129   5.950   4.623 -0.4979 -0.1902  0.7052
18900TIP3   OH278190   1.649   3.489  13.684 -0.5426 -0.4334  0.2097
18900TIP3    H178191   1.633   3.556  13.751 -0.6572 -0.3295  0.0793
18900TIP3    H278192   1.633   3.534  13.601 -0.3341 -0.5446  0.1104
18901TIP3   OH278193   1.181   3.809   0.698  0.1094 -0.0006  0.0120
18901TIP3    H178194   1.124   3.731   0.691  3.2367 -2.1964 -2.3826
18901TIP3    H278195   1.225   3.798   0.782 -1.7933  0.9234  1.1752
18902TIP3   OH278196   4.608   4.859  12.915 -0.5555  0.8086 -0.5041
18902TIP3    H178197   4.525   4.887  12.875 -1.3791 -0.0956  0.5323
18902TIP3    H278198   4.598   4.881  13.008  0.0209 -0.0775 -0.2223
18903TIP3   OH278199   5.260   2.163   1.781  0.2169  0.4868  0.2081
18903TIP3    H178200   5.293   2.075   1.763  1.6748  0.9532  0.4667
18903TIP3    H278201   5.290   2.182   1.870  3.2977  2.6903 -1.2027
18904TIP3   OH278202   5.923   2.406   3.617 -0.3199 -0.0473  0.5654
18904TIP3    H178203   5.945   2.340   3.551  0.3846  1.0572 -0.3186
18904TIP3    H278204   5.985   2.477   3.601  0.0471  0.1085  2.6170
18905TIP3   OH278205   6.738   5.052  15.067 -0.0223  0.1721 -0.7226
18905TIP3    H178206   6.663   5.097  15.028 -0.2246  0.0022 -0.5205
18905TIP3    H278207   6.703   4.971  15.103 -0.7361  2.5006  4.1424
18906TIP3   OH278208   4.420   1.316   6.456 -0.0679  0.5395 -0.0804
18906TIP3    H178209   4.366   1.290   6.530 -1.8605 -0.4997 -1.6824
18906TIP3    H278210   4.403   1.410   6.445 -3.1139 -0.1441 -1.7234
18907TIP3   OH278211   5.028   5.192   1.934 -0.2252 -0.0823 -0.0410
18907TIP3    H178212   4.992   5.104   1.944  2.0103 -0.8854  1.0828
18907TIP3    H278213   4.969   5.234   1.870 -1.1367 -2.4573 -0.8391
18908TIP3   OH278214   0.701   2.296   5.478  0.1837  0.7376 -0.2343
18908TIP3    H178215   0.691   2.226   5.542 -1.8009  0.0395 -1.2572
18908TIP3    H278216   0.612   2.326   5.462  0.6869  1.1708 -2.3546
18909TIP3   OH278217   2.448   1.938  12.010 -0.6505 -0.1487 -0.1330
18909TIP3    H178218   2.502   1.916  11.934 -1.1810  0.5307 -0.7051
18909TIP3    H278219   2.358   1.940  11.977 -1.1335 -1.9346  0.9519
18910TIP3   OH278220   6.166   3.717  13.522 -0.5703  0.0101 -0.4914
18910TIP3    H178221   6.077   3.682  13.529  0.1545 -1.8417 -0.2362
18910TIP3    H278222   6.216   3.666  13.585  0.2552  2.5153  0.9426
18911TIP3   OH278223   3.812   5.215   2.463 -0.3785  0.3992 -0.3398
18911TIP3    H178224   3.790   5.271   2.538 -1.6055 -0.6990  0.1357
18911TIP3    H278225   3.871   5.149   2.499 -1.4268 -0.4719 -0.2096
18912TIP3   OH278226   2.757   2.677  12.255 -0.7809 -0.6472 -0.0288
18912TIP3    H178227   2.709   2.596  12.269  1.1764 -1.5669  1.7925
18912TIP3    H278228   2.774   2.710  12.344  1.4033 -0.0597 -0.6354
18913TIP3   OH278229   4.034   3.950  12.046  0.2421  0.2317  0.0315
18913TIP3    H178230   3.975   3.933  11.972 -1.1500  1.3475  0.8478
18913TIP3    H278231   4.112   3.988  12.006  0.3583 -1.1020 -1.0561
18914TIP3   OH278232   4.444   3.773   4.542  0.1721  0.4825  0.8257
18914TIP3    H178233   4.508   3.788   4.612 -1.3632  3.3358  1.6822
18914TIP3    H278234   4.381   3.844   4.551 -1.3935 -0.4652 -2.0038
18915TIP3   OH278235   3.477   0.058   4.118  0.0991  0.0268  0.0045
18915TIP3    H178236   3.444  -0.030   4.097  0.8444  0.0441 -1.3247
18915TIP3    H278237   3.556   0.066   4.065 -0.9061  2.1645 -1.2278
18916TIP3   OH278238   0.203   6.326  15.653  0.0948 -0.3533 -0.6229
18916TIP3    H178239   0.283   6.320  15.600  1.4085  0.4089  1.2068
18916TIP3    H278240   0.175   6.417  15.644 -1.0058 -0.8038 -1.8572
18917TIP3   OH278241   4.215   0.964  15.809 -0.3614 -0.4173  0.3938
18917TIP3    H178242   4.264   1.002  15.736  0.2207  1.0736  1.5340
18917TIP3    H278243   4.168   0.890  15.771  1.1076 -0.5624 -1.1661
18918TIP3   OH278244   1.553   5.009   1.851  0.1171 -0.1271 -0.9068
18918TIP3    H178245   1.514   5.090   1.884  0.3193 -0.1307 -0.6605
18918TIP3    H278246   1.646   5.029   1.843  0.4511 -0.8838  0.8377
18919TIP3   OH278247   6.501   0.491  16.917 -0.1290  0.1019  0.0937
18919TIP3    H178248   6.499   0.460  16.826 -0.2615  0.6133 -0.0824
18919TIP3    H278249   6.428   0.445  16.959 -1.6781  1.7551 -0.6995
18920TIP3   OH278250   2.107   5.283  10.811 -0.5018  0.3280  0.3175
18920TIP3    H178251   2.048   5.358  10.824 -2.3784 -0.8488 -1.1171
18920TIP3    H278252   2.048   5.208  10.807  0.9586 -0.7150 -2.7693
18921TIP3   OH278253   2.502   5.965  12.504  0.2323 -0.4767  0.0243
18921TIP3    H178254   2.425   5.908  12.504  0.0806 -0.2925  1.7936
18921TIP3    H278255   2.541   5.953  12.590  2.2221 -0.5806 -0.8691
18922TIP3   OH278256   1.865   2.070  11.977  0.5802 -0.0852  0.5094
18922TIP3    H178257   1.833   2.158  11.959  0.1812  0.1249  2.2037
18922TIP3    H278258   1.833   2.050  12.064  4.2850 -0.1933  1.9490
18923TIP3   OH278259   6.767   2.102   1.396  0.1120  0.2311  0.0387
18923TIP3    H178260   6.689   2.070   1.350 -1.0596  0.5711  1.7251
18923TIP3    H278261   6.774   2.046   1.473  0.9646  0.8464  0.4180
18924TIP3   OH278262   4.789   0.725  15.518  0.2851  0.8428  0.2053
18924TIP3    H178263   4.760   0.701  15.430 -0.3170  0.7129  0.4365
18924TIP3    H278264   4.879   0.755  15.506  1.1387 -1.6854 -0.0827
18925TIP3   OH278265   1.165   4.557  12.902 -0.7349  0.1257  0.0946
18925TIP3    H178266   1.223   4.485  12.928  0.7499  0.8804 -1.0028
18925TIP3    H278267   1.105   4.519  12.838  0.0144 -0.1680 -0.4462
18926TIP3   OH278268   0.375   0.464   4.267  0.3485  0.0442 -0.0470
18926TIP3    H178269   0.337   0.421   4.190  1.6065  1.5569 -1.5523
18926TIP3    H278270   0.316   0.538   4.284  0.6068  0.2749 -0.1551
18927TIP3   OH278271   1.253   3.943  14.501 -0.2797 -0.0648  0.3301
18927TIP3    H178272   1.326   3.938  14.564  0.7771  0.7132 -0.8072
18927TIP3    H278273   1.225   4.034  14.504 -0.5866 -0.1496  0.0602
18928TIP3   OH278274   0.530   0.859   3.194 -0.3012 -0.3605 -0.1896
18928TIP3    H178275   0.530   0.904   3.278  0.4010  0.0477 -0.3997
18928TIP3    H278276   0.452   0.804   3.196 -1.5365  1.3709 -0.1984
18929TIP3   OH278277   6.541   0.838   5.971  0.0474  0.1626 -0.0892
18929TIP3    H178278   6.570   0.929   5.970  1.2827 -0.1837  1.4055
18929TIP3    H278279   6.622   0.787   5.957 -0.6841 -0.7080 -1.3017
18930TIP3   OH278280   4.713   4.300  15.867 -0.2435  0.5083  0.2047
18930TIP3    H178281   4.702   4.210  15.898  0.0785  0.2115 -0.5300
18930TIP3    H278282   4.626   4.325  15.836 -0.2656  0.3486  0.1352
18931TIP3   OH278283   6.368   1.382   4.697  0.3492  0.7050  0.2132
18931TIP3    H178284   6.440   1.389   4.634  1.0327  1.2554  1.0432
18931TIP3    H278285   6.293   1.422   4.652  0.4317 -0.3128 -0.8435
18932TIP3   OH278286   0.549   4.289  16.022  0.0932 -0.2869  0.2042
18932TIP3    H178287   0.618   4.341  15.981 -0.6717 -1.1338 -2.2768
18932TIP3    H278288   0.474   4.349  16.030 -0.1896 -0.4778 -0.9293
18933TIP3   OH278289   2.374   1.840  15.740 -0.3284  0.0677 -0.1603
18933TIP3    H178290   2.385   1.751  15.774  0.6926 -0.6885 -2.3573
18933TIP3    H278291   2.288   1.868  15.772 -1.6663 -2.5804 -1.3039
18934TIP3   OH278292   3.498   4.423  16.919  0.2838 -0.8088  0.3206
18934TIP3    H178293   3.423   4.399  16.975 -0.3203 -1.8425 -0.9158
18934TIP3    H278294   3.464   4.418  16.830  1.2573  0.8067 -0.1573
18935TIP3   OH278295   5.620   0.857   1.321  0.0667 -0.3469 -0.0101
18935TIP3    H178296   5.549   0.833   1.381 -0.8333 -1.2698 -1.4130
18935TIP3    H278297   5.689   0.792   1.339 -0.3141 -0.8028 -0.1847
18936TIP3   OH278298   2.801   2.137   2.324 -0.1913  0.3205  0.0860
18936TIP3    H178299   2.892   2.110   2.336 -0.3181  0.5208  1.7187
18936TIP3    H278300   2.767   2.080   2.255  1.0198 -0.0978 -0.1790
18937TIP3   OH278301   1.677   2.365  12.360 -1.1261 -0.2125 -0.0025
18937TIP3    H178302   1.633   2.292  12.316 -1.4562 -0.0252  0.0215
18937TIP3    H278303   1.698   2.427  12.290 -0.6042 -0.4530 -0.0645
18938TIP3   OH278304   1.183   1.433  14.019 -0.5522  0.4036  0.9703
18938TIP3    H178305   1.176   1.528  14.012 -0.7698  0.2734 -0.9183
18938TIP3    H278306   1.108   1.406  14.072 -1.7503  1.0821 -0.3564
18939TIP3   OH278307   3.955   0.480   1.838  0.2516  0.0024 -0.8598
18939TIP3    H178308   3.926   0.548   1.777 -0.0660  0.3380 -0.3365
18939TIP3    H278309   3.897   0.406   1.821  1.2619 -0.5106 -2.1537
18940TIP3   OH278310   5.983   2.672  14.783  0.8526  0.2984 -0.2933
18940TIP3    H178311   6.038   2.599  14.756  0.7749 -0.4346  1.4301
18940TIP3    H278312   6.016   2.696  14.870  0.3347  1.7620 -0.4853
18941TIP3   OH278313   4.451   6.232  16.300  0.0347 -0.3479 -0.0899
18941TIP3    H178314   4.515   6.163  16.284 -0.0390 -0.6127  0.7210
18941TIP3    H278315   4.445   6.279  16.217  1.7903  0.0933  0.0093
18942TIP3   OH278316   3.134   6.232  13.469  0.1814 -0.5987  0.4033
18942TIP3    H178317   3.177   6.210  13.551  0.1084  0.1560  0.6486
18942TIP3    H278318   3.087   6.314  13.488  1.4755  0.4538 -0.8456
18943TIP3   OH278319   0.649   1.820  10.514 -0.0369  0.2553  0.8268
18943TIP3    H178320   0.698   1.901  10.507  1.2405 -0.4553  1.3797
18943TIP3    H278321   0.572   1.842  10.566 -0.6187  1.5041 -0.5265
18944TIP3   OH278322   3.133   6.171   0.081 -0.2807  0.2956  0.7814
18944TIP3    H178323   3.204   6.203   0.137  1.5376 -0.6208 -0.9160
18944TIP3    H278324   3.129   6.235   0.010 -1.6235  0.7059  1.2216
18945TIP3   OH278325   2.217   4.612  15.514 -0.1627 -0.3951  0.6495
18945TIP3    H178326   2.188   4.670  15.443  0.1249  0.1866  1.0013
18945TIP3    H278327   2.229   4.527  15.472 -1.7837 -0.5115  0.3714
18946TIP3   OH278328   2.071   6.639  13.223  0.4427  0.2536 -0.3589
18946TIP3    H178329   2.061   6.732  13.199  1.3769  0.4212 -0.1338
18946TIP3    H278330   1.990   6.598  13.193  0.3734  0.9906 -1.2249
18947TIP3   OH278331   2.997   5.336  14.896  0.5861  0.4428  0.2731
18947TIP3    H178332   2.957   5.395  14.959  0.2832  0.3865  0.1351
18947TIP3    H278333   2.995   5.384  14.813  0.5134  0.3131  0.1998
18948TIP3   OH278334   6.371   1.996   5.527  0.2713 -0.0995 -0.1457
18948TIP3    H178335   6.297   2.054   5.504  0.3821 -0.4504 -1.4515
18948TIP3    H278336   6.335   1.936   5.592 -0.1075  0.8440  0.5323
18949TIP3   OH278337   4.112   1.748   2.842 -0.3059  0.1657  0.0372
18949TIP3    H178338   4.103   1.655   2.823 -0.2620  0.1009  0.3476
18949TIP3    H278339   4.031   1.787   2.808 -0.2862  0.0293 -0.1707
18950TIP3   OH278340   5.015   3.494   4.208 -0.4332  0.8812  0.0206
18950TIP3    H178341   4.997   3.587   4.221  0.2245  1.1321 -0.8402
18950TIP3    H278342   5.099   3.479   4.251 -0.5890  0.6566  0.2506
18951TIP3   OH278343   0.546   1.337   4.454 -0.3292 -0.0799 -0.0358
18951TIP3    H178344   0.547   1.427   4.484  2.2822  0.2747 -0.9936
18951TIP3    H278345   0.554   1.343   4.358 -1.5895 -1.2941 -0.2368
18952TIP3   OH278346   4.386   2.354   2.221  0.3786 -0.4702  0.1360
18952TIP3    H178347   4.464   2.367   2.168  0.6379  1.0856  0.8692
18952TIP3    H278348   4.416   2.302   2.296  0.6588 -0.1503  0.2504
18953TIP3   OH278349   5.267   3.488   3.272 -0.3633 -0.6347 -0.2223
18953TIP3    H178350   5.355   3.494   3.309 -0.0521 -1.2912 -0.8508
18953TIP3    H278351   5.215   3.446   3.341  0.3893 -2.5621 -0.7993
18954TIP3   OH278352   5.626   2.598   2.944 -0.3340  0.5009  0.0487
18954TIP3    H178353   5.677   2.677   2.957 -0.9326  0.6818  1.3364
18954TIP3    H278354   5.682   2.527   2.975  0.4206  0.3439 -1.6166
18955TIP3   OH278355   1.370   4.299   4.799  0.0433 -0.2963  0.3857
18955TIP3    H178356   1.299   4.355   4.767 -0.8221 -0.8554  1.2950
18955TIP3    H278357   1.408   4.348   4.871  0.6084  0.0153 -0.1198
18956TIP3   OH278358   2.940   0.296   6.260  0.5228 -0.0793 -0.2057
18956TIP3    H178359   2.850   0.298   6.226  0.2979  1.5186  0.4503
18956TIP3    H278360   2.929   0.284   6.354  1.0715 -1.7876 -0.3425
18957TIP3   OH278361   1.063   2.124  16.270 -0.5019  0.4095 -0.1424
18957TIP3    H178362   1.132   2.074  16.225  0.5142  0.9541  0.7781
18957TIP3    H278363   0.990   2.125  16.209  0.2875 -0.2524 -1.1105
18958TIP3   OH278364   3.990   2.148   3.749 -0.1275  0.3440 -0.7088
18958TIP3    H178365   3.915   2.088   3.746 -0.4105  0.6957 -0.7197
18958TIP3    H278366   3.967   2.212   3.816 -0.2087  0.9399 -1.2996
18959TIP3   OH278367   3.384   0.282  13.310  0.1491  0.1253 -0.1621
18959TIP3    H178368   3.329   0.204  13.313 -0.2831  0.4562  0.6685
18959TIP3    H278369   3.469   0.253  13.343  0.8599 -0.6863 -2.6231
18960TIP3   OH278370   5.671   6.538  17.038  0.3522  0.3013 -0.1410
18960TIP3    H178371   5.599   6.509  17.093  0.3569 -0.4219 -0.5143
18960TIP3    H278372   5.735   6.467  17.042  1.1897  1.0647  0.4367
18961TIP3   OH278373   3.498   1.244  13.611  0.2100  0.3083 -0.0060
18961TIP3    H178374   3.475   1.188  13.536 -2.7648  1.9460 -0.3998
18961TIP3    H278375   3.525   1.327  13.572  1.3521  0.2681  0.6808
18962TIP3   OH278376   1.412   2.511   0.916 -0.3114 -0.3722  0.5368
18962TIP3    H178377   1.320   2.535   0.900 -0.2624  0.5083  1.5041
18962TIP3    H278378   1.451   2.509   0.829 -1.1886 -0.4980  0.1342
18963TIP3   OH278379   6.060   2.505   5.319  0.0984 -0.0045  0.3124
18963TIP3    H178380   6.029   2.453   5.246 -0.9644 -0.7722  1.2947
18963TIP3    H278381   6.136   2.457   5.352 -0.0059 -0.1705  0.3125
18964TIP3   OH278382   1.483   0.737  16.148  0.2274  0.0499  0.2517
18964TIP3    H178383   1.390   0.723  16.163  0.7657 -2.5186  1.4519
18964TIP3    H278384   1.501   0.696  16.064 -0.0195  2.0636 -0.8232
18965TIP3   OH278385   0.233   5.852   0.665  0.1826 -0.0277 -0.0195
18965TIP3    H178386   0.229   5.886   0.575  0.7911  1.6639  0.5637
18965TIP3    H278387   0.141   5.845   0.692 -0.0593 -1.8440 -1.2235
18966TIP3   OH278388   2.996   5.717  13.725  0.2453 -0.2849 -0.5137
18966TIP3    H178389   2.901   5.716  13.728  0.2823  0.2090  1.2239
18966TIP3    H278390   3.017   5.774  13.651 -0.7952  0.5284 -0.1898
18967TIP3   OH278391   6.258   2.775   1.104 -0.1249 -0.2308  0.5540
18967TIP3    H178392   6.197   2.836   1.145 -1.8224 -0.3794 -1.6427
18967TIP3    H278393   6.218   2.689   1.116  0.2458 -0.4615  0.1505
18968TIP3   OH278394   0.805   0.796  14.090 -0.2209 -0.3400  0.0580
18968TIP3    H178395   0.835   0.751  14.169 -0.4909  0.4549  0.6280
18968TIP3    H278396   0.712   0.776  14.084  0.0082 -1.2214 -0.6254
18969TIP3   OH278397   5.051   6.586  16.976 -0.1557  0.0938  0.1087
18969TIP3    H178398   4.967   6.614  17.012  0.1829  1.8398 -0.4357
18969TIP3    H278399   5.029   6.549  16.890 -0.5625 -1.0278  0.6876
18970TIP3   OH278400   0.897   1.998   4.093  0.2771 -0.0836 -0.5469
18970TIP3    H178401   0.964   1.964   4.152 -0.7120  1.7732  1.7027
18970TIP3    H278402   0.945   2.036   4.020  1.5461 -1.2256 -0.3299
18971TIP3   OH278403   5.203   5.193   1.122 -0.1343  0.5047 -0.2191
18971TIP3    H178404   5.121   5.190   1.171 -0.6252 -2.5082 -1.1488
18971TIP3    H278405   5.271   5.196   1.190 -0.9277  0.3796  0.5901
18972TIP3   OH278406   3.367   0.864  11.630  0.7404  0.2425 -0.1378
18972TIP3    H178407   3.303   0.809  11.586  0.1952 -0.5888  1.6437
18972TIP3    H278408   3.352   0.952  11.595  0.9425 -0.5435 -2.2561
18973TIP3   OH278409   4.757   0.670   2.770 -0.4649 -0.0351 -0.2236
18973TIP3    H178410   4.687   0.617   2.807  0.0894 -0.5411  0.0921
18973TIP3    H278411   4.744   0.664   2.675  0.5369 -2.0100 -0.2504
18974TIP3   OH278412   4.305   4.400   2.997  0.0629  0.2287 -0.1638
18974TIP3    H178413   4.391   4.440   3.006 -0.6582  1.7765  0.0359
18974TIP3    H278414   4.244   4.474   2.990 -1.3279 -0.8269  0.4125
18975TIP3   OH278415   5.748   0.097  15.646 -0.0856  0.0566  0.7065
18975TIP3    H178416   5.810   0.124  15.714  0.2281  0.6744  0.1835
18975TIP3    H278417   5.763   0.003  15.636  0.0933  0.0246  1.2669
18976TIP3   OH278418   1.569   0.309  16.185  0.4621 -0.2780 -0.4294
18976TIP3    H178419   1.511   0.233  16.184 -0.4361  0.3966 -2.6157
18976TIP3    H278420   1.601   0.313  16.275 -0.6513 -2.3472  0.1009
18977TIP3   OH278421   5.754   2.733  11.102  0.3110  0.2672  0.2076
18977TIP3    H178422   5.768   2.732  11.008 -1.9064  1.1673 -0.1466
18977TIP3    H278423   5.815   2.666  11.136  2.1047  0.9030 -1.6710
18978TIP3   OH278424   2.022   2.489  12.831  0.0480  0.4869  0.2383
18978TIP3    H178425   1.982   2.525  12.751 -0.3993  0.0895  0.2779
18978TIP3    H278426   1.947   2.466  12.886  0.3645  0.9958  0.8797
18979TIP3   OH278427   5.746   3.182   0.094 -0.1745  0.5715  0.0317
18979TIP3    H178428   5.750   3.269   0.054  1.3876  0.0795 -0.9198
18979TIP3    H278429   5.697   3.129   0.031  0.3728  0.3355 -0.1945
18980TIP3   OH278430   3.025   5.219   3.095  0.4391  0.3439 -0.0021
18980TIP3    H178431   3.009   5.141   3.042  1.0705  1.2666 -1.5558
18980TIP3    H278432   2.955   5.217   3.161  1.1548 -2.1728  0.7413
18981TIP3   OH278433   0.642   2.673   2.416  0.5841 -0.2004  0.0315
18981TIP3    H178434   0.551   2.664   2.443  0.3081  1.9172 -0.1176
18981TIP3    H278435   0.692   2.676   2.498  0.5166 -1.1394  0.1159
18982TIP3   OH278436   2.958   5.719  16.454  0.4034  0.2688  0.9422
18982TIP3    H178437   2.918   5.788  16.401 -1.2410 -1.2371  0.1618
18982TIP3    H278438   2.897   5.704  16.526  0.5058 -0.6811  0.8502
18983TIP3   OH278439   3.551   6.369  12.376  0.1715  0.3319  0.7308
18983TIP3    H178440   3.646   6.374  12.384  0.1259 -0.5434  1.8690
18983TIP3    H278441   3.519   6.360  12.466 -0.8765 -1.2307  0.2302
18984TIP3   OH278442   5.678   0.321  16.100  0.0996  0.4961  0.1745
18984TIP3    H178443   5.772   0.339  16.109  0.0839  0.3139  0.7068
18984TIP3    H278444   5.642   0.401  16.064  0.5186  0.4393 -0.3870
18985TIP3   OH278445   3.083   1.999  12.694 -0.1037  0.0227  0.9708
18985TIP3    H178446   3.166   2.025  12.734  0.8205  1.4926 -1.8207
18985TIP3    H278447   3.099   1.910  12.663  0.0981 -0.0592  1.3005
18986TIP3   OH278448   5.197   5.939   5.799  0.2328  0.4033  0.0718
18986TIP3    H178449   5.281   5.982   5.784 -0.3484  1.6548  0.3373
18986TIP3    H278450   5.176   5.958   5.890  0.3422 -1.1382  0.4391
18987TIP3   OH278451   5.676   0.335   1.634 -0.6276  0.3693 -0.2571
18987TIP3    H178452   5.687   0.328   1.729 -0.0125 -1.1237 -0.4268
18987TIP3    H278453   5.763   0.314   1.599 -1.2579 -0.6868 -1.2045
18988TIP3   OH278454   3.722   1.184  12.931 -0.1371  0.2410 -0.0501
18988TIP3    H178455   3.652   1.146  12.983  0.6639 -0.5419  0.4745
18988TIP3    H278456   3.778   1.110  12.908 -0.1296  0.6793 -1.4741
18989TIP3   OH278457   4.702   5.353  13.222  0.1247 -0.2982 -0.1472
18989TIP3    H178458   4.614   5.331  13.191 -0.2502 -0.9697  1.3864
18989TIP3    H278459   4.704   5.326  13.313  2.2189 -1.0951 -0.3951
18990TIP3   OH278460   4.919   0.007   0.388 -0.1676  0.3254  0.2013
18990TIP3    H178461   4.865  -0.032   0.457  0.4992 -1.3428 -0.2195
18990TIP3    H278462   4.997  -0.048   0.384 -0.0970  0.5473 -1.7518
18991TIP3   OH278463   6.523   4.929  13.341  0.0661 -1.1337  0.4796
18991TIP3    H178464   6.506   4.947  13.249 -1.8167 -2.8988  0.4563
18991TIP3    H278465   6.613   4.896  13.343  0.1951 -0.8627 -0.6920
18992TIP3   OH278466   0.265   4.584  15.660 -0.6938  0.2899  0.5465
18992TIP3    H178467   0.212   4.540  15.594 -0.4176 -0.2844  0.7060
18992TIP3    H278468   0.229   4.555  15.744  0.5763 -0.9790  0.6657
18993TIP3   OH278469   6.341   3.630  13.719 -0.4608 -0.2660 -0.1747
18993TIP3    H178470   6.418   3.596  13.674  1.1829  1.6262  1.1382
18993TIP3    H278471   6.331   3.575  13.796 -0.2783 -0.3295 -0.1978
18994TIP3   OH278472   4.042   0.161   2.648 -0.7937 -0.1375  0.7292
18994TIP3    H178473   4.049   0.134   2.740  0.1427 -0.4766  0.5658
18994TIP3    H278474   4.017   0.081   2.601 -0.5448 -0.1342  0.5905
18995TIP3   OH278475   1.993   0.549   5.478  0.5136 -0.5937  0.3105
18995TIP3    H178476   2.080   0.510   5.474  0.9259  0.3302 -0.1032
18995TIP3    H278477   1.953   0.512   5.556  1.1875 -1.2209  0.3617
18996TIP3   OH278478   5.800   1.769  16.053 -0.4713  0.3958  0.0223
18996TIP3    H178479   5.765   1.774  15.964 -0.8269  0.2195  0.1497
18996TIP3    H278480   5.813   1.675  16.068 -0.6876  0.4027  0.2579
18997TIP3   OH278481   6.436   3.860  15.361 -0.1683 -0.5950 -0.5297
18997TIP3    H178482   6.490   3.781  15.361 -0.3590 -0.7769  1.8938
18997TIP3    H278483   6.497   3.931  15.342  0.2894 -1.1628 -1.1817
18998TIP3   OH278484   3.188   0.630   4.696  0.4275  0.5675  0.0425
18998TIP3    H178485   3.145   0.710   4.725 -0.5691 -0.3912  1.2850
18998TIP3    H278486   3.116   0.568   4.683  1.4060 -1.0037  1.9100
18999TIP3   OH278487   6.610   0.560   4.049  1.2319 -0.7307 -0.9159
18999TIP3    H178488   6.568   0.478   4.074  0.9771 -0.9904 -2.1200
18999TIP3    H278489   6.549   0.600   3.986  1.9057 -0.2060 -1.2513
19000TIP3   OH278490   5.790   0.869   4.750  0.3739  0.2197 -0.2503
19000TIP3    H178491   5.882   0.842   4.758 -0.0899 -1.8647 -1.6000
19000TIP3    H278492   5.743   0.788   4.732 -1.2932  1.7711 -3.1157
19001TIP3   OH278493   3.047   0.386   4.997  0.7509  0.1009 -0.2348
19001TIP3    H178494   3.139   0.374   5.020  0.5358 -0.1349  0.5176
19001TIP3    H278495   3.037   0.338   4.914  0.9222 -1.2969  0.5320
19002TIP3   OH278496   3.178   6.753  14.476 -0.1623 -0.1238 -0.0451
19002TIP3    H178497   3.219   6.839  14.462 -0.8354 -0.0156 -1.4712
19002TIP3    H278498   3.252   6.694  14.494  0.5498  0.3075 -1.4030
19003TIP3   OH278499   4.079   1.101  14.269 -0.2068  0.3114 -0.2668
19003TIP3    H178500   4.155   1.077  14.215 -0.3736 -2.9134  0.8117
19003TIP3    H278501   4.005   1.057  14.227 -0.7569 -0.0874  1.0992
19004TIP3   OH278502   6.476   0.832  15.960 -0.4658  0.0091 -0.4758
19004TIP3    H178503   6.476   0.912  15.907 -1.3855 -0.0420 -0.5523
19004TIP3    H278504   6.522   0.857  16.040  1.2340 -0.0029 -1.4300
19005TIP3   OH278505   3.303   3.602   3.053  0.1271  0.1391  0.3160
19005TIP3    H178506   3.375   3.580   3.112  1.1953  0.7111 -0.7444
19005TIP3    H278507   3.337   3.583   2.965 -1.2017 -0.0671 -0.1617
19006TIP3   OH278508   2.993   6.355   4.628 -0.4500  0.5105  0.2310
19006TIP3    H178509   2.988   6.283   4.565 -1.1602  0.4861  0.3062
19006TIP3    H278510   3.077   6.343   4.672 -0.9919 -0.8418  0.9162
19007TIP3   OH278511   5.972   5.825   1.670  0.3986 -0.2111 -0.4738
19007TIP3    H178512   6.041   5.767   1.700 -0.0418 -0.1911  0.6045
19007TIP3    H278513   6.002   5.857   1.585  1.7178 -0.1711  0.0051
19008TIP3   OH278514   6.119   1.307  15.331 -0.4689 -0.5423  0.0311
19008TIP3    H178515   6.206   1.279  15.303 -1.0154 -2.2924  0.0328
19008TIP3    H278516   6.084   1.354  15.256  0.5476  0.3583  0.1025
19009TIP3   OH278517   6.605   1.169   5.061  0.0515  0.3153 -0.0713
19009TIP3    H178518   6.698   1.185   5.075  0.3581  0.5615 -2.2380
19009TIP3    H278519   6.565   1.183   5.147  2.0133  0.1501  0.8860
19010TIP3   OH278520   2.047   0.259   6.597  0.0691 -0.1188  0.3073
19010TIP3    H178521   2.043   0.163   6.592 -1.6991 -0.2725  3.2514
19010TIP3    H278522   2.139   0.280   6.578  0.1955 -2.2725 -1.6927
19011TIP3   OH278523   4.744   6.511  14.075 -0.3803 -0.0486  0.4575
19011TIP3    H178524   4.792   6.552  14.002  0.8132 -1.2359  0.5595
19011TIP3    H278525   4.748   6.418  14.056  1.6111 -0.5273  3.0367
19012TIP3   OH278526   5.678   0.563   2.328  0.3079  0.2331  0.1006
19012TIP3    H178527   5.636   0.649   2.330  1.8964  1.1415 -2.1772
19012TIP3    H278528   5.614   0.506   2.286 -1.0416  0.0965  2.2851
19013TIP3   OH278529   0.564   4.287  17.021 -0.2430  0.4037  0.4781
19013TIP3    H178530   0.547   4.378  17.046 -0.5368  0.6282 -0.5102
19013TIP3    H278531   0.655   4.287  16.991 -0.1276  0.2992  0.8360
19014TIP3   OH278532   2.567   5.019  15.505 -0.5951  0.3173 -0.1603
19014TIP3    H178533   2.514   5.016  15.425 -0.1914  0.3898 -0.4323
19014TIP3    H278534   2.516   4.970  15.569 -0.3356 -0.8233 -0.8156
19015TIP3   OH278535   0.299   0.230  11.433 -0.9147 -0.0946 -0.1766
19015TIP3    H178536   0.286   0.146  11.479 -1.3579  0.5012  0.7957
19015TIP3    H278537   0.262   0.215  11.346 -0.5395 -1.0725 -0.1837
19016TIP3   OH278538   0.967   6.144   3.674 -0.3665 -0.1140 -0.0820
19016TIP3    H178539   1.005   6.123   3.760 -0.7800  0.9901  0.3887
19016TIP3    H278540   0.947   6.060   3.635 -0.0817 -0.6350  0.8740
19017TIP3   OH278541   5.484   3.257   3.432 -0.4289 -0.4033 -0.0944
19017TIP3    H178542   5.527   3.226   3.511 -0.4661  0.9895  0.4801
19017TIP3    H278543   5.391   3.254   3.453 -0.6134 -2.5998 -1.0415
19018TIP3   OH278544   1.632   6.326  16.214 -0.0482 -0.0265  0.7365
19018TIP3    H178545   1.608   6.267  16.142  0.3027 -0.8187  1.2596
19018TIP3    H278546   1.566   6.308  16.281  1.6428 -1.8194  1.9692
19019TIP3   OH278547   6.562   5.879  12.791  0.1765 -0.1069 -0.1595
19019TIP3    H178548   6.479   5.842  12.822  0.7222  0.0690  1.5183
19019TIP3    H278549   6.571   5.845  12.702 -0.4090 -2.2568  0.5618
19020TIP3   OH278550   4.881   6.495  14.996 -0.0852 -0.3002  0.1216
19020TIP3    H178551   4.911   6.541  15.074 -1.1506 -0.7571  0.8201
19020TIP3    H278552   4.820   6.556  14.954  0.9667  0.1952 -0.7024
19021TIP3   OH278553   2.629   2.352  14.021 -0.2666  0.1613  0.1825
19021TIP3    H178554   2.570   2.348  14.096 -0.2169  0.1016  0.2202
19021TIP3    H278555   2.672   2.266  14.021 -1.7569 -0.6041 -1.1383
19022TIP3   OH278556   4.028   4.434  13.188 -0.0351 -0.2137 -0.7519
19022TIP3    H178557   4.028   4.522  13.226  2.0104 -0.6191  0.2851
19022TIP3    H278558   3.938   4.420  13.159 -0.4116  2.1887 -0.8789
19023TIP3   OH278559   5.012   4.586  11.629  0.3539 -0.0990  0.1022
19023TIP3    H178560   5.101   4.554  11.644  0.8140  1.1812  0.1966
19023TIP3    H278561   4.972   4.587  11.717  0.1872 -0.8455  0.0339
19024TIP3   OH278562   0.568   0.181   6.296 -0.3983  0.6832  0.0410
19024TIP3    H178563   0.475   0.175   6.317  0.0893 -0.0472  2.0962
19024TIP3    H278564   0.609   0.209   6.377  1.4310 -1.0779 -0.2524
19025TIP3   OH278565   2.383   3.157  10.465 -0.0739  0.2701  0.3604
19025TIP3    H178566   2.440   3.086  10.493 -0.6551 -0.2919  0.1190
19025TIP3    H278567   2.318   3.116  10.409 -0.4308  0.9872  0.2394
19026TIP3   OH278568   4.026   2.272   2.473 -0.0307 -0.2909 -0.1005
19026TIP3    H178569   4.065   2.251   2.558  2.5194 -1.6778 -1.5428
19026TIP3    H278570   3.945   2.319   2.494  1.6819  1.4140  3.0463
19027TIP3   OH278571   0.622   2.664  12.936  0.0419 -0.2947 -0.0098
19027TIP3    H178572   0.568   2.739  12.961  0.1570 -0.7144  1.5250
19027TIP3    H278573   0.570   2.588  12.960  1.9057 -0.7220  2.9498
19028TIP3   OH278574   0.870   4.776  13.489  0.6821  0.4026  0.2563
19028TIP3    H178575   0.835   4.728  13.564 -0.0350  0.0741 -0.2819
19028TIP3    H278576   0.864   4.868  13.513 -1.7117  0.4121 -0.3225
19029TIP3   OH278577   3.866   5.755   0.278  0.3115 -0.0622  0.1125
19029TIP3    H178578   3.826   5.669   0.290 -0.7304  0.7153  2.4274
19029TIP3    H278579   3.796   5.810   0.242  0.0382  0.5913  1.5871
19030TIP3   OH278580   6.096   1.208   5.899  0.2459 -0.9416 -0.8385
19030TIP3    H178581   6.130   1.204   5.809  2.8841 -0.3648  0.0956
19030TIP3    H278582   6.019   1.265   5.893  0.9828 -0.0863 -2.5707
19031TIP3   OH278583   6.038   4.142  13.244  0.4792  0.1589 -0.0625
19031TIP3    H178584   6.100   4.114  13.312 -0.5186  0.2594  0.8993
19031TIP3    H278585   6.043   4.238  13.246  1.0272  0.1399 -0.6657
19032TIP3   OH278586   2.464   2.437  16.147  0.1610 -0.3249 -0.1763
19032TIP3    H178587   2.380   2.433  16.101  0.8980  0.5201 -1.6391
19032TIP3    H278588   2.485   2.530  16.150  0.9259 -0.5097  0.4218
19033TIP3   OH278589   4.446   3.464   5.307  0.3254 -0.4270  0.2690
19033TIP3    H178590   4.394   3.405   5.361 -2.3026 -0.0148 -1.6869
19033TIP3    H278591   4.407   3.551   5.321  1.8594  0.2682  0.3827
19034TIP3   OH278592   0.695   0.214   2.478  0.4697  0.0361 -0.3213
19034TIP3    H178593   0.642   0.167   2.414  0.9990  0.4801 -1.0893
19034TIP3    H278594   0.651   0.197   2.562 -0.6745  0.1026 -0.8982
19035TIP3   OH278595   0.130   1.709  16.489  0.4810 -0.0598 -0.4064
19035TIP3    H178596   0.222   1.695  16.465  0.2788 -0.7949 -0.7699
19035TIP3    H278597   0.119   1.664  16.573  0.6891  0.8228  0.0918
19036TIP3   OH278598   3.986   2.493   2.719  0.2138 -0.2858 -0.4025
19036TIP3    H178599   4.062   2.530   2.674  1.7781 -1.3871  1.2687
19036TIP3    H278600   4.006   2.400   2.728 -0.8739 -0.4087  0.9717
19037TIP3   OH278601   5.499   3.530   3.399  0.7136  0.0461 -0.0255
19037TIP3    H178602   5.506   3.589   3.474 -2.1223 -0.3667  0.6452
19037TIP3    H278603   5.517   3.443   3.436  0.0296 -0.0676  0.0586
19038TIP3   OH278604   0.497   2.101  11.911 -0.1379 -0.1571 -0.1443
19038TIP3    H178605   0.482   2.183  11.958 -0.8628  0.5097 -1.5220
19038TIP3    H278606   0.416   2.085  11.862  0.3803 -1.1438 -0.7021
19039TIP3   OH278607   6.203   5.305   2.069  0.5344  0.3556  0.1527
19039TIP3    H178608   6.216   5.302   1.974 -0.4669 -3.5785  0.0585
19039TIP3    H278609   6.112   5.280   2.082  0.5879  1.1237  2.1689
19040TIP3   OH278610   1.432   1.416   3.530  0.4350  0.0144 -0.5192
19040TIP3    H178611   1.441   1.322   3.549  1.2447 -0.3531 -2.5901
19040TIP3    H278612   1.519   1.443   3.501 -0.0444  1.1920 -0.8766
19041TIP3   OH278613   1.882   4.110   1.467 -0.0094  0.3074 -0.8818
19041TIP3    H178614   1.897   4.189   1.519 -0.5917 -1.3174  1.8461
19041TIP3    H278615   1.969   4.070   1.459  0.0431  0.4365 -0.9598
19042TIP3   OH278616   4.007   4.399  14.665  0.0710  0.0166  0.0316
19042TIP3    H178617   4.077   4.428  14.607 -1.5918  2.1507 -0.9858
19042TIP3    H278618   4.051   4.345  14.731  2.4912  0.4453 -1.1722
19043TIP3   OH278619   6.501   5.865   0.703 -0.2874 -0.5886 -1.1579
19043TIP3    H178620   6.480   5.773   0.717  1.1776 -0.6859  0.5374
19043TIP3    H278621   6.423   5.913   0.732  0.0524 -1.1558  0.7251
19044TIP3   OH278622   3.296   2.716  14.198  0.1225 -0.2346  0.5639
19044TIP3    H178623   3.373   2.675  14.239  0.2382  1.2730  1.9227
19044TIP3    H278624   3.332   2.783  14.141 -0.1314 -0.5724  0.0102
19045TIP3   OH278625   1.164   1.784  12.733 -0.3192  0.3544  0.5105
19045TIP3    H178626   1.095   1.846  12.713  0.1035  0.4386 -0.7298
19045TIP3    H278627   1.143   1.706  12.681 -0.3328 -0.2019  1.3262
19046TIP3   OH278628   0.992   0.661  15.211  0.2051 -0.4228  0.4166
19046TIP3    H178629   0.982   0.648  15.305  2.5875 -1.8956  0.5110
19046TIP3    H278630   1.071   0.612  15.188 -0.2368  0.0505 -2.3257
19047TIP3   OH278631   2.571   2.507  11.121  0.5026 -0.8034 -0.2032
19047TIP3    H178632   2.494   2.479  11.169  0.0198  0.6080 -0.1405
19047TIP3    H278633   2.540   2.524  11.032  0.5942  0.4289 -0.0087
19048TIP3   OH278634   5.144   2.905  10.613  0.3855  0.3717  0.3363
19048TIP3    H178635   5.219   2.891  10.555 -1.0770 -0.6670 -1.3470
19048TIP3    H278636   5.179   2.959  10.684  2.1847  1.8034 -1.5735
19049TIP3   OH278637   3.691   5.048  15.552  0.7410  0.4153 -0.1375
19049TIP3    H178638   3.645   5.002  15.482 -1.5756  0.7278  1.1375
19049TIP3    H278639   3.730   5.124  15.509 -2.7219  1.9723 -0.7264
19050TIP3   OH278640   6.579   2.996  16.117  0.3511 -0.0203  0.2306
19050TIP3    H178641   6.596   3.048  16.039  1.5264 -0.6097  0.0789
19050TIP3    H278642   6.574   3.060  16.188  0.0719  0.4486 -0.2104
19051TIP3   OH278643   6.169   1.771   4.585 -0.0012 -0.0699  0.0985
19051TIP3    H178644   6.096   1.829   4.604 -1.1619 -0.6088 -2.4890
19051TIP3    H278645   6.218   1.816   4.516 -0.2251 -1.5660 -1.0683
19052TIP3   OH278646   6.582   6.765   5.748 -0.4928  0.4721 -0.3412
19052TIP3    H178647   6.625   6.688   5.712 -1.8000 -0.0694 -0.7815
19052TIP3    H278648   6.582   6.828   5.676 -0.1599  0.5826 -0.2439
19053TIP3   OH278649   0.092   3.677  16.362  0.3318 -0.1183  0.0193
19053TIP3    H178650   0.033   3.709  16.430 -1.1908 -0.1712 -1.2314
19053TIP3    H278651   0.111   3.754  16.309  0.8013 -0.2555 -0.0140
19054TIP3   OH278652   3.865   0.363   5.652 -0.1060  0.1164 -0.1718
19054TIP3    H178653   3.865   0.297   5.582  0.8188 -0.6150  0.5044
19054TIP3    H278654   3.802   0.330   5.716 -0.7008  0.6174 -0.4869
19055TIP3   OH278655   0.941   1.334   5.961 -0.1334  0.0822 -0.2046
19055TIP3    H178656   0.901   1.306   6.044 -1.3092 -0.3227 -0.9062
19055TIP3    H278657   0.868   1.367   5.909  0.7405  1.2290 -0.7309
19056TIP3   OH278658   6.068   3.811   5.196  0.4476 -0.0821 -0.1706
19056TIP3    H178659   6.074   3.897   5.154 -2.6558 -0.9235 -2.5307
19056TIP3    H278660   6.014   3.827   5.274 -1.8562 -0.2007 -1.6999
19057TIP3   OH278661   0.789   3.437  11.244 -0.3668  0.2461  0.4063
19057TIP3    H178662   0.847   3.370  11.281 -0.6905  0.2681  0.9636
19057TIP3    H278663   0.831   3.463  11.162  0.7009  0.6563  1.0702
19058TIP3   OH278664   2.735   5.251  14.602  0.1679  0.0883  0.0490
19058TIP3    H178665   2.659   5.234  14.546  0.8375 -0.1001 -0.8317
19058TIP3    H278666   2.703   5.241  14.691 -0.9580  0.5184 -0.2993
19059TIP3   OH278667   0.094   4.652  15.088 -0.0822 -0.4996  0.5246
19059TIP3    H178668   0.025   4.666  15.154 -0.1122 -0.0670  0.4071
19059TIP3    H278669   0.092   4.732  15.035  0.5287 -0.4783  0.5354
19060TIP3   OH278670   1.838   6.482   2.688  0.1924  0.0268 -0.1576
19060TIP3    H178671   1.836   6.387   2.705 -2.1015  0.1459  0.3158
19060TIP3    H278672   1.905   6.492   2.620  0.3266 -1.9596 -0.3555
19061TIP3   OH278673   1.533   2.239  11.481  0.3268  0.6576 -0.1758
19061TIP3    H178674   1.504   2.188  11.405  1.8894 -1.2444  0.4524
19061TIP3    H278675   1.498   2.327  11.466 -0.1553  0.0824 -2.6325
19062TIP3   OH278676   4.863   6.373  10.202 -1.1966  0.4530 -0.0343
19062TIP3    H178677   4.803   6.414  10.264 -1.9305 -0.6224 -0.0155
19062TIP3    H278678   4.824   6.287  10.184 -0.2648  0.2004 -0.9097
19063TIP3   OH278679   3.277   5.978   4.271 -0.6400  0.1303 -0.1884
19063TIP3    H178680   3.283   6.064   4.231  0.1731 -0.0505 -0.4618
19063TIP3    H278681   3.323   5.988   4.355  2.6110 -0.9599 -1.7790
19064TIP3   OH278682   0.118   4.573  11.637 -0.7291  0.6388 -0.3084
19064TIP3    H178683   0.057   4.503  11.658  1.2823 -1.2650 -0.5664
19064TIP3    H278684   0.183   4.569  11.707  0.2533  1.2180 -1.1743
19065TIP3   OH278685   1.527   5.766  13.375  0.4674 -0.4549  0.2676
19065TIP3    H178686   1.510   5.809  13.291  2.3637 -0.1284  0.0375
19065TIP3    H278687   1.488   5.825  13.440  1.2651  0.6027 -0.1975
19066TIP3   OH278688   2.985   5.113   0.965  0.0240  0.3551  0.2948
19066TIP3    H178689   2.941   5.041   0.921 -0.3405  0.5438  0.3463
19066TIP3    H278690   2.990   5.086   1.057  0.2570  0.2192  0.2436
19067TIP3   OH278691   6.500   3.538  10.253  0.2142  0.0426  0.0062
19067TIP3    H178692   6.446   3.616  10.266  1.0586  0.6179  0.0234
19067TIP3    H278693   6.511   3.501  10.340 -1.1444 -0.7426 -0.1360
19068TIP3   OH278694   2.406   4.030   6.100  0.6394 -0.1583 -0.1761
19068TIP3    H178695   2.375   4.112   6.137 -0.7753 -0.7148 -0.1019
19068TIP3    H278696   2.410   4.046   6.005 -2.0929 -0.7687 -0.4352
19069TIP3   OH278697   1.659   5.158   4.577  1.0592 -0.3874  0.3358
19069TIP3    H178698   1.688   5.076   4.618  3.1076  0.4134  0.5495
19069TIP3    H278699   1.699   5.157   4.491 -1.0399 -0.7994 -0.6612
19070TIP3   OH278700   5.025   3.456   5.803 -0.5221  0.0416  0.4767
19070TIP3    H178701   5.088   3.406   5.855 -0.7270  0.3104  0.9815
19070TIP3    H278702   4.997   3.395   5.735 -0.7812 -0.5362  1.0993
19071TIP3   OH278703   1.869   0.414  15.203 -0.2293  0.2094  0.5998
19071TIP3    H178704   1.836   0.417  15.113  2.5157  1.2234 -0.4059
19071TIP3    H278705   1.902   0.325  15.214 -3.1746 -0.8253  1.6266
19072TIP3   OH278706   1.195   6.262  13.348 -0.2828  0.1973 -0.4337
19072TIP3    H178707   1.152   6.270  13.262 -1.8326 -1.6596  0.1389
19072TIP3    H278708   1.147   6.322  13.405  0.1270  0.7017 -0.6090
19073TIP3   OH278709   5.809   0.691  13.083  0.7179  0.5175 -0.8325
19073TIP3    H178710   5.776   0.699  13.172  0.3907  0.0556 -0.9096
19073TIP3    H278711   5.734   0.661  13.032  0.6752  1.6091 -1.4272
19074TIP3   OH278712   1.722   3.615  15.899 -0.1278  0.0113  0.0507
19074TIP3    H178713   1.719   3.536  15.846  1.4576 -0.9980  1.4239
19074TIP3    H278714   1.799   3.662  15.867 -1.2572  1.1827 -0.9899
19075TIP3   OH278715   1.380   5.618   3.239  0.1886  0.2229  0.0119
19075TIP3    H178716   1.443   5.685   3.264 -0.3764  1.0705 -0.7926
19075TIP3    H278717   1.425   5.535   3.256  0.7440  0.7898  1.3861
19076TIP3   OH278718   5.349   4.349  16.181 -0.2835 -0.2450  0.6294
19076TIP3    H178719   5.352   4.437  16.217  1.0970  0.1542 -0.4524
19076TIP3    H278720   5.347   4.362  16.086  0.7257 -1.3961  0.4472
19077TIP3   OH278721   5.819   5.109  11.270 -0.5022  0.9158  0.0882
19077TIP3    H178722   5.794   5.163  11.345 -0.7584  1.1337 -0.1448
19077TIP3    H278723   5.786   5.159  11.194 -0.7878  0.4007 -0.1259
19078TIP3   OH278724   6.621   5.702   4.556 -0.3887  0.2011  0.4920
19078TIP3    H178725   6.699   5.741   4.517 -0.4910 -0.5100 -0.4472
19078TIP3    H278726   6.653   5.657   4.635  0.0581  0.3460  0.3931
19079TIP3   OH278727   0.885   0.559  17.024 -0.6111  0.0632  0.0933
19079TIP3    H178728   0.799   0.572  17.065 -1.4872 -1.7774 -1.0721
19079TIP3    H278729   0.891   0.629  16.958 -1.5581 -0.2494 -0.3375
19080TIP3   OH278730   0.016   5.777   4.874  0.1783 -0.3341 -0.1945
19080TIP3    H178731   0.110   5.762   4.879  0.0356 -0.9120  0.8027
19080TIP3    H278732   0.006   5.871   4.891  0.4206 -0.6410  1.7572
19081TIP3   OH278733   0.298   5.498  13.572 -0.1286 -0.1850  0.9557
19081TIP3    H178734   0.260   5.419  13.611 -1.9784  0.6752  0.9560
19081TIP3    H278735   0.313   5.475  13.481 -2.6462  0.0885  0.4233
19082TIP3   OH278736   5.290   4.974  17.119 -0.4840 -0.4669 -0.6258
19082TIP3    H178737   5.297   5.070  17.119 -3.8558 -0.1508 -1.5291
19082TIP3    H278738   5.354   4.945  17.184 -0.0094  2.4367  0.2779
19083TIP3   OH278739   5.096   1.660   2.502  0.0554  0.5270 -0.2663
19083TIP3    H178740   5.154   1.709   2.444 -0.5835 -0.5628 -1.8555
19083TIP3    H278741   5.153   1.629   2.572  0.5827  3.0072  0.4481
19084TIP3   OH278742   2.668   2.000  12.510 -0.4097 -0.2896 -0.4415
19084TIP3    H178743   2.640   1.911  12.491  0.6573 -0.4313 -1.3856
19084TIP3    H278744   2.700   1.996  12.601  1.1093 -1.2517 -0.9904
19085TIP3   OH278745   1.575   4.082   3.323  0.3361 -0.2127 -0.6883
19085TIP3    H178746   1.518   4.084   3.246  0.3096 -0.9160 -0.6913
19085TIP3    H278747   1.658   4.047   3.290  0.7900  0.8670 -0.6970
19086TIP3   OH278748   1.717   5.425   5.185 -0.5998 -0.3544 -0.0010
19086TIP3    H178749   1.630   5.431   5.144 -0.4833 -0.0742 -0.2109
19086TIP3    H278750   1.734   5.514   5.216 -0.4475 -0.4406  0.1595
19087TIP3   OH278751   2.716   5.013   3.780  0.9338 -0.4858  0.1440
19087TIP3    H178752   2.804   5.004   3.815  0.8084 -0.7782  0.3861
19087TIP3    H278753   2.677   5.085   3.830  0.5647 -1.2621  1.0096
19088TIP3   OH278754   4.859   1.524   3.912  0.6085 -0.1002 -0.3582
19088TIP3    H178755   4.801   1.511   3.837 -1.0085 -2.2133  1.2013
19088TIP3    H278756   4.858   1.618   3.927 -2.8779 -0.1488 -0.0328
19089TIP3   OH278757   1.484   0.844  11.257 -0.0372  0.5219  0.2737
19089TIP3    H178758   1.491   0.752  11.232  1.4719  0.4188  1.0059
19089TIP3    H278759   1.443   0.841  11.344  0.7950  0.4902  0.6659
19090TIP3   OH278760   3.637   6.193   1.340 -0.6257 -0.0412  0.5010
19090TIP3    H178761   3.639   6.123   1.275  0.3947  0.4408 -0.0073
19090TIP3    H278762   3.657   6.150   1.423 -0.3821 -0.4146  0.2508
19091TIP3   OH278763   0.802   2.898   4.919  0.2005  0.1398  0.0951
19091TIP3    H178764   0.891   2.871   4.896 -0.4761 -0.8088 -1.4425
19091TIP3    H278765   0.766   2.824   4.967 -0.3516 -0.1681 -0.7921
19092TIP3   OH278766   6.192   1.493   5.162  0.1827 -0.1127  0.3432
19092TIP3    H178767   6.170   1.456   5.076  1.0211  1.3907 -0.5358
19092TIP3    H278768   6.145   1.437   5.224 -2.3827  0.2110 -1.2210
19093TIP3   OH278769   3.958   2.267  15.419 -0.2408 -0.0632 -0.5027
19093TIP3    H178770   4.016   2.212  15.471 -0.9283  0.6316  1.0350
19093TIP3    H278771   3.872   2.256  15.460 -0.6202  1.1976 -0.9526
19094TIP3   OH278772   5.201   4.232  14.898 -0.2125  0.4076  0.2505
19094TIP3    H178773   5.112   4.267  14.910 -0.8407 -1.1369  0.1491
19094TIP3    H278774   5.213   4.173  14.972  1.1060  1.3181  0.7853
19095TIP3   OH278775   2.717   2.677   3.395 -0.4329 -0.5106  0.0601
19095TIP3    H178776   2.691   2.620   3.323  0.6470  1.0066 -1.5733
19095TIP3    H278777   2.643   2.674   3.455 -1.4946 -1.5620 -1.2595
19096TIP3   OH278778   2.711   3.665  13.078 -0.4461  0.3585  0.2710
19096TIP3    H178779   2.705   3.673  12.983  0.9965 -1.1166  0.0223
19096TIP3    H278780   2.705   3.754  13.111  1.9968  1.1836 -1.4120
19097TIP3   OH278781   5.740   1.046  14.906  0.0570  0.1683  0.7242
19097TIP3    H178782   5.734   0.963  14.954  0.0721 -1.3415 -1.7498
19097TIP3    H278783   5.755   1.112  14.973 -2.9316 -1.4204  3.0606
19098TIP3   OH278784   4.571   2.435  11.840 -0.1584 -0.3898  0.3986
19098TIP3    H178785   4.638   2.475  11.784 -0.1350  1.4154  1.6574
19098TIP3    H278786   4.602   2.345  11.854  1.0128 -0.1523 -0.6083
19099TIP3   OH278787   0.267   5.911  17.077 -0.0957 -0.3086 -0.3969
19099TIP3    H178788   0.289   5.992  17.031 -0.7838 -0.3363 -0.7951
19099TIP3    H278789   0.260   5.846  17.007 -0.0318 -0.5993 -0.1302
19100TIP3   OH278790   4.181   6.423   3.486 -0.1745 -0.0027 -0.2216
19100TIP3    H178791   4.100   6.383   3.455 -0.2306 -0.9510  1.1217
19100TIP3    H278792   4.167   6.517   3.476 -0.8819 -0.2206 -1.3535
19101TIP3   OH278793   1.825   5.771   5.763 -0.5130  0.3597 -0.3806
19101TIP3    H178794   1.881   5.705   5.723 -1.8985 -0.5795 -0.8038
19101TIP3    H278795   1.799   5.827   5.691 -0.6801  0.3790 -0.3055
19102TIP3   OH278796   1.048   3.165  16.413 -0.3014  0.2235 -0.0565
19102TIP3    H178797   1.098   3.089  16.444 -2.2314 -0.6727  0.9802
19102TIP3    H278798   1.071   3.172  16.320 -0.1682 -1.7019 -0.1955
19103TIP3   OH278799   0.328   3.609   2.140  0.3328  0.1854 -0.1383
19103TIP3    H178800   0.368   3.568   2.063  1.2058  1.7156 -0.5162
19103TIP3    H278801   0.401   3.653   2.184 -0.4548  0.6763  0.6815
19104TIP3   OH278802   4.775   1.149   1.071 -0.1085  0.3445 -0.4272
19104TIP3    H178803   4.775   1.089   1.145  1.7489 -1.1119 -1.5425
19104TIP3    H278804   4.757   1.094   0.995  1.1563  1.2574 -1.4149
19105TIP3   OH278805   2.586   6.038  13.325  0.3724 -0.6578 -0.8718
19105TIP3    H178806   2.604   6.078  13.240 -0.1984 -1.2194 -1.2632
19105TIP3    H278807   2.496   6.063  13.344  0.1586 -1.3850 -0.9150
19106TIP3   OH278808   3.203   2.932  15.173  0.3383  0.0592  0.4688
19106TIP3    H178809   3.219   3.026  15.178  0.5400  0.1335 -1.2305
19106TIP3    H278810   3.281   2.897  15.130 -1.9381 -0.1864 -3.7053
19107TIP3   OH278811   5.714   3.965   2.978  0.1131 -0.0729  0.5637
19107TIP3    H178812   5.682   3.879   2.949  1.0254 -0.1038 -0.3681
19107TIP3    H278813   5.789   3.945   3.034  0.5128  0.1237  0.1023
19108TIP3   OH278814   4.800   3.733   1.075 -0.0992 -0.0524 -0.0499
19108TIP3    H178815   4.881   3.779   1.055  0.6433 -0.8793  0.9983
19108TIP3    H278816   4.795   3.663   1.010  0.1564 -0.1645  0.0531
19109TIP3   OH278817   0.030   2.368   3.660  0.3906  0.3511 -0.1942
19109TIP3    H178818   0.052   2.364   3.567 -1.7485  1.2536 -0.7582
19109TIP3    H278819  -0.015   2.452   3.670 -0.2842 -0.1988  1.4794
19110TIP3   OH278820   6.079   3.944  13.777 -0.1670  1.1084 -0.1773
19110TIP3    H178821   6.162   3.944  13.730  0.9043 -2.5592  1.5863
19110TIP3    H278822   6.022   3.886  13.725 -0.2620  0.2427  0.8840
19111TIP3   OH278823   2.538   4.604  14.310  0.6933  0.0262  0.6677
19111TIP3    H178824   2.585   4.635  14.387  1.9691 -2.2650  0.8485
19111TIP3    H278825   2.521   4.512  14.327 -1.6813  0.2047 -0.5139
19112TIP3   OH278826   1.984   6.494  15.092 -0.2538  0.7420  0.1481
19112TIP3    H178827   1.944   6.538  15.166 -2.4733  0.4126 -0.8227
19112TIP3    H278828   2.012   6.564  15.033 -0.9853  0.9447  0.0375
19113TIP3   OH278829   4.924   2.894   4.106 -0.5634 -0.0241 -0.0183
19113TIP3    H178830   5.017   2.882   4.126 -0.6590  0.5404  0.8095
19113TIP3    H278831   4.887   2.932   4.186 -1.3625  0.4702 -0.6091
19114TIP3   OH278832   6.004   2.495  14.153 -0.1195  0.1254  0.0493
19114TIP3    H178833   5.924   2.443  14.148  0.4988 -0.6554 -1.9491
19114TIP3    H278834   6.049   2.479  14.071  1.3488  1.8038  0.4871
19115TIP3   OH278835   4.763   3.149  13.762 -0.2514 -0.0675 -0.3742
19115TIP3    H178836   4.681   3.106  13.787  0.2576 -2.3745 -2.4295
19115TIP3    H278837   4.747   3.182  13.674  0.8705 -0.1699 -0.6294
19116TIP3   OH278838   6.043   4.154  15.553  0.5534  0.6206  0.0478
19116TIP3    H178839   6.027   4.222  15.487  1.2104  0.4796 -0.2681
19116TIP3    H278840   6.135   4.166  15.578  0.7981 -0.3822 -0.3020
19117TIP3   OH278841   6.529   4.917  10.592 -0.7563  0.3132  0.6327
19117TIP3    H178842   6.598   4.983  10.604  0.6739 -0.4601 -2.7695
19117TIP3    H278843   6.552   4.847  10.654  0.5405  0.8030  0.7226
19118TIP3   OH278844   6.542   4.160  14.264  0.1039 -0.1269 -0.3967
19118TIP3    H178845   6.522   4.117  14.180  2.2206 -1.1392 -0.3942
19118TIP3    H278846   6.630   4.196  14.252  0.3681 -0.1824  1.3738
19119TIP3   OH278847   0.288   6.590   4.207 -0.4503 -0.1217 -0.6325
19119TIP3    H178848   0.328   6.506   4.228  1.3080  0.9779  0.5827
19119TIP3    H278849   0.225   6.605   4.278  0.2350  0.2101 -0.0858
19120TIP3   OH278850   4.737   6.778   0.581  0.2589 -0.0166  0.4756
19120TIP3    H178851   4.735   6.737   0.667 -1.0316 -2.0528 -0.4971
19120TIP3    H278852   4.676   6.727   0.528 -0.4493  2.4072 -1.1292
19121TIP3   OH278853   1.714   2.954  12.081  0.4146  0.3320 -0.1846
19121TIP3    H178854   1.638   2.976  12.027  1.0610  1.5801 -0.6046
19121TIP3    H278855   1.704   2.861  12.099 -1.7854  0.6854  0.6452
19122TIP3   OH278856   3.584   3.955  13.867  0.1132 -0.5025 -0.0496
19122TIP3    H178857   3.570   4.038  13.913  1.1127  0.6681 -1.7865
19122TIP3    H278858   3.512   3.952  13.803  1.2887  0.0890 -1.4289
19123TIP3   OH278859   1.064   1.681  15.407  0.1863  0.1223 -0.3424
19123TIP3    H178860   0.989   1.711  15.458  0.6669  0.3820  0.2139
19123TIP3    H278861   1.140   1.715  15.454  0.6454  0.0386 -1.0178
19124TIP3   OH278862   6.708   1.172  12.294 -0.1783  0.1352  0.6374
19124TIP3    H178863   6.704   1.091  12.345 -0.0799  0.0955  0.5819
19124TIP3    H278864   6.617   1.187  12.266  0.2123 -1.4204 -1.6327
19125TIP3   OH278865   0.974   5.141   2.601  0.1290  0.3545 -0.0272
19125TIP3    H178866   1.039   5.212   2.600 -0.0668  0.5521  0.9744
19125TIP3    H278867   0.890   5.186   2.608 -0.0079  0.0263  0.4212
19126TIP3   OH278868   1.299   4.852   3.324  0.0699 -0.3365 -0.2534
19126TIP3    H178869   1.277   4.759   3.320 -0.8713 -0.0318 -4.1790
19126TIP3    H278870   1.223   4.893   3.364 -0.3632 -1.0387 -0.3427
19127TIP3   OH278871   6.811   4.253  17.188 -0.0216 -0.6708 -0.1713
19127TIP3    H178872   6.880   4.204  17.231  0.9396  0.7128 -0.0918
19127TIP3    H278873   6.837   4.256  17.096 -1.4292 -2.5492 -0.6613
19128TIP3   OH278874   2.283   2.001   5.037 -0.3027 -0.6967  0.2617
19128TIP3    H178875   2.343   1.948   5.090 -0.6218 -0.6743  0.6435
19128TIP3    H278876   2.213   1.941   5.013  0.6046 -1.1246 -1.4236
19129TIP3   OH278877   2.795   5.521   1.216  0.0025 -0.3717 -0.1121
19129TIP3    H178878   2.722   5.478   1.172  1.0672 -2.1339 -0.2161
19129TIP3    H278879   2.783   5.500   1.309  0.2088 -0.4401 -0.0997
19130TIP3   OH278880   5.108   2.598  14.826 -0.1161  0.4178  0.3842
19130TIP3    H178881   5.113   2.658  14.752  0.4452  0.5403  0.5182
19130TIP3    H278882   5.196   2.600  14.865 -0.2936  0.0511  0.8124
19131TIP3   OH278883   1.668   2.590   1.031 -0.4741 -0.2376 -0.6049
19131TIP3    H178884   1.588   2.559   0.990 -0.4281 -1.5073  0.2313
19131TIP3    H278885   1.640   2.626   1.115  0.1427 -3.5979  1.1328
19132TIP3   OH278886   4.473   0.277  11.819  0.2305  0.6746  0.3201
19132TIP3    H178887   4.406   0.322  11.767  0.5226  0.0998 -0.5601
19132TIP3    H278888   4.531   0.348  11.848  1.0027  0.8203 -1.5238
19133TIP3   OH278889   3.118   0.977   2.983 -0.1789  0.1260 -0.2710
19133TIP3    H178890   3.092   0.978   3.075  0.5021  0.3030 -0.0757
19133TIP3    H278891   3.064   0.909   2.943 -0.0602 -0.3563  0.3829
19134TIP3   OH278892   4.839   3.187  14.138 -0.3565  0.3941 -0.2508
19134TIP3    H178893   4.862   3.103  14.177 -0.7005 -0.4089 -1.7182
19134TIP3    H278894   4.743   3.191  14.146 -0.4203  0.2569 -0.9396
19135TIP3   OH278895   4.506   6.525  13.050 -0.1646 -0.4994 -0.4938
19135TIP3    H178896   4.534   6.453  13.107 -1.7760 -1.9751 -1.4885
19135TIP3    H278897   4.524   6.604  13.100  0.1349 -1.6806  1.3253
19136TIP3   OH278898   3.711   4.453  12.264 -0.3473 -0.1041 -0.1537
19136TIP3    H178899   3.769   4.475  12.336 -0.1949  1.3568 -0.7068
19136TIP3    H278900   3.670   4.370  12.291 -1.2633  1.0646  2.1790
19137TIP3   OH278901   6.347   0.427   1.353 -0.5164  0.3518  0.3481
19137TIP3    H178902   6.351   0.398   1.444  2.0639 -0.2028  0.1000
19137TIP3    H278903   6.437   0.453   1.332 -1.1750  0.9352 -1.8865
19138TIP3   OH278904   1.650   3.532   1.404  0.2197 -0.0582  0.0026
19138TIP3    H178905   1.578   3.591   1.429  0.2913  0.0383 -0.0222
19138TIP3    H278906   1.715   3.544   1.473  0.1461 -0.2621  0.1082
19139TIP3   OH278907   4.657   0.335   5.913  0.8237 -0.1893  0.1225
19139TIP3    H178908   4.740   0.303   5.948  1.2937  2.0505  1.1387
19139TIP3    H278909   4.652   0.427   5.941 -0.8300  0.4386 -2.0129
19140TIP3   OH278910   2.896   4.013  15.730  0.2307  0.2284  0.0347
19140TIP3    H178911   2.956   3.998  15.803 -0.6906 -0.7974  0.6095
19140TIP3    H278912   2.901   3.932  15.678  0.0848  0.5299 -0.4529
19141TIP3   OH278913   5.994   0.894   0.452 -0.5090  0.2861 -0.1373
19141TIP3    H178914   5.982   0.902   0.357 -0.3845 -0.9573 -0.2637
19141TIP3    H278915   5.905   0.894   0.487 -0.5218  2.9190 -0.0442
19142TIP3   OH278916   3.768   3.010   3.417 -0.5042  0.8486  0.4615
19142TIP3    H178917   3.806   2.986   3.502  0.6400  0.0048 -0.2832
19142TIP3    H278918   3.843   3.037   3.364 -0.8881 -1.0940 -1.1095
19143TIP3   OH278919   0.704   5.559   2.165 -0.4289 -0.0496 -0.2241
19143TIP3    H178920   0.651   5.560   2.085  0.1536 -1.8763 -0.6700
19143TIP3    H278921   0.708   5.651   2.193 -2.8898  0.2511 -0.7768
19144TIP3   OH278922   4.251   6.023  11.157 -0.3228 -0.1999  0.8786
19144TIP3    H178923   4.290   5.944  11.121 -0.4627 -0.8566  2.1431
19144TIP3    H278924   4.316   6.056  11.219 -0.5519  0.2925  0.8585
19145TIP3   OH278925   0.231   1.638   1.900  0.7434  0.1888 -0.0216
19145TIP3    H178926   0.275   1.612   1.819  0.6639 -1.8788  0.5739
19145TIP3    H278927   0.290   1.609   1.970 -0.7030 -1.0335  0.7261
19146TIP3   OH278928   3.312   4.251  15.232 -0.2672 -0.2582 -0.0682
19146TIP3    H178929   3.399   4.277  15.204  0.3489  0.0141  1.9986
19146TIP3    H278930   3.272   4.211  15.155  1.3063  0.5409 -1.3145
19147TIP3   OH278931   0.669   3.154   2.646 -0.6568 -0.2869 -0.1605
19147TIP3    H178932   0.729   3.207   2.594  0.1049  1.4937  2.4484
19147TIP3    H278933   0.582   3.174   2.611  0.0051 -0.5670 -1.9778
19148TIP3   OH278934   5.620   6.044  16.982  0.8644  0.2771  0.2541
19148TIP3    H178935   5.579   6.121  16.944 -0.4873 -1.7423 -2.5291
19148TIP3    H278936   5.548   6.000  17.028  0.7372 -1.2201 -1.3259
19149TIP3   OH278937   2.543   4.236   1.404  0.0818 -0.0031 -0.2966
19149TIP3    H178938   2.470   4.264   1.348 -1.5477  0.0865  1.7839
19149TIP3    H278939   2.553   4.143   1.386 -2.0724 -0.5394  0.9516
19150TIP3   OH278940   2.750   6.291  11.757  0.0088 -0.3003  0.1934
19150TIP3    H178941   2.736   6.199  11.734  0.3521 -0.3646  0.2326
19150TIP3    H278942   2.742   6.293  11.853  1.8020 -0.6271  0.3729
19151TIP3   OH278943   4.896   5.043  12.632 -0.1481 -0.3180  0.4603
19151TIP3    H178944   4.858   5.011  12.714 -0.1567  0.0431  0.5977
19151TIP3    H278945   4.874   5.136  12.630 -0.2496 -0.3508 -0.0091
19152TIP3   OH278946   5.223   6.803   4.874 -0.1879  0.6118  0.2330
19152TIP3    H178947   5.168   6.725   4.885  0.9262  0.0104  1.6392
19152TIP3    H278948   5.262   6.793   4.787 -1.1152  0.2929 -0.1525
19153TIP3   OH278949   5.337   6.715   1.525 -1.0097  0.4668 -0.5034
19153TIP3    H178950   5.386   6.759   1.595 -0.0332 -3.7393  1.5789
19153TIP3    H278951   5.398   6.715   1.451  0.1315  0.0206  0.4115
19154TIP3   OH278952   4.257   4.684  12.350 -0.5738  0.2950  1.0923
19154TIP3    H178953   4.251   4.593  12.378 -0.4225  1.0634  3.7778
19154TIP3    H278954   4.166   4.710  12.335 -0.6473 -0.1726  0.6970
19155TIP3   OH278955   3.200   4.698   5.559 -0.3319 -0.0792  0.3946
19155TIP3    H178956   3.124   4.738   5.602  1.3760  0.1555  3.3175
19155TIP3    H278957   3.251   4.772   5.526 -1.2735 -0.2376 -1.5461
19156TIP3   OH278958   6.529   2.550   2.176  0.0661  0.7620 -0.6767
19156TIP3    H178959   6.457   2.580   2.231  0.0977  0.4553 -0.4659
19156TIP3    H278960   6.487   2.510   2.101  0.0137  0.4695 -0.4932
19157TIP3   OH278961   0.083   2.753  15.656 -0.1547  0.5406 -0.1898
19157TIP3    H178962   0.020   2.699  15.609 -0.3616 -0.3319  1.0582
19157TIP3    H278963   0.069   2.841  15.622 -2.7969  0.5414  0.7992
19158TIP3   OH278964   6.522   1.270   2.407 -1.0600 -0.0364  0.2824
19158TIP3    H178965   6.595   1.303   2.354 -0.1495 -0.3488  1.3204
19158TIP3    H278966   6.543   1.298   2.496 -3.1590  1.4844  0.3373
19159TIP3   OH278967   6.560   5.024  13.089 -0.5744  0.1156 -0.0870
19159TIP3    H178968   6.592   5.109  13.058  1.3424 -0.7376 -0.4516
19159TIP3    H278969   6.494   4.999  13.024  0.9396 -0.0339 -1.5941
19160TIP3   OH278970   4.519   2.821  10.286  0.0779  0.5716  0.2621
19160TIP3    H178971   4.425   2.826  10.302 -0.1182  0.7738 -0.9726
19160TIP3    H278972   4.548   2.745  10.338 -0.7331  0.5876  0.7448
19161TIP3   OH278973   1.354   0.263  15.032  0.0191  0.0436 -0.0863
19161TIP3    H178974   1.360   0.211  15.112  1.3557  1.3126  0.6738
19161TIP3    H278975   1.382   0.203  14.962  1.1329 -0.3905  0.7214
19162TIP3   OH278976   6.209   0.727  16.689  0.3463 -0.0648  0.2486
19162TIP3    H178977   6.304   0.717  16.693  0.4836  1.1552  0.4266
19162TIP3    H278978   6.188   0.723  16.596  0.3938 -1.7619  0.2980
19163TIP3   OH278979   2.232   6.772   5.658 -0.2841 -0.6020 -0.0650
19163TIP3    H178980   2.310   6.828   5.650 -0.9746  0.7502  2.3358
19163TIP3    H278981   2.267   6.684   5.669  0.9800  0.1039  1.9076
19164TIP3   OH278982   2.842   5.456  15.083  0.0111  0.1281  0.3170
19164TIP3    H178983   2.841   5.450  15.179 -0.7573 -2.5437  0.1727
19164TIP3    H278984   2.752   5.481  15.060 -0.8954 -3.1042  0.1288
19165TIP3   OH278985   1.038   5.142   2.321  0.0248  0.0453  0.0049
19165TIP3    H178986   0.971   5.175   2.261 -1.2717 -2.1791  0.1491
19165TIP3    H278987   1.004   5.161   2.408  1.0531  1.6456  0.0770
19166TIP3   OH278988   3.573   5.089   5.962  0.2527 -0.2330  0.5451
19166TIP3    H178989   3.648   5.029   5.967 -0.3084 -0.9228  0.7085
19166TIP3    H278990   3.608   5.172   5.995  0.7532 -0.7462  1.3452
19167TIP3   OH278991   2.286   6.650  16.757  0.1775 -0.5654 -0.2307
19167TIP3    H178992   2.210   6.643  16.699 -0.9814 -0.1561  1.1948
19167TIP3    H278993   2.332   6.728  16.728 -1.5087  0.7975  0.6395
19168TIP3   OH278994   3.828   0.348   4.594 -0.0577  0.6709 -0.0788
19168TIP3    H178995   3.836   0.310   4.681 -0.1592  1.2704  0.1976
19168TIP3    H278996   3.749   0.402   4.599  0.0080  0.8082 -0.4986
19169TIP3   OH278997   5.953   3.471  14.823  0.5179  0.4320 -0.2325
19169TIP3    H178998   5.955   3.377  14.806 -1.0300  0.4822 -0.7320
19169TIP3    H278999   6.010   3.483  14.899  0.7019 -0.9095 -0.1528
19170TIP3   OH279000   5.717   2.910   6.552 -0.1528  0.4779 -0.0209
19170TIP3    H179001   5.659   2.838   6.575  1.6022 -0.3544  1.8848
19170TIP3    H279002   5.767   2.878   6.477 -0.2667  0.2056  0.0201
19171TIP3   OH279003   2.218   5.930  12.020  0.3448 -0.0032  0.2943
19171TIP3    H179004   2.251   5.950  11.932 -1.0950  1.7091  0.1026
19171TIP3    H279005   2.147   5.868  12.005  0.6269 -0.3324  0.3194
19172TIP3   OH279006   5.158   6.506   1.602  0.0197  0.5742 -1.2037
19172TIP3    H179007   5.239   6.462   1.630 -1.5834 -3.0672 -2.0493
19172TIP3    H279008   5.189   6.584   1.556  3.0251 -0.1072 -0.4974
19173TIP3   OH279009   6.649   3.821   5.682 -0.3008  0.0035 -0.3818
19173TIP3    H179010   6.617   3.735   5.708  0.7147 -0.1271  0.4693
19173TIP3    H279011   6.733   3.804   5.639 -0.8750  0.4323 -1.6976
19174TIP3   OH279012   5.177   0.429   3.630 -0.7626 -0.0253 -0.2435
19174TIP3    H179013   5.123   0.507   3.629 -0.1651  0.3920 -0.1380
19174TIP3    H279014   5.153   0.382   3.550  1.4183  2.0259 -2.2056
19175TIP3   OH279015   3.921   1.874  13.098  0.2206  0.2665  0.2317
19175TIP3    H179016   3.888   1.804  13.041 -0.8543  0.9527  0.0131
19175TIP3    H279017   3.918   1.836  13.186 -1.5928  0.4769  0.2739
19176TIP3   OH279018   5.657   5.657  12.496 -0.3542 -0.2414  0.3293
19176TIP3    H179019   5.605   5.688  12.571 -0.5883  2.2492 -0.8289
19176TIP3    H279020   5.595   5.652  12.424 -0.0492 -2.3297  0.1606
19177TIP3   OH279021   6.640   3.165   4.444  0.0953 -0.3131  0.5591
19177TIP3    H179022   6.643   3.086   4.391  0.8030 -0.1938  0.4203
19177TIP3    H279023   6.585   3.225   4.393  0.7937 -0.1900 -0.0635
19178TIP3   OH279024   0.208   4.504  13.164  0.1545  0.0288 -0.2149
19178TIP3    H179025   0.117   4.473  13.175  0.1122  0.5072  0.9112
19178TIP3    H279026   0.206   4.594  13.195  0.5109  0.8556 -2.5208
19179TIP3   OH279027   2.391   1.374  13.470  1.1384 -0.1057 -0.4006
19179TIP3    H179028   2.370   1.295  13.420 -1.0596  0.3019 -0.1727
19179TIP3    H279029   2.334   1.441  13.434  1.2217  0.7713  1.0630
19180TIP3   OH279030   1.192   0.488  16.670 -0.1611 -0.4184  0.1657
19180TIP3    H179031   1.276   0.462  16.634 -0.3044  0.7951 -1.0960
19180TIP3    H279032   1.151   0.406  16.698  1.7405 -0.9319  1.4758
19181TIP3   OH279033   1.877   5.361   4.356 -0.4159  0.2672 -0.0099
19181TIP3    H179034   1.798   5.313   4.331  0.1826  0.1104 -1.6748
19181TIP3    H279035   1.914   5.311   4.429 -1.5060 -0.0053  0.3617
19182TIP3   OH279036   4.989   5.994  14.093  0.3706  0.8309 -0.1425
19182TIP3    H179037   5.069   6.043  14.107 -1.0179  2.8045  1.1198
19182TIP3    H279038   4.970   5.952  14.177  0.7334 -0.6775 -0.7897
19183TIP3   OH279039   6.292   5.846  12.244 -0.4304  0.3143 -0.0855
19183TIP3    H179040   6.283   5.867  12.151 -0.3993  0.1824 -0.1183
19183TIP3    H279041   6.386   5.836  12.257 -0.4656 -0.1192 -0.1424
19184TIP3   OH279042   0.512   0.996   5.269 -0.7392 -0.3044 -0.0462
19184TIP3    H179043   0.521   1.025   5.178 -1.0822 -2.6474 -0.8604
19184TIP3    H279044   0.438   1.047   5.304 -1.5930 -0.4943 -1.5518
19185TIP3   OH279045   2.357   6.673   6.634  0.5533 -0.1910  0.2166
19185TIP3    H179046   2.280   6.617   6.642 -0.1986  1.0991  2.5543
19185TIP3    H279047   2.321   6.758   6.608  1.2562  0.2267  0.5974
19186TIP3   OH279048   3.206   3.521   0.548  0.0828 -0.0910  0.5341
19186TIP3    H179049   3.185   3.512   0.641  0.1826  0.4808  0.6130
19186TIP3    H279050   3.301   3.534   0.546 -0.0949  1.1968  0.4428
19187TIP3   OH279051   4.603   5.113  15.139  0.1232  0.2220 -0.1481
19187TIP3    H179052   4.693   5.120  15.107  0.4615  0.5523  0.8515
19187TIP3    H279053   4.594   5.022  15.167  0.3942  0.3648  0.4301
19188TIP3   OH279054   5.766   5.637  14.827 -0.0698  0.1666 -0.4058
19188TIP3    H179055   5.778   5.714  14.882  0.0857 -0.4419  0.4216
19188TIP3    H279056   5.837   5.578  14.852  0.5351  0.2352 -1.8959
19189TIP3   OH279057   4.202   5.057   5.329  0.1076  0.0065  0.1602
19189TIP3    H179058   4.150   5.008   5.393  2.2917 -1.5274  0.8467
19189TIP3    H279059   4.279   5.086   5.378  0.5020  1.1913 -1.1156
19190TIP3   OH279060   0.852   6.348   6.251 -0.1300 -0.4552  0.0158
19190TIP3    H179061   0.856   6.336   6.346  0.9607 -3.0842 -0.3383
19190TIP3    H279062   0.884   6.438   6.238 -4.3168  1.5445  2.3979
19191TIP3   OH279063   0.925   6.512  11.740 -0.1124  0.6642 -0.0093
19191TIP3    H179064   1.009   6.487  11.778  0.6449  1.5271 -1.0573
19191TIP3    H279065   0.946   6.586  11.683 -1.6725  1.2307  0.1221
19192TIP3   OH279066   2.265   3.441  16.469 -0.0293 -0.0895 -1.2561
19192TIP3    H179067   2.233   3.522  16.430  0.4717  0.6751 -0.0848
19192TIP3    H279068   2.356   3.460  16.492  0.4476 -1.3645 -2.0513
19193TIP3   OH279069   5.197   6.665   3.166 -0.0474  0.3102  0.6188
19193TIP3    H179070   5.233   6.640   3.252 -2.0950 -0.7873  1.1953
19193TIP3    H279071   5.133   6.596   3.146 -0.2535  1.0507 -1.3762
19194TIP3   OH279072   3.666   3.979  12.135 -0.0671  0.3902 -0.5279
19194TIP3    H179073   3.721   4.040  12.086  0.4300  1.3508  1.1722
19194TIP3    H279074   3.578   3.990  12.097  0.9552 -1.5893 -3.6590
19195TIP3   OH279075   4.243   2.966   0.354 -0.3707 -0.0254  0.1656
19195TIP3    H179076   4.276   2.985   0.441 -0.7583 -0.8693  0.5054
19195TIP3    H279077   4.319   2.977   0.296 -0.3074  1.3108  0.5044
19196TIP3   OH279078   3.422   6.317   5.849 -0.2732  0.2302  0.3026
19196TIP3    H179079   3.508   6.359   5.840 -0.1531 -0.0249  0.2349
19196TIP3    H279080   3.441   6.238   5.899 -0.4371  0.0669  0.1049
19197TIP3   OH279081   1.554   0.934  16.537  0.0357 -0.3394 -0.8204
19197TIP3    H179082   1.523   0.963  16.451 -1.0056 -0.3001 -0.4493
19197TIP3    H279083   1.543   1.011  16.593  1.3463 -0.1603 -0.8021
19198TIP3   OH279084   1.418   4.982   0.101  0.6842  0.0651 -0.1677
19198TIP3    H179085   1.390   4.976   0.009  1.5979  0.6037 -0.4855
19198TIP3    H279086   1.412   5.075   0.121 -0.3405 -0.1581  0.5891
19199TIP3   OH279087   1.759   3.517   3.949  0.1552 -0.0910 -0.2695
19199TIP3    H179088   1.766   3.432   3.993  1.7358 -0.1051 -0.4934
19199TIP3    H279089   1.707   3.500   3.871 -0.5922 -0.5912  0.3371
19200TIP3   OH279090   5.737   2.010   6.006 -0.2741  0.0257  0.1026
19200TIP3    H179091   5.713   2.009   5.914 -1.6372 -2.4021  0.4340
19200TIP3    H279092   5.814   1.953   6.012 -0.1424  0.2381  0.4352
19201TIP3   OH279093   5.935   3.608   1.439  0.2237 -0.2373  0.3457
19201TIP3    H179094   6.026   3.613   1.468 -0.2303  0.5655  1.6731
19201TIP3    H279095   5.884   3.603   1.520 -0.9243 -0.7092 -0.3863
19202TIP3   OH279096   5.877   6.529  15.372  0.4320 -0.0434  0.4676
19202TIP3    H179097   5.857   6.605  15.317  0.4448  1.6876  2.7904
19202TIP3    H279098   5.793   6.503  15.409  0.6428 -0.3368  0.7459
19203TIP3   OH279099   0.192   2.448  11.816 -0.1300 -1.0354  0.0882
19203TIP3    H179100   0.251   2.492  11.755  1.4390 -4.6989 -1.1758
19203TIP3    H279101   0.106   2.485  11.798  1.0113  0.9550 -1.4053
19204TIP3   OH279102   0.369   6.140  11.224 -0.1578 -0.0804  0.2001
19204TIP3    H179103   0.339   6.183  11.144 -0.1659  0.4619  0.4845
19204TIP3    H279104   0.357   6.047  11.208  1.1278 -0.0637 -0.9447
19205TIP3   OH279105   0.597   3.975   3.992 -0.2427  0.3729  0.1194
19205TIP3    H179106   0.667   4.018   3.942 -0.0844  2.5679  2.1139
19205TIP3    H279107   0.521   4.034   3.981 -0.3833  0.5302  1.9155
19206TIP3   OH279108   6.060   4.036   5.034 -0.0037 -0.1811 -0.3439
19206TIP3    H179109   5.988   4.002   4.980  0.2116  0.9196 -1.3437
19206TIP3    H279110   6.139   4.006   4.988  0.1946  2.1488 -1.5621
19207TIP3   OH279111   5.082   3.523   2.040  0.4504 -0.1802  0.1834
19207TIP3    H179112   5.073   3.478   1.956  0.4767  0.1122  0.0264
19207TIP3    H279113   5.156   3.583   2.028  1.5565 -1.3619  0.9437
19208TIP3   OH279114   3.286   6.338  15.323 -0.4514 -0.2158 -0.1225
19208TIP3    H179115   3.305   6.336  15.416  3.0137  0.0980 -0.7544
19208TIP3    H279116   3.239   6.421  15.310 -1.2537 -0.4221  1.3395
19209TIP3   OH279117   6.123   4.242   1.538  0.8275  0.4182  0.0129
19209TIP3    H179118   6.132   4.170   1.602 -0.4371 -0.2769 -0.5675
19209TIP3    H279119   6.042   4.223   1.492  0.1736  2.5564  0.2325
19210TIP3   OH279120   6.012   0.598  13.688 -0.5858 -0.0055 -0.3977
19210TIP3    H179121   5.998   0.514  13.644  1.7786 -0.4783 -0.3060
19210TIP3    H279122   5.995   0.579  13.781 -1.7254  0.0437 -0.5910
19211TIP3   OH279123   2.493   6.324   1.046  0.1449 -0.0675  0.7516
19211TIP3    H179124   2.500   6.364   0.959 -1.4292  1.0607  1.1295
19211TIP3    H279125   2.560   6.369   1.098 -1.2880  1.7882  1.0451
19212TIP3   OH279126   6.783   2.836  11.816  0.5114  0.5657 -0.8640
19212TIP3    H179127   6.815   2.820  11.904 -0.4001  0.4011 -0.5536
19212TIP3    H279128   6.852   2.803  11.758 -0.4896 -2.9159 -0.2458
19213TIP3   OH279129   5.892   5.593   5.455 -0.1874 -0.1424 -0.0720
19213TIP3    H179130   5.910   5.677   5.497 -0.3755  0.0047 -0.2840
19213TIP3    H279131   5.972   5.572   5.407 -0.2235  0.0251 -0.2038
19214TIP3   OH279132   0.529   4.443   0.738  0.4402 -0.5268 -0.0271
19214TIP3    H179133   0.501   4.353   0.756  1.9340 -1.0966 -0.4109
19214TIP3    H279134   0.569   4.472   0.820 -1.0342  0.2029  0.4516
19215TIP3   OH279135   5.917   1.629  12.906 -0.2850 -0.1368  0.1893
19215TIP3    H179136   5.959   1.676  12.834  0.7744  0.7944  1.4001
19215TIP3    H279137   5.832   1.673  12.916 -0.2754 -0.0159 -0.2161
19216TIP3   OH279138   2.697   6.545  14.504 -0.1560  0.3359  0.0911
19216TIP3    H179139   2.760   6.616  14.503 -0.6572  0.7680 -1.1953
19216TIP3    H279140   2.638   6.563  14.430 -2.6617  0.7386  2.0981
19217TIP3   OH279141   5.456   2.884   0.484 -0.1814 -0.8043  0.1525
19217TIP3    H179142   5.487   2.913   0.570 -0.1626 -0.9713  0.2028
19217TIP3    H279143   5.362   2.898   0.486 -0.2437 -1.2407  0.3724
19218TIP3   OH279144   4.339   3.026  16.272 -0.2634  0.4725  0.2597
19218TIP3    H179145   4.357   3.093  16.338 -0.6808  0.5943  0.2522
19218TIP3    H279146   4.331   2.945  16.322 -2.6309  0.8849  0.6110
19219TIP3   OH279147   5.140   0.921  13.990  0.0050  0.2909 -0.0803
19219TIP3    H179148   5.112   0.935  14.080  1.0132 -2.4606  0.7148
19219TIP3    H279149   5.227   0.962  13.986  0.7654 -1.1682  0.7787
19220TIP3   OH279150   2.708   5.364   4.917  0.2745 -0.3461 -0.9243
19220TIP3    H179151   2.729   5.398   5.004 -0.8623  3.9438 -2.2472
19220TIP3    H279152   2.617   5.335   4.923  0.2572 -0.2254 -0.6245
19221TIP3   OH279153   0.163   2.311  12.485  0.3068  0.3605 -0.2373
19221TIP3    H179154   0.143   2.290  12.576 -0.2642 -1.1252 -0.6923
19221TIP3    H279155   0.205   2.397  12.489  1.7635 -0.4069  1.5929
19222TIP3   OH279156   1.848   0.260   4.841  0.3479  0.6991 -0.7910
19222TIP3    H179157   1.875   0.216   4.921 -0.1980 -2.4433 -2.2370
19222TIP3    H279158   1.920   0.319   4.820  1.6008 -0.2596  0.7167
19223TIP3   OH279159   1.340   1.075  14.365  0.2167  0.2010 -0.2918
19223TIP3    H179160   1.342   1.028  14.449 -0.5486 -0.3640 -0.5897
19223TIP3    H279161   1.251   1.110  14.359  1.2612  3.2193  0.7628
19224TIP3   OH279162   3.942   3.318   3.943 -0.1864 -0.2636  0.2616
19224TIP3    H179163   3.936   3.289   3.852 -1.7377  0.6002  0.0617
19224TIP3    H279164   3.882   3.260   3.990 -0.1204 -0.0902  0.5563
19225TIP3   OH279165   2.094   3.855  10.249  0.1301  0.6068 -0.1581
19225TIP3    H179166   2.031   3.844  10.320 -0.9911 -1.4852 -1.3971
19225TIP3    H279167   2.180   3.852  10.291 -0.5364  0.1421  1.1884
19226TIP3   OH279168   5.149   4.501   5.234 -0.6019  0.1223 -0.2515
19226TIP3    H179169   5.087   4.560   5.277 -1.1786 -1.3920  1.0251
19226TIP3    H279170   5.096   4.455   5.169  0.1241  1.9062 -2.2013
19227TIP3   OH279171   1.650   0.963  13.614  0.6299 -0.5179 -0.4298
19227TIP3    H179172   1.714   0.908  13.659  1.4480  1.2836  0.6452
19227TIP3    H279173   1.605   1.010  13.684 -0.8654 -0.6686 -1.2708
19228TIP3   OH279174   4.722   3.489  13.520  0.1887  0.1915 -0.5625
19228TIP3    H179175   4.733   3.529  13.433 -2.7282  0.3941 -0.8790
19228TIP3    H279176   4.677   3.407  13.503  0.7157 -0.3568  0.6579
19229TIP3   OH279177   3.591   1.208   0.929  0.1145  0.1842  0.0789
19229TIP3    H179178   3.549   1.293   0.915 -1.0137 -0.2861  0.5424
19229TIP3    H279179   3.663   1.207   0.867 -1.5951  0.3232 -1.9666
19230TIP3   OH279180   3.989   3.674   1.861 -0.0489  0.0351  0.4977
19230TIP3    H179181   3.988   3.594   1.914 -2.0585  0.2402  0.8153
19230TIP3    H279182   3.906   3.671   1.812  0.0324  1.7451  0.2409
19231TIP3   OH279183   2.021   3.576   5.726  0.4636  0.4033 -0.1430
19231TIP3    H179184   2.074   3.504   5.760  0.4487  0.2641 -0.4150
19231TIP3    H279185   1.934   3.538   5.713  0.3134  0.6123  0.2302
19232TIP3   OH279186   4.267   3.277   0.146 -0.2427 -0.3245 -0.1144
19232TIP3    H179187   4.356   3.243   0.159 -0.6924 -1.9059 -1.1206
19232TIP3    H279188   4.215   3.201   0.124 -1.4615  0.8834 -1.5161
19233TIP3   OH279189   3.815   3.686   4.911  0.4557 -0.3727  0.7816
19233TIP3    H179190   3.799   3.771   4.951  1.1172  0.2107 -0.1819
19233TIP3    H279191   3.750   3.680   4.841 -0.3074 -1.1394  1.5335
19234TIP3   OH279192   6.807   6.543   2.772  0.8558 -0.5902  0.3733
19234TIP3    H179193   6.894   6.580   2.788  0.7954 -1.3605  2.6141
19234TIP3    H279194   6.747   6.606   2.811  0.2540  0.7626 -2.5869
19235TIP3   OH279195   1.615   3.242   3.980 -0.0924 -0.6992 -0.0945
19235TIP3    H179196   1.707   3.237   3.954  0.2115 -1.2568  1.0604
19235TIP3    H279197   1.567   3.201   3.907  0.4422  0.7768 -1.3033
19236TIP3   OH279198   0.611   1.537   2.981  0.0181 -0.3717 -0.1203
19236TIP3    H179199   0.605   1.597   3.056  2.6921 -1.5422  1.0855
19236TIP3    H279200   0.667   1.583   2.919 -0.0259 -0.5229 -0.2703
19237TIP3   OH279201   4.154   1.523  11.980  0.2006  0.1580  0.3449
19237TIP3    H179202   4.155   1.436  11.938  1.1433  0.3796 -0.1148
19237TIP3    H279203   4.110   1.580  11.917  1.6779  0.5053 -0.4024
19238TIP3   OH279204   5.933   3.986  10.738 -0.3639  0.4051 -0.4668
19238TIP3    H179205   5.896   4.065  10.698 -2.4995  1.1309  2.7869
19238TIP3    H279206   5.986   4.018  10.810  2.8262 -0.9275 -2.1500
19239TIP3   OH279207   2.695   4.925  17.244 -0.5530 -0.2035 -0.4305
19239TIP3    H179208   2.764   4.872  17.284  1.0670  1.9528 -0.3375
19239TIP3    H279209   2.696   4.901  17.152  0.6707  0.1794 -0.5210
19240TIP3   OH279210   2.302   1.892   0.207  0.3169 -0.0469 -0.1254
19240TIP3    H179211   2.233   1.958   0.215  0.9936  0.6419  0.0245
19240TIP3    H279212   2.254   1.808   0.205 -0.3241  0.1477  3.9415
19241TIP3   OH279213   2.221   4.498   4.277  0.5675  0.3606 -0.1526
19241TIP3    H179214   2.308   4.459   4.274  0.6490  0.3215  1.6768
19241TIP3    H279215   2.222   4.552   4.356 -1.2204 -0.0723  0.2031
19242TIP3   OH279216   3.410   4.679   4.936 -0.2992 -0.3383 -0.3048
19242TIP3    H179217   3.371   4.594   4.918  0.1845 -0.7864  0.6796
19242TIP3    H279218   3.356   4.716   5.006  1.3589 -1.2361  1.5132
19243TIP3   OH279219   3.755   4.463  13.001  0.2872  0.3627  0.5131
19243TIP3    H179220   3.661   4.447  13.014  0.6718 -2.2788  0.2794
19243TIP3    H279221   3.761   4.502  12.914 -0.3963 -1.7048 -0.4782
19244TIP3   OH279222   3.084   3.964  10.598  0.3421  0.0763 -0.7120
19244TIP3    H179223   3.173   3.933  10.615 -0.4153 -1.2737  0.9491
19244TIP3    H279224   3.095   4.030  10.529  2.6362  0.0869 -0.3971
19245TIP3   OH279225   3.142   6.544  11.325  0.1671 -0.5964 -0.1530
19245TIP3    H179226   3.171   6.466  11.372  2.0059 -0.0475 -0.3069
19245TIP3    H279227   3.220   6.571  11.276 -0.3528  1.5172  0.1682
19246TIP3   OH279228   1.458   3.027   6.496  0.5652  0.1907  0.0785
19246TIP3    H179229   1.497   2.941   6.481  0.4656  0.5572 -2.5692
19246TIP3    H279230   1.370   3.008   6.528  0.5521 -0.7008 -0.4589
19247TIP3   OH279231   4.159   5.746   1.155 -0.0398  0.3235  0.2349
19247TIP3    H179232   4.218   5.804   1.204 -0.8160  0.3553  1.1650
19247TIP3    H279233   4.119   5.802   1.089 -0.3274  0.7221  0.7375
19248TIP3   OH279234   6.800   3.409  12.803 -0.2878  0.4022 -0.1132
19248TIP3    H179235   6.772   3.319  12.822  2.2176 -0.2352  0.8768
19248TIP3    H279236   6.788   3.418  12.709 -1.4126 -0.6793 -0.0881
19249TIP3   OH279237   4.390   5.503  14.341 -0.4028 -0.2410  0.1753
19249TIP3    H179238   4.329   5.569  14.373 -0.1015  0.4704 -0.7176
19249TIP3    H279239   4.466   5.510  14.399 -0.5024 -0.0304  0.2803
19250TIP3   OH279240   1.519   0.397   4.204 -0.5461 -0.2838  0.5930
19250TIP3    H179241   1.577   0.441   4.265 -0.9019  0.6614  0.2660
19250TIP3    H279242   1.506   0.461   4.133 -0.8205 -1.0316 -0.0430
19251TIP3   OH279243   3.220   1.681  11.192  0.5161  0.1255 -0.0602
19251TIP3    H179244   3.301   1.691  11.141 -0.1720  1.3598 -0.9160
19251TIP3    H279245   3.151   1.716  11.136 -0.5604 -0.4820  0.8576
19252TIP3   OH279246   0.546   6.260  14.055  0.0539 -0.0597 -0.0389
19252TIP3    H179247   0.540   6.342  14.007  1.2417 -0.0539 -0.1932
19252TIP3    H279248   0.524   6.283  14.145  0.0538  0.3614 -0.1481
19253TIP3   OH279249   6.001   0.718   1.972 -0.9142  0.0906  0.0881
19253TIP3    H179250   5.910   0.748   1.971 -0.8324  0.3846  0.8437
19253TIP3    H279251   6.003   0.648   2.037 -1.0184 -1.3282 -1.4043
19254TIP3   OH279252   5.150   2.923  14.334 -0.0738  0.2658  0.6389
19254TIP3    H179253   5.161   2.830  14.353  1.4322  0.3957  0.4747
19254TIP3    H279254   5.123   2.926  14.242  0.5819  0.0253  0.4361
19255TIP3   OH279255   6.238   0.739   0.877 -0.4731 -0.5629  0.2174
19255TIP3    H179256   6.251   0.779   0.963 -0.4481  0.9899 -0.4961
19255TIP3    H279257   6.146   0.711   0.877 -0.2388 -1.3467  1.0656
19256TIP3   OH279258   5.685   5.779  16.578  0.6686 -0.0542 -0.4458
19256TIP3    H179259   5.746   5.768  16.505  0.3951  0.5150 -0.7645
19256TIP3    H279260   5.732   5.833  16.641  0.4197  0.5651 -0.7874
19257TIP3   OH279261   6.334   6.067  12.618 -0.3252  0.2272  0.0439
19257TIP3    H179262   6.389   5.988  12.625  0.2224  0.5038 -1.0453
19257TIP3    H279263   6.393   6.133  12.582 -1.2824  0.6300 -0.7811
19258TIP3   OH279264   5.447   3.199  13.415  0.5407  0.0389 -0.3365
19258TIP3    H179265   5.490   3.114  13.425  0.0846 -0.0652  0.7816
19258TIP3    H279266   5.412   3.198  13.326  0.9369 -0.7559 -0.4870
19259TIP3   OH279267   4.299   2.891   3.704  0.3564 -0.5504 -0.2459
19259TIP3    H179268   4.297   2.823   3.771  1.3839 -1.5666 -1.2368
19259TIP3    H279269   4.211   2.888   3.664  0.7898 -2.1646 -1.1336
19260TIP3   OH279270   5.294   2.980  16.998  0.0082  0.2375 -0.1204
19260TIP3    H179271   5.366   3.037  16.970  1.0889 -0.4938  1.0723
19260TIP3    H279272   5.250   3.029  17.067  1.2663 -0.5627  1.2764
19261TIP3   OH279273   5.030   1.858  12.659 -0.0860  0.4658  0.2264
19261TIP3    H179274   4.943   1.835  12.629  0.7854 -0.6670 -1.5118
19261TIP3    H279275   5.050   1.941  12.615 -0.3220  0.7702  0.6924
19262TIP3   OH279276   0.139   5.838  16.573  0.3439  0.2977 -0.2392
19262TIP3    H179277   0.141   5.743  16.584 -1.4218  0.1553 -1.0306
19262TIP3    H279278   0.160   5.852  16.480  1.1813  0.7332  0.0023
19263TIP3   OH279279   2.014   5.388  17.168 -0.0724  0.0130 -0.5772
19263TIP3    H179280   2.089   5.330  17.157 -0.6270 -0.7355 -0.5405
19263TIP3    H279281   2.018   5.448  17.094 -0.0251 -0.7019 -1.1638
19264TIP3   OH279282   2.897   6.784   5.191  0.8949  0.0156 -0.2258
19264TIP3    H179283   2.955   6.771   5.267 -0.3898  1.6831  1.0758
19264TIP3    H279284   2.834   6.712   5.197  0.2543  0.6492  0.8244
19265TIP3   OH279285   1.760   6.470  14.531 -0.1399 -0.0350  0.5423
19265TIP3    H179286   1.840   6.440  14.574 -1.0101 -0.5343  1.8271
19265TIP3    H279287   1.782   6.468  14.437  1.6870  0.8228  0.9215
19266TIP3   OH279288   4.195   5.704   0.369 -0.2369  0.0630  0.3378
19266TIP3    H179289   4.151   5.695   0.284 -0.0239 -1.4433  0.3838
19266TIP3    H279290   4.153   5.781   0.409 -0.0143  1.0698 -1.3172
19267TIP3   OH279291   4.622   1.736  16.839 -0.3326 -0.3440 -0.2424
19267TIP3    H179292   4.530   1.724  16.814 -0.0733  2.7360 -2.9734
19267TIP3    H279293   4.620   1.810  16.901  0.2894 -0.1896 -0.4036
19268TIP3   OH279294   0.021   2.215   3.350 -0.1953 -0.3640  0.1827
19268TIP3    H179295   0.016   2.121   3.370 -0.3800 -0.5380 -0.6788
19268TIP3    H279296   0.104   2.225   3.303 -1.5570 -0.5835 -2.3124
19269TIP3   OH279297   1.954   4.993  12.454 -0.5137 -0.3732 -0.1798
19269TIP3    H179298   1.966   4.900  12.473  1.6059 -0.4711 -1.7852
19269TIP3    H279299   2.033   5.018  12.405 -1.1856  2.2001 -0.0320
19270TIP3   OH279300   1.281   1.753  12.139  0.0685 -0.0101 -0.5220
19270TIP3    H179301   1.304   1.661  12.127  0.1458  0.0288 -0.6744
19270TIP3    H279302   1.211   1.752  12.204  1.2194 -0.0522  0.7430
19271TIP3   OH279303   5.139   1.039  14.241  0.5123  0.1938  0.4546
19271TIP3    H179304   5.076   1.111  14.241  2.1052  1.6364  1.3198
19271TIP3    H279305   5.148   1.014  14.333  1.3123  0.1171  0.3647
19272TIP3   OH279306   3.275   6.199  12.421 -0.4699  0.3517 -0.4328
19272TIP3    H179307   3.312   6.193  12.509  0.5159  0.5324 -0.8348
19272TIP3    H279308   3.345   6.168  12.363  0.0059  3.1498 -1.4111
19273TIP3   OH279309   0.529   6.484  11.189 -0.3482 -0.5192  0.2832
19273TIP3    H179310   0.452   6.499  11.134  1.3569  3.8984 -1.1082
19273TIP3    H279311   0.594   6.446  11.131  0.1040  0.3235  0.2278
19274TIP3   OH279312   6.080   3.556   4.228 -0.3211  0.1887  0.2789
19274TIP3    H179313   6.060   3.492   4.296 -1.9386 -1.3438 -1.5898
19274TIP3    H279314   6.176   3.556   4.223 -0.2127 -0.2768  1.9742
19275TIP3   OH279315   1.598   3.846  12.242 -0.1359 -0.4628 -0.1589
19275TIP3    H179316   1.518   3.816  12.198 -0.6159  2.1682 -1.1447
19275TIP3    H279317   1.649   3.887  12.173 -0.0798  2.1236  1.3577
19276TIP3   OH279318   2.622   5.331   0.020  0.3181  0.3123 -0.6354
19276TIP3    H179319   2.583   5.385   0.089 -0.3162  0.3239 -0.9939
19276TIP3    H279320   2.556   5.263   0.003 -0.4536  1.5292 -2.6768
19277TIP3   OH279321   6.797   3.299  14.749  0.1381  0.2446 -0.6064
19277TIP3    H179322   6.860   3.372  14.740  0.3051 -0.0603 -2.1886
19277TIP3    H279323   6.824   3.254  14.829 -1.4770  3.3392  1.7857
19278TIP3   OH279324   2.628   4.250  14.114  0.1575 -0.2151  0.2557
19278TIP3    H179325   2.553   4.286  14.161 -0.2306 -1.0431  0.2803
19278TIP3    H279326   2.702   4.265  14.172 -0.1537 -0.2855  0.6749
19279TIP3   OH279327   0.133   4.384   2.214 -0.2244  0.0772 -0.0664
19279TIP3    H179328   0.071   4.312   2.205 -0.4672  0.2623  0.1234
19279TIP3    H279329   0.186   4.362   2.290  0.8222 -0.7364 -1.0145
19280TIP3   OH279330   2.951   2.032  15.807 -0.4357 -0.1655 -0.1138
19280TIP3    H179331   2.875   2.090  15.804 -0.0588  0.2652 -1.8333
19280TIP3    H279332   3.017   2.081  15.855 -0.6312  0.2161 -0.2292
19281TIP3   OH279333   0.600   6.546   4.802 -0.0698  0.7792 -0.3019
19281TIP3    H179334   0.632   6.605   4.733  2.0438  0.7705  0.6264
19281TIP3    H279335   0.637   6.582   4.883 -3.5368  1.5060  1.0237
19282TIP3   OH279336   1.526   3.465  15.457 -0.5884 -0.7323 -0.0765
19282TIP3    H179337   1.606   3.506  15.487 -0.6228 -0.6618 -0.0817
19282TIP3    H279338   1.535   3.460  15.362  0.1870 -2.3332  0.0637
19283TIP3   OH279339   5.294   4.076  13.334 -0.0235 -0.3782 -0.1544
19283TIP3    H179340   5.233   4.071  13.261 -0.1293 -0.1567 -0.0833
19283TIP3    H279341   5.325   4.167  13.333  0.7883 -0.6540 -0.5799
19284TIP3   OH279342   1.957   6.107   4.025 -0.1407  0.2401  0.3110
19284TIP3    H179343   1.978   6.031   4.080  2.0085 -0.8821 -1.9716
19284TIP3    H279344   1.997   6.181   4.070  2.9300 -0.8959 -0.4689
19285TIP3   OH279345   3.954   3.252  15.195  0.2589 -0.2486 -0.5094
19285TIP3    H179346   3.977   3.260  15.288  2.8392 -2.4304 -0.9207
19285TIP3    H279347   3.875   3.199  15.195  1.3401 -1.9017  0.3617
19286TIP3   OH279348   4.740   3.263   4.727  0.4571  0.0006  0.4307
19286TIP3    H179349   4.831   3.291   4.718  0.2658  0.0261 -1.5654
19286TIP3    H279350   4.692   3.343   4.747  0.8393  0.0178  1.3062
19287TIP3   OH279351   4.028   3.031   2.225  0.2771 -0.1221 -0.1115
19287TIP3    H179352   4.060   2.947   2.193  0.8915 -0.2583  0.8334
19287TIP3    H279353   3.945   3.044   2.180  0.9922 -0.4187 -1.5705
19288TIP3   OH279354   3.194   2.660   4.097 -0.1075 -0.6446  0.4652
19288TIP3    H179355   3.186   2.748   4.133 -1.3401 -0.9506  0.9662
19288TIP3    H279356   3.105   2.635   4.073  0.2715 -1.6489  0.0639
19289TIP3   OH279357   5.748   3.746   3.326 -0.1626 -0.1984 -0.2283
19289TIP3    H179358   5.816   3.693   3.367  0.0725 -1.2701 -1.9417
19289TIP3    H279359   5.796   3.810   3.274 -0.4141 -1.7162 -2.3987
19290TIP3   OH279360   0.142   1.058   4.555 -0.2013 -0.6487 -0.2486
19290TIP3    H179361   0.049   1.045   4.536 -0.9139  0.6471  2.1681
19290TIP3    H279362   0.165   1.139   4.509 -0.1219 -1.2235 -1.2396
19291TIP3   OH279363   4.658   4.779   1.856  0.2021  0.2377 -0.3367
19291TIP3    H179364   4.647   4.779   1.761 -1.5342 -0.2455 -0.1578
19291TIP3    H279365   4.677   4.687   1.878 -1.5601 -0.0692 -0.0126
19292TIP3   OH279366   2.720   4.537   4.943 -1.0033  0.4004 -0.3578
19292TIP3    H179367   2.640   4.557   4.993  0.0871  1.7493  0.9156
19292TIP3    H279368   2.704   4.575   4.857 -1.8259  0.4800 -0.1798
19293TIP3   OH279369   0.192   1.464  13.220  0.2079  0.5100 -0.4916
19293TIP3    H179370   0.229   1.531  13.163 -0.9948  0.0999 -1.7819
19293TIP3    H279371   0.169   1.510  13.301  2.1687  1.0433 -0.2272
19294TIP3   OH279372   1.928   1.542   1.921  0.2542 -0.5453 -0.4180
19294TIP3    H179373   1.904   1.477   1.986  0.9253 -1.7070 -1.3104
19294TIP3    H279374   1.998   1.593   1.962 -0.0247 -0.6080  0.1402
19295TIP3   OH279375   6.713   3.383   1.260 -0.1686 -0.4155  0.1252
19295TIP3    H179376   6.666   3.320   1.314  0.6052  0.1583  1.4988
19295TIP3    H279377   6.748   3.332   1.187 -1.1726 -1.2103  0.1937
19296TIP3   OH279378   6.520   0.326   3.689  0.1541  0.1735  0.2661
19296TIP3    H179379   6.572   0.330   3.769  2.4059  1.7871 -1.2137
19296TIP3    H279380   6.570   0.268   3.631 -2.1131 -2.0518  0.4133
19297TIP3   OH279381   1.046   6.114   1.904  0.2565 -0.2974 -0.0906
19297TIP3    H179382   1.038   6.167   1.984 -2.0513 -0.5551 -0.1183
19297TIP3    H279383   1.086   6.173   1.840  0.5578  0.4405  0.7692
19298TIP3   OH279384   2.135   5.154  15.511 -0.4068  0.4110  0.3711
19298TIP3    H179385   2.193   5.170  15.585 -1.1934 -1.8316  1.5354
19298TIP3    H279386   2.047   5.151  15.550 -0.7747 -1.4112 -0.5349
19299TIP3   OH279387   4.585   0.268   0.084 -0.2747 -0.2857  0.2072
19299TIP3    H179388   4.542   0.332   0.140  1.9556  0.8050  0.7674
19299TIP3    H279389   4.652   0.229   0.140  0.7681 -0.5064 -1.1565
19300TIP3   OH279390   5.775   5.354   4.595 -0.0624  0.1851 -0.5525
19300TIP3    H179391   5.789   5.416   4.524  1.5530  0.4053 -0.0383
19300TIP3    H279392   5.793   5.403   4.675  0.3295 -0.6927 -0.0970
19301TIP3   OH279393   4.889   0.898   2.821 -0.5981  0.2165  0.5133
19301TIP3    H179394   4.843   0.817   2.841 -2.5318  1.3955  0.9191
19301TIP3    H279395   4.899   0.898   2.725 -0.8016 -0.3808  0.4959
19302TIP3   OH279396   4.744   1.714  15.195 -0.2323  0.1198  0.7250
19302TIP3    H179397   4.678   1.755  15.251  0.1595  1.0257  0.5315
19302TIP3    H279398   4.818   1.697  15.254 -0.8977 -1.5909  1.1159
19303TIP3   OH279399   2.942   5.841   5.300 -0.5312  0.1316  0.1929
19303TIP3    H179400   2.936   5.909   5.233  1.1753 -0.3036 -0.4308
19303TIP3    H279401   3.033   5.811   5.295 -0.6693 -0.6231  2.0028
19304TIP3   OH279402   4.999   6.563  11.583  0.3247 -0.0841  0.4580
19304TIP3    H179403   5.023   6.647  11.622 -0.5854  0.8443 -0.9518
19304TIP3    H279404   5.080   6.512  11.585  0.7735  0.6405  1.7388
19305TIP3   OH279405   4.320   2.229  12.408 -0.2429  0.1304  0.6715
19305TIP3    H179406   4.387   2.297  12.422  2.1877 -1.8833 -0.7547
19305TIP3    H279407   4.349   2.156  12.462 -1.3637 -0.7414  0.0972
19306TIP3   OH279408   1.600   2.947   3.376 -0.5989 -0.2053 -0.4536
19306TIP3    H179409   1.538   3.014   3.405 -0.9998 -0.8092  0.0976
19306TIP3    H279410   1.664   2.941   3.447  0.5264  0.9558 -1.3582
19307TIP3   OH279411   2.794   4.180   5.791  0.3411 -0.4981 -0.4569
19307TIP3    H179412   2.744   4.131   5.856  0.4382  1.7922  1.4145
19307TIP3    H279413   2.745   4.168   5.710 -3.0406  1.2252  1.2022
19308TIP3   OH279414   4.081   5.075   1.754  0.8156 -0.2299  0.3828
19308TIP3    H179415   4.174   5.092   1.768  0.7733 -0.4730  0.9710
19308TIP3    H279416   4.077   5.037   1.666  1.3147 -0.5814  0.5109
19309TIP3   OH279417   4.636   5.395  13.491 -0.2448  0.2118 -0.3198
19309TIP3    H179418   4.665   5.330  13.555  2.8875  1.9657  0.1857
19309TIP3    H279419   4.656   5.479  13.533 -1.0610  1.4273 -2.3157
19310TIP3   OH279420   5.330   6.290   1.478 -0.3820 -0.2207 -0.1947
19310TIP3    H179421   5.246   6.247   1.494  0.6016 -2.3499 -0.4696
19310TIP3    H279422   5.340   6.288   1.383 -0.0762  0.1083 -0.1692
19311TIP3   OH279423   3.026   3.966   2.954 -0.5989  1.0815 -0.6285
19311TIP3    H179424   3.009   3.920   3.036 -1.4935  2.0287 -0.2657
19311TIP3    H279425   2.982   3.914   2.887  1.6276 -0.6717 -0.7844
19312TIP3   OH279426   5.796   0.187  12.377  0.3022  0.1670  0.1012
19312TIP3    H179427   5.809   0.263  12.434 -0.3957 -0.4338  1.0727
19312TIP3    H279428   5.883   0.168  12.343  0.4429  1.5668 -0.3692
19313TIP3   OH279429   4.428   6.236   4.772 -0.4861  0.7691  0.1659
19313TIP3    H179430   4.501   6.241   4.709 -0.8069  0.8990 -0.2015
19313TIP3    H279431   4.456   6.171   4.836 -1.2277 -1.2765 -1.5207
19314TIP3   OH279432   1.873   4.555  11.973  0.0850 -0.4543 -0.7869
19314TIP3    H179433   1.820   4.495  12.024  0.3844 -0.5157 -0.5457
19314TIP3    H279434   1.850   4.536  11.882 -0.9981  0.1641 -0.6509
19315TIP3   OH279435   5.833   4.321   3.233  1.0814  0.7492  0.2428
19315TIP3    H179436   5.798   4.351   3.149  2.1316  1.0988 -0.0823
19315TIP3    H279437   5.758   4.284   3.279  0.7629 -0.7949 -1.4665
19316TIP3   OH279438   1.573   6.355   5.834  0.0421 -0.1686 -0.4211
19316TIP3    H179439   1.664   6.376   5.858  0.4523 -1.1259 -1.1218
19316TIP3    H279440   1.574   6.352   5.738 -0.5089 -1.1540 -0.3945
19317TIP3   OH279441   3.481   5.950  16.643 -0.0605  0.4304  0.9214
19317TIP3    H179442   3.431   5.927  16.721 -0.7376  1.8878  0.9334
19317TIP3    H279443   3.571   5.925  16.663 -0.4210 -0.2388  1.7212
19318TIP3   OH279444   2.398   2.306   0.449 -0.0479 -0.1776 -0.2723
19318TIP3    H179445   2.488   2.277   0.459 -0.3551 -1.2739 -0.6344
19318TIP3    H279446   2.376   2.345   0.534 -0.0092 -2.0972  0.6384
19319TIP3   OH279447   6.131   4.154  16.592  0.2145  0.3802  0.0217
19319TIP3    H179448   6.134   4.059  16.588 -0.1640  0.3682  0.0282
19319TIP3    H279449   6.213   4.182  16.552 -0.5143  0.0892 -1.7217
19320TIP3   OH279450   0.649   5.688   3.244 -0.0512 -0.4520  0.0846
19320TIP3    H179451   0.648   5.784   3.253  1.3118 -0.4009 -0.1690
19320TIP3    H279452   0.701   5.657   3.319 -0.6900 -1.0062  0.2977
19321TIP3   OH279453   4.614   4.600   4.399 -0.1237  0.0342 -0.2203
19321TIP3    H179454   4.689   4.581   4.343 -1.5609  0.5618 -2.3739
19321TIP3    H279455   4.573   4.514   4.413  1.2946 -0.3725  1.6180
19322TIP3   OH279456   3.251   4.201   5.985 -0.3647  0.2748 -0.0014
19322TIP3    H179457   3.314   4.235   5.921 -0.3752  1.1479  0.4459
19322TIP3    H279458   3.172   4.255   5.972 -0.5980  0.0060  0.2903
19323TIP3   OH279459   4.099   2.777   3.496  0.0838  0.3991 -0.1765
19323TIP3    H179460   4.087   2.692   3.454 -0.0994  0.2140  0.2414
19323TIP3    H279461   4.089   2.841   3.425  0.9339  0.0471 -0.6237
19324TIP3   OH279462   2.700   3.904   0.828 -0.1527 -0.2333 -0.4577
19324TIP3    H179463   2.617   3.937   0.794 -0.4492  0.0932  0.5760
19324TIP3    H279464   2.676   3.832   0.886  0.3937 -1.2091 -1.4294
19325TIP3   OH279465   5.259   0.874  11.275  0.0358 -0.0851 -0.2772
19325TIP3    H179466   5.167   0.897  11.285  0.6544  1.6743  2.0051
19325TIP3    H279467   5.306   0.953  11.302  2.2071 -1.0037 -1.2835
19326TIP3   OH279468   2.361   6.000   3.098 -0.3578  0.1262 -0.2911
19326TIP3    H179469   2.354   5.987   3.193 -0.6749 -0.0712 -0.3412
19326TIP3    H279470   2.276   6.034   3.072 -0.2329  0.2848 -0.4886
19327TIP3   OH279471   3.557   4.686  14.104  0.3284 -0.4696 -0.6302
19327TIP3    H179472   3.532   4.594  14.114  1.5904 -1.4401 -5.2539
19327TIP3    H279473   3.645   4.684  14.066  1.0791  2.7022  0.7126
19328TIP3   OH279474   5.983   3.242  15.205  0.5875  0.5484  0.5063
19328TIP3    H179475   6.043   3.190  15.151  0.9190  1.1092  0.3270
19328TIP3    H279476   5.900   3.239  15.158  0.8222  0.8645  0.0648
19329TIP3   OH279477   0.221   4.711   4.884  0.3670 -0.1258  0.4657
19329TIP3    H179478   0.272   4.633   4.902 -0.5246 -1.1449 -1.3054
19329TIP3    H279479   0.284   4.774   4.849  0.7463 -0.7187  0.0846
19330TIP3   OH279480   2.410   5.279  15.424 -0.0386  0.1781 -0.2187
19330TIP3    H179481   2.444   5.201  15.381 -0.7277 -0.5865  0.6051
19330TIP3    H279482   2.323   5.292  15.386 -0.1503  0.2165  0.0466
19331TIP3   OH279483   2.891   4.752  12.616  0.3544 -0.2228 -0.0441
19331TIP3    H179484   2.908   4.677  12.672 -1.4365 -0.2152  0.5435
19331TIP3    H279485   2.966   4.810  12.631  1.3266 -1.5065  0.1276
19332TIP3   OH279486   4.392   1.029   0.461 -0.0514  0.0288 -0.0582
19332TIP3    H179487   4.321   0.973   0.492 -0.6862  0.4461 -0.7555
19332TIP3    H279488   4.352   1.115   0.450  0.6974  0.3992  0.0751
19333TIP3   OH279489   1.556   3.187  11.210 -0.4028  0.3103  0.8323
19333TIP3    H179490   1.516   3.146  11.134 -0.6863 -0.0972  1.1943
19333TIP3    H279491   1.570   3.278  11.184 -0.7636  0.2432  0.3946
19334TIP3   OH279492   3.920   3.681   0.270  0.0566 -0.2288 -0.4886
19334TIP3    H179493   3.996   3.622   0.271  1.1144  1.0966 -1.1430
19334TIP3    H279494   3.933   3.737   0.346  0.0201  0.3653 -0.9211
19335TIP3   OH279495   6.039   3.870  16.640  0.0524 -0.3900 -0.1019
19335TIP3    H179496   6.035   3.778  16.614  0.0677 -0.1647 -0.9080
19335TIP3    H279497   6.044   3.867  16.735 -2.4381 -1.1668  0.0460
19336TIP3   OH279498   4.595   6.366   3.037 -0.3091  0.2525 -0.2350
19336TIP3    H179499   4.652   6.320   3.098 -0.8606 -1.8019 -1.2361
19336TIP3    H279500   4.522   6.306   3.022 -0.1859  0.6958 -2.8991
19337TIP3   OH279501   6.112   4.009  12.648  0.5065 -0.1840 -0.1520
19337TIP3    H179502   6.150   3.922  12.662  0.7719 -0.2649 -1.2705
19337TIP3    H279503   6.032   3.992  12.599  1.5096  0.3169 -2.0233
19338TIP3   OH279504   0.351   0.742  17.265 -0.3349 -0.2441 -0.1730
19338TIP3    H179505   0.264   0.765  17.234  0.9757  1.2697 -2.8680
19338TIP3    H279506   0.382   0.675  17.204 -0.1549 -1.8661  1.6486
19339TIP3   OH279507   2.638   6.045   3.797  0.2372 -0.2627 -0.0293
19339TIP3    H179508   2.555   6.000   3.787 -0.5841  1.4184 -1.0102
19339TIP3    H279509   2.624   6.107   3.869  0.2686  0.8292 -0.9508
19340TIP3   OH279510   1.208   5.362   1.825  0.3394 -0.2734  0.1614
19340TIP3    H179511   1.139   5.426   1.807  1.8056  0.6498 -2.4742
19340TIP3    H279512   1.194   5.293   1.760 -0.2661 -1.8619  1.9627
19341TIP3   OH279513   1.967   4.407  15.288 -0.2900  0.1035 -0.1923
19341TIP3    H179514   1.992   4.316  15.303 -2.4320 -0.4817 -0.1334
19341TIP3    H279515   1.875   4.403  15.262  0.2709  2.0253 -2.6432
19342TIP3   OH279516   4.190   2.627   4.875 -0.1471 -0.1647  0.0342
19342TIP3    H179517   4.098   2.629   4.852 -0.0716  0.2448 -0.2471
19342TIP3    H279518   4.213   2.719   4.891 -0.4644 -0.5343  2.8250
19343TIP3   OH279519   4.757   0.898   3.738 -0.1134 -0.1552  0.0546
19343TIP3    H179520   4.719   0.982   3.764  0.6206 -0.1295  1.0522
19343TIP3    H279521   4.823   0.880   3.804  2.8452  0.6440 -2.5505
19344TIP3   OH279522   3.326   4.013  14.816 -0.2339  0.3439  0.4797
19344TIP3    H179523   3.290   4.024  14.904 -1.7522 -0.9190  0.0310
19344TIP3    H279524   3.291   3.930  14.786  0.4457  0.6729 -1.2533
19345TIP3   OH279525   5.735   5.523  10.995  0.1965  1.0817  0.6788
19345TIP3    H179526   5.771   5.550  11.079  1.5560  1.3239  0.0532
19345TIP3    H279527   5.642   5.513  11.010  0.7630 -1.4301  2.8580
19346TIP3   OH279528   2.964   6.311  11.597 -0.5471 -0.6119 -0.6647
19346TIP3    H179529   2.945   6.393  11.551 -0.7548  0.4650  1.2599
19346TIP3    H279530   2.881   6.288  11.639  0.7240  0.9031  2.8830
19347TIP3   OH279531   5.066   3.539   1.303 -0.0959  0.3321 -0.1993
19347TIP3    H179532   4.972   3.528   1.297 -0.4953  2.9435  0.5634
19347TIP3    H279533   5.093   3.568   1.215  0.3967 -2.7656 -1.1208
19348TIP3   OH279534   2.452   0.983  15.465  0.1450  0.7290 -0.2879
19348TIP3    H179535   2.501   0.931  15.528 -0.7297  1.5332  1.0901
19348TIP3    H279536   2.518   1.028  15.413  0.8762  0.6729  0.5906
19349TIP3   OH279537   0.363   3.499  15.293  0.2710  0.3609  0.0294
19349TIP3    H179538   0.333   3.505  15.383 -0.1211  0.2394 -0.0910
19349TIP3    H279539   0.338   3.582  15.252 -0.6611 -0.0789 -0.2962
19350TIP3   OH279540   6.587   6.172  12.819 -0.1065  0.0110  0.4639
19350TIP3    H179541   6.668   6.186  12.771  0.8541 -1.1110  1.7349
19350TIP3    H279542   6.566   6.079  12.806  0.9092 -0.6622  3.3007
19351TIP3   OH279543   6.686   2.236   4.174 -0.5358 -0.4279 -0.8305
19351TIP3    H179544   6.630   2.216   4.099 -0.6031 -0.2910 -0.8160
19351TIP3    H279545   6.741   2.158   4.184  0.1817 -0.0345 -1.6642
19352TIP3   OH279546   3.911   3.772   5.210 -0.5337 -0.0831 -0.2475
19352TIP3    H179547   3.879   3.857   5.180  0.1833  0.2977  0.0459
19352TIP3    H279548   3.998   3.764   5.169  0.0344 -0.0060  0.9241
19353TIP3   OH279549   2.208   6.287   5.077  0.0456 -0.1049  0.1842
19353TIP3    H179550   2.117   6.258   5.081  0.4310 -1.1330  1.7375
19353TIP3    H279551   2.254   6.233   5.141  1.5214  1.2326  0.2999
19354TIP3   OH279552   5.555   6.580  11.036 -0.1006 -0.5589  0.2899
19354TIP3    H179553   5.617   6.536  10.978  1.3827  1.9667 -0.1214
19354TIP3    H279554   5.511   6.644  10.979 -2.2522 -1.4966  0.8509
19355TIP3   OH279555   5.617   3.107   3.919  0.2493  0.2712  0.2670
19355TIP3    H179556   5.638   3.093   3.827 -0.8230  2.2816 -0.3218
19355TIP3    H279557   5.592   3.200   3.924 -0.2537  0.0511  2.4703
19356TIP3   OH279558   2.517   4.742   4.365 -0.0047 -0.0986 -0.6207
19356TIP3    H179559   2.501   4.829   4.330 -1.3066  0.3205  0.9438
19356TIP3    H279560   2.590   4.708   4.313 -1.9591  0.3873 -3.8032
19357TIP3   OH279561   2.839   2.339   1.362 -0.9591  0.2547  0.4411
19357TIP3    H179562   2.764   2.281   1.368 -1.2538  0.8437  3.0031
19357TIP3    H279563   2.805   2.418   1.319 -1.9389  0.6825  1.9521
19358TIP3   OH279564   4.805   6.323   3.404  0.0336 -0.3746 -0.2759
19358TIP3    H179565   4.772   6.244   3.362 -1.4662  0.3716 -0.5110
19358TIP3    H279566   4.898   6.326   3.378 -0.1622 -1.4624 -1.1575
19359TIP3   OH279567   4.274   4.371   5.173  0.2726  0.3871 -0.1405
19359TIP3    H179568   4.260   4.312   5.099  2.2347  0.1143 -0.3117
19359TIP3    H279569   4.368   4.367   5.190  0.0497  1.4992  1.4971
19360TIP3   OH279570   1.753   2.286   0.651 -0.5751  0.2284 -0.1587
19360TIP3    H179571   1.847   2.305   0.651 -0.4093 -0.5974 -0.3209
19360TIP3    H279572   1.722   2.315   0.565 -0.4694  0.4844 -0.1116
19361TIP3   OH279573   4.109   4.054  13.375  0.0271  0.3877 -0.1269
19361TIP3    H179574   4.111   3.959  13.373  0.1642  0.3198  2.2044
19361TIP3    H279575   4.015   4.076  13.380 -0.1409  0.4723 -2.9514
19362TIP3   OH279576   0.478   3.874   3.084 -0.1435  0.1996 -0.3060
19362TIP3    H179577   0.509   3.886   3.174  2.0234 -1.0568 -0.8536
19362TIP3    H279578   0.544   3.917   3.030 -0.9390  0.1187 -1.3601
19363TIP3   OH279579   6.602   6.737   2.207  0.5556 -0.1211  0.0148
19363TIP3    H179580   6.658   6.699   2.274  1.1027  0.7478  0.0683
19363TIP3    H279581   6.658   6.801   2.163  0.4084 -1.1488 -1.7106
19364TIP3   OH279582   2.303   5.213  13.815 -0.2579 -0.2081 -0.5075
19364TIP3    H179583   2.286   5.173  13.730  0.0605 -1.7754  0.1476
19364TIP3    H279584   2.275   5.148  13.879 -1.6370  1.4383  0.6119
19365TIP3   OH279585   1.634   1.151   1.395  0.4211  0.4707  0.2398
19365TIP3    H179586   1.587   1.229   1.426  0.4382 -0.2857  2.2240
19365TIP3    H279587   1.727   1.174   1.406  0.4579  0.6693 -0.4533
19366TIP3   OH279588   3.653   0.004   1.627  0.6989  0.2270 -0.2183
19366TIP3    H179589   3.693   0.016   1.713  0.1703  0.8092 -0.0459
19366TIP3    H279590   3.725  -0.023   1.571  0.5108 -3.0418  1.0187
19367TIP3   OH279591   3.094   2.197  14.791  0.7393 -0.0444  0.1033
19367TIP3    H179592   3.128   2.285  14.774  0.4568 -0.3398 -2.2798
19367TIP3    H279593   3.167   2.149  14.830  1.1869  0.9710  0.5167
19368TIP3   OH279594   4.697   5.474  15.795 -0.2626  0.2874 -0.0970
19368TIP3    H179595   4.678   5.566  15.812 -0.6784 -0.1317  1.7496
19368TIP3    H279596   4.721   5.472  15.702 -2.8713  1.8248 -0.8576
19369TIP3   OH279597   5.661   0.545   3.852 -0.8088  0.7319  0.0896
19369TIP3    H179598   5.603   0.554   3.776 -1.3553  0.9086  0.5251
19369TIP3    H279599   5.627   0.609   3.915 -0.5602  0.3482  0.6071
19370TIP3   OH279600   4.254   1.867   0.130 -0.1715  0.3235 -0.9291
19370TIP3    H179601   4.273   1.855   0.037 -0.7486  1.6261 -1.2244
19370TIP3    H279602   4.290   1.789   0.172 -0.5742 -0.6409 -2.3301
19371TIP3   OH279603   4.460   5.787   5.435 -0.1957 -0.5382  0.7449
19371TIP3    H179604   4.509   5.723   5.485 -0.6264 -0.8698  0.7498
19371TIP3    H279605   4.517   5.864   5.430  0.0370 -0.6718  1.3421
19372TIP3   OH279606   2.194   2.625  11.922 -0.1764 -0.2688 -0.2079
19372TIP3    H179607   2.283   2.653  11.940 -0.6332  1.2627 -0.2104
19372TIP3    H279608   2.183   2.639  11.828 -1.0663  1.5297  0.1466
19373TIP3   OH279609   4.919   0.820  15.064 -0.1665  0.1335 -0.1677
19373TIP3    H179610   5.008   0.831  15.098 -0.7613  0.3001  1.3961
19373TIP3    H279611   4.930   0.810  14.970  1.8292 -3.3087  0.3473
19374TIP3   OH279612   3.197   1.956  12.277  0.4059  0.4693  0.5896
19374TIP3    H179613   3.253   1.995  12.343 -0.2965  2.8117 -0.1460
19374TIP3    H279614   3.112   1.998  12.289 -0.0067  0.1847 -1.1021
19375TIP3   OH279615   3.974   6.045  11.136 -0.8829 -0.0354 -0.7202
19375TIP3    H179616   3.964   6.136  11.107 -1.3338 -0.0159 -0.5090
19375TIP3    H279617   4.068   6.029  11.132 -0.6068  1.0420  1.0017
19376TIP3   OH279618   4.532   5.289  16.894 -0.4485  0.2209  0.0483
19376TIP3    H179619   4.452   5.238  16.879 -0.4699  0.6010 -1.2743
19376TIP3    H279620   4.528   5.358  16.826 -0.3366  1.8531  1.6620
19377TIP3   OH279621   5.680   5.912  15.147  0.2220  0.1165 -0.0427
19377TIP3    H179622   5.689   5.954  15.233  0.8814 -0.8521  0.3849
19377TIP3    H279623   5.608   5.849  15.160  0.8678 -0.6152  0.0568
19378TIP3   OH279624   6.271   6.446  16.679  0.5826 -1.1355 -0.4476
19378TIP3    H179625   6.347   6.503  16.675  1.0568 -1.7273  0.1125
19378TIP3    H279626   6.243   6.450  16.771  0.6770 -1.8858 -0.3858
19379TIP3   OH279627   5.608   3.133  14.840  0.3194  0.2189 -0.6464
19379TIP3    H179628   5.558   3.101  14.765  0.7825 -1.4607 -0.2519
19379TIP3    H279629   5.561   3.212  14.868 -0.8468 -0.1088 -1.6391
19380TIP3   OH279630   4.454   1.326  12.408 -0.3706  0.1725 -0.0565
19380TIP3    H179631   4.369   1.305  12.371 -0.0115  2.2646 -2.1695
19380TIP3    H279632   4.435   1.393  12.474 -0.3249  1.1439 -1.0081
19381TIP3   OH279633   0.477   1.383  14.678 -0.6246  0.9329  0.0582
19381TIP3    H179634   0.427   1.361  14.599  1.2606 -1.7572 -0.4326
19381TIP3    H279635   0.550   1.436  14.646 -1.9429  3.1105  0.5276
19382TIP3   OH279636   1.724   6.816  16.519 -0.1346 -0.0459  0.4013
19382TIP3    H179637   1.740   6.732  16.476 -0.7788 -0.1390  0.3353
19382TIP3    H279638   1.769   6.809  16.604 -0.3747 -0.5391  0.4880
19383TIP3   OH279639   1.651   5.438   3.504 -0.0579 -0.4273 -0.3611
19383TIP3    H179640   1.560   5.468   3.497 -0.7080 -2.8462 -3.4529
19383TIP3    H279641   1.644   5.349   3.538  1.0533 -1.0690 -1.7786
19384TIP3   OH279642   4.396   2.899   3.338  0.4938  0.3552 -0.2657
19384TIP3    H179643   4.455   2.929   3.407  0.7591  0.3540 -0.4922
19384TIP3    H279644   4.358   2.979   3.303  0.2085  0.3444  0.0118
19385TIP3   OH279645   6.589   2.661  10.843 -0.8075 -0.0481 -1.0632
19385TIP3    H179646   6.647   2.686  10.771 -0.5540 -2.4579 -1.7294
19385TIP3    H279647   6.645   2.614  10.905 -1.3865  0.4782 -0.1211
19386TIP3   OH279648   5.429   2.060   4.184  0.3127  0.0205 -0.2060
19386TIP3    H179649   5.346   2.056   4.136 -0.2892 -1.4483  0.9143
19386TIP3    H279650   5.434   2.150   4.216 -0.4185  0.3535 -1.0031
19387TIP3   OH279651   5.813   1.651   3.282 -0.1379 -0.1529  0.2629
19387TIP3    H179652   5.847   1.587   3.344 -0.1787  0.3319  0.7952
19387TIP3    H279653   5.877   1.652   3.211  0.3507 -0.0920  0.7052
19388TIP3   OH279654   4.384   5.573   1.560  0.1452 -0.5312  0.1224
19388TIP3    H179655   4.476   5.553   1.577  0.7791  1.1077 -1.1620
19388TIP3    H279656   4.383   5.605   1.469 -1.2774  1.9573  0.9710
19389TIP3   OH279657   4.258   5.937  14.318 -0.5210 -0.1999 -0.4152
19389TIP3    H179658   4.348   5.913  14.298 -1.0172 -2.0401 -0.5024
19389TIP3    H279659   4.219   5.857  14.354 -0.7694  1.9243  4.3708
19390TIP3   OH279660   4.123   2.696   3.117  0.8402  0.3408 -0.2655
19390TIP3    H179661   4.082   2.778   3.088  0.8834  1.1958  2.0369
19390TIP3    H279662   4.049   2.637   3.134  0.7743  0.2375 -0.8798
19391TIP3   OH279663   4.494   5.154  14.244 -0.4202 -0.1111 -0.2683
19391TIP3    H179664   4.448   5.089  14.191 -1.6848  0.3510  0.2392
19391TIP3    H279665   4.584   5.153  14.211 -0.7430 -1.1689 -1.1458
19392TIP3   OH279666   5.147   4.229  14.612 -0.2045 -0.0666 -0.0915
19392TIP3    H179667   5.213   4.262  14.551  1.8330 -2.6744  0.6466
19392TIP3    H279668   5.185   4.243  14.698 -0.9679 -0.8529  0.3797
19393TIP3   OH279669   2.975   5.993   4.117  0.1948 -0.4114 -0.1531
19393TIP3    H179670   2.957   6.067   4.174  1.7969  0.6116 -0.9230
19393TIP3    H279671   2.921   6.009   4.039 -0.3460 -0.6726  0.1656
19394TIP3   OH279672   6.706   2.414   4.752 -0.0424  0.3341 -0.0296
19394TIP3    H179673   6.784   2.360   4.761 -1.0858 -1.0915  0.6061
19394TIP3    H279674   6.697   2.429   4.658  1.2495  0.9169 -0.0734
19395TIP3   OH279675   4.090   2.901  15.257  0.1109  0.2593  0.0432
19395TIP3    H179676   4.033   2.935  15.188  1.0917  1.3447 -0.2427
19395TIP3    H279677   4.053   2.935  15.339 -0.7358 -0.5881  0.0229
19396TIP3   OH279678   0.749   6.807  11.293  0.1402  0.0022  0.7782
19396TIP3    H179679   0.798   6.804  11.211  0.0738  0.6364  0.7147
19396TIP3    H279680   0.815   6.820  11.360  0.1251  0.2486  0.7479
19397TIP3   OH279681   3.442   5.776   0.286 -0.1882  0.5922  0.1152
19397TIP3    H179682   3.365   5.722   0.269  1.3169 -1.1299 -1.4853
19397TIP3    H279683   3.506   5.749   0.220  2.0159  1.5479  1.7781
19398TIP3   OH279684   6.646   4.330   1.934  0.5749 -0.5586 -0.0037
19398TIP3    H179685   6.590   4.390   1.984  0.1593 -1.4254  0.5986
19398TIP3    H279686   6.592   4.304   1.859  0.8274 -0.0267 -0.3688
19399TIP3   OH279687   6.422   1.524   5.863  0.6794  0.3218  0.4560
19399TIP3    H179688   6.396   1.530   5.955 -0.5871  0.0132  0.1305
19399TIP3    H279689   6.363   1.584   5.817  0.0919 -0.8644 -0.3794
19400TIP3   OH279690   1.143   2.029   4.912 -0.1806  0.6669 -0.0063
19400TIP3    H179691   1.112   2.032   5.002 -0.3251  1.6353 -0.0918
19400TIP3    H279692   1.173   2.118   4.893 -0.0633  0.4480 -0.8861
19401TIP3   OH279693   4.324   0.026   4.371  0.6979 -0.0473 -0.2370
19401TIP3    H179694   4.250  -0.008   4.422 -0.3029  0.2156 -1.4790
19401TIP3    H279695   4.305   0.119   4.362  0.6399 -0.1723 -1.4556
19402TIP3   OH279696   1.221   0.078   2.592 -0.0656 -0.1552  0.3307
19402TIP3    H179697   1.287   0.010   2.606 -1.3745 -1.7861 -1.2801
19402TIP3    H279698   1.247   0.122   2.512  0.0786  0.4373  0.6956
19403TIP3   OH279699   5.584   1.557   1.413 -0.4239  0.0665 -0.1371
19403TIP3    H179700   5.596   1.643   1.451  1.0967 -0.3626  0.3683
19403TIP3    H279701   5.582   1.572   1.318 -1.2820  0.7770 -0.0123
19404TIP3   OH279702   3.092   6.632   6.251 -0.7410  0.3761  0.0537
19404TIP3    H179703   3.111   6.602   6.162 -0.8447  1.5753 -0.3735
19404TIP3    H279704   3.015   6.581   6.277 -0.6813 -0.0132 -0.5271
19405TIP3   OH279705   1.386   5.827  13.593  0.7481  0.3185 -0.3627
19405TIP3    H179706   1.408   5.905  13.644  0.8400 -1.5530  2.5422
19405TIP3    H279707   1.301   5.799  13.626  0.9679 -1.1375 -1.0000
19406TIP3   OH279708   2.405   0.803   3.248 -0.2598  0.6760 -0.4625
19406TIP3    H179709   2.435   0.814   3.339 -0.6344 -0.0318 -0.2519
19406TIP3    H279710   2.318   0.842   3.247 -1.0512 -1.0200 -0.0346
19407TIP3   OH279711   2.142   0.426   4.435  0.0504 -0.7540 -0.7708
19407TIP3    H179712   2.114   0.463   4.351  0.1238  0.2108 -0.3867
19407TIP3    H279713   2.212   0.485   4.463  0.9009 -1.8239 -0.6429
19408TIP3   OH279714   1.636   5.274  10.969 -0.4400 -0.1068  0.0702
19408TIP3    H179715   1.669   5.186  10.988  0.3492  0.0611 -0.5138
19408TIP3    H279716   1.714   5.324  10.943 -0.5988  1.2168  2.0110
19409TIP3   OH279717   1.115   4.712  15.427  1.0260  0.0830  0.1489
19409TIP3    H179718   1.020   4.695  15.428  1.0422 -0.0051  0.2509
19409TIP3    H279719   1.123   4.807  15.436  1.0115 -0.1104  2.5978
19410TIP3   OH279720   3.687   2.109  16.850 -0.6110 -0.2165 -0.9674
19410TIP3    H179721   3.630   2.039  16.882  1.4231 -0.2152  2.8855
19410TIP3    H279722   3.749   2.064  16.793 -0.0077 -1.4102  0.5870
19411TIP3   OH279723   4.328   5.716  11.266 -0.2186  0.3067 -0.0503
19411TIP3    H179724   4.340   5.621  11.260  0.6759  0.2911  1.7339
19411TIP3    H279725   4.316   5.744  11.175 -1.2739 -1.6045 -0.5280
19412TIP3   OH279726   5.796   6.602   5.180 -0.0650  0.1051 -0.0178
19412TIP3    H179727   5.727   6.536   5.186 -0.0259 -0.1360 -1.9745
19412TIP3    H279728   5.791   6.649   5.263 -0.0708 -2.3596  1.4242
19413TIP3   OH279729   0.846   2.014  11.436  0.1521  0.6045  0.3706
19413TIP3    H179730   0.908   2.077  11.399 -0.5559  0.8446 -0.4227
19413TIP3    H279731   0.887   1.928  11.419 -1.0909  0.5906 -2.7968
19414TIP3   OH279732   0.208   6.222   5.433 -0.4119  0.0128  0.6157
19414TIP3    H179733   0.230   6.138   5.473 -1.9454  0.2036  1.9273
19414TIP3    H279734   0.125   6.247   5.474 -1.8944  0.3803 -2.4562
19415TIP3   OH279735   1.657   0.506  14.807  0.3993 -0.1902 -0.1319
19415TIP3    H179736   1.585   0.464  14.761  1.4934 -0.5902 -1.5149
19415TIP3    H279737   1.643   0.482  14.899 -0.7313 -1.0009 -0.5009
19416TIP3   OH279738   6.300   4.728   2.064  0.2746  0.2726 -0.1753
19416TIP3    H179739   6.247   4.679   2.126  1.6270 -1.0129  0.0077
19416TIP3    H279740   6.305   4.816   2.101  0.0539 -0.1595  0.9041
19417TIP3   OH279741   4.732   5.277  12.906 -0.0224 -0.6437 -0.1959
19417TIP3    H179742   4.674   5.245  12.975  1.0227  1.0372  1.4899
19417TIP3    H279743   4.813   5.301  12.951  1.5376 -1.7229 -2.3436
19418TIP3   OH279744   1.142   1.240   4.560  0.4891  0.1212 -0.3705
19418TIP3    H179745   1.133   1.217   4.467  0.0714 -0.6772 -0.1375
19418TIP3    H279746   1.076   1.186   4.604 -0.7168  1.9750  0.1521
19419TIP3   OH279747   5.515   3.762  16.515  0.0491 -0.0738 -0.1730
19419TIP3    H179748   5.552   3.794  16.433  0.3506 -1.4081 -0.5639
19419TIP3    H279749   5.581   3.785  16.581 -0.1183  0.8471 -0.3121
19420TIP3   OH279750   5.220   0.905   5.511 -0.2152 -0.1941  0.6303
19420TIP3    H179751   5.267   0.972   5.561  0.0819 -0.5725  0.8615
19420TIP3    H279752   5.159   0.954   5.457  2.4450  0.5118 -1.8427
19421TIP3   OH279753   0.027   4.185  13.730 -0.2031 -0.1659 -0.2896
19421TIP3    H179754  -0.055   4.174  13.778  1.1047 -0.7495  1.8483
19421TIP3    H279755   0.010   4.257  13.669 -1.9957  0.3266  0.7791
19422TIP3   OH279756   5.894   0.147   2.826 -0.4194 -0.8249 -0.6056
19422TIP3    H179757   5.980   0.127   2.864 -0.5636  0.7662  0.6116
19422TIP3    H279758   5.914   0.198   2.747 -0.2428  0.0382 -0.0157
19423TIP3   OH279759   1.020   5.603   2.323  0.0917 -0.0299  0.5275
19423TIP3    H179760   1.042   5.511   2.312 -1.7633 -0.4851  0.5542
19423TIP3    H279761   1.096   5.640   2.370  0.0005 -1.9623  2.2789
19424TIP3   OH279762   0.106   4.004  14.766  0.0552  0.5457 -0.3700
19424TIP3    H179763   0.179   3.982  14.823  0.5138 -1.4188 -1.6486
19424TIP3    H279764   0.122   4.094  14.740  1.4802  0.4583  0.1741
19425TIP3   OH279765   5.794   0.338   0.930  0.1837  0.2209 -0.0332
19425TIP3    H179766   5.844   0.402   0.980 -2.0131  0.9302  1.3045
19425TIP3    H279767   5.799   0.370   0.840  0.9203  1.0692  0.2969
19426TIP3   OH279768   1.521   0.504  15.993 -0.1594  0.0541  0.4106
19426TIP3    H179769   1.528   0.439  16.063 -0.6570  0.9804  1.3333
19426TIP3    H279770   1.428   0.507  15.972  0.0119 -0.3426 -0.4102
19427TIP3   OH279771   1.556   0.661  16.419 -0.6470  0.7511  0.0770
19427TIP3    H179772   1.572   0.682  16.327  2.7774  1.7794  0.8628
19427TIP3    H279773   1.541   0.746  16.460  1.9429  0.6887  1.2014
19428TIP3   OH279774   4.530   5.893   4.640  0.3757  0.1573 -0.6890
19428TIP3    H179775   4.524   5.813   4.691  1.9584  0.4123 -0.0661
19428TIP3    H279776   4.571   5.956   4.699 -0.7640  1.4005 -1.1980
19429TIP3   OH279777   1.298   0.902  13.097 -0.0090 -0.0967 -0.4267
19429TIP3    H179778   1.299   0.816  13.056  1.7237 -0.3530  0.1386
19429TIP3    H279779   1.354   0.956  13.041  0.6743  0.0909  0.4279
19430TIP3   OH279780   5.816   4.937   0.220 -0.7917 -0.4946 -0.0196
19430TIP3    H179781   5.793   4.939   0.313  1.0949 -0.9989  0.4838
19430TIP3    H279782   5.888   4.999   0.212 -0.5132 -0.9343 -1.0269
19431TIP3   OH279783   5.326   5.626   2.430  0.6268 -0.2030  0.0467
19431TIP3    H179784   5.373   5.697   2.387  1.0066 -1.2022 -1.2450
19431TIP3    H279785   5.394   5.576   2.475  0.8503 -1.6328 -1.7979
19432TIP3   OH279786   4.432   1.489  15.050 -0.3093 -0.3501  0.7432
19432TIP3    H179787   4.519   1.449  15.041  0.5296  1.5700  0.2061
19432TIP3    H279788   4.385   1.460  14.972  0.2903 -0.3119  0.3609
19433TIP3   OH279789   1.634   6.155   4.623 -0.1072 -0.3136  0.1985
19433TIP3    H179790   1.577   6.117   4.690  1.7129 -0.4485  1.6878
19433TIP3    H279791   1.635   6.248   4.643 -0.4806 -0.1900 -0.3514
19434TIP3   OH279792   6.612   4.178  11.248 -0.3966 -0.1828  0.5154
19434TIP3    H179793   6.699   4.161  11.285 -0.8923  0.4560  2.0142
19434TIP3    H279794   6.606   4.119  11.173  1.3269 -0.2414  0.4015
19435TIP3   OH279795   3.604   1.335  14.289  0.2266 -0.9665  0.4759
19435TIP3    H179796   3.634   1.344  14.199  1.7291 -0.6723  0.9937
19435TIP3    H279797   3.523   1.284  14.282 -0.7067  0.6958 -1.1947
19436TIP3   OH279798   1.832   2.920   0.160 -0.1800 -0.1589  0.2779
19436TIP3    H179799   1.794   3.008   0.156  1.5614  0.7072  2.1221
19436TIP3    H279800   1.915   2.928   0.113 -0.6469 -1.2055 -0.7675
19437TIP3   OH279801   5.209   2.876   1.532 -0.0765 -0.3651 -0.2275
19437TIP3    H179802   5.292   2.859   1.576  0.7622 -1.0918 -2.0221
19437TIP3    H279803   5.182   2.790   1.499  0.0226  0.3661 -2.2882
19438TIP3   OH279804   3.644   3.686  12.167 -0.4606 -0.0574 -0.2350
19438TIP3    H179805   3.706   3.758  12.170 -0.8321  0.2264  0.5787
19438TIP3    H279806   3.559   3.727  12.179 -0.8191 -0.4387 -1.4227
19439TIP3   OH279807   5.313   5.566   4.346 -0.2697 -0.2919  0.7439
19439TIP3    H179808   5.221   5.540   4.346 -0.1222 -0.8196  0.2589
19439TIP3    H279809   5.335   5.578   4.254 -0.1032  0.7390  0.9151
19440TIP3   OH279810   4.900   0.746   0.691 -0.6310  0.3778 -0.2441
19440TIP3    H179811   4.838   0.805   0.734  0.3257  0.2153  1.4005
19440TIP3    H279812   4.858   0.660   0.694 -1.9298  0.8920 -2.4499
19441TIP3   OH279813   3.167   2.902  15.735 -0.3584 -0.7586  0.1633
19441TIP3    H179814   3.213   2.949  15.666  0.9578 -1.9619  0.1916
19441TIP3    H279815   3.076   2.930  15.727 -0.0111 -0.0138 -1.3203
19442TIP3   OH279816   1.440   5.763   2.003  0.1049 -0.5034 -0.3708
19442TIP3    H179817   1.444   5.750   1.908  0.0541  1.4127 -0.6727
19442TIP3    H279818   1.351   5.739   2.027  0.2490 -1.4280 -0.7292
19443TIP3   OH279819   0.035   6.022  11.253  0.0033  0.1662 -0.4921
19443TIP3    H179820   0.031   6.054  11.163 -2.3580 -2.0009 -1.2089
19443TIP3    H279821  -0.022   5.945  11.254  1.5834 -1.0479  2.3764
19444TIP3   OH279822   6.484   2.784   0.959 -0.2689 -0.5161  0.2115
19444TIP3    H179823   6.404   2.794   1.011 -0.5800 -3.1498  0.2991
19444TIP3    H279824   6.474   2.846   0.887 -0.4427  2.2231  2.5412
19445TIP3   OH279825   4.982   2.391  16.197 -0.0146  0.0642 -0.0301
19445TIP3    H179826   4.909   2.442  16.231 -0.5755  0.3343 -1.6344
19445TIP3    H279827   5.040   2.455  16.156 -0.2036 -0.4559 -1.1242
19446TIP3   OH279828   0.335   5.016   0.621 -0.1546  0.9867 -1.1455
19446TIP3    H179829   0.338   4.996   0.527 -1.8483 -1.8754 -0.6618
19446TIP3    H279830   0.243   5.035   0.639 -0.3990 -1.3758  0.4121
19447TIP3   OH279831   3.910   2.589  14.832  0.2874  0.4611  0.5016
19447TIP3    H179832   3.842   2.529  14.861 -0.4996  1.2701  0.3558
19447TIP3    H279833   3.876   2.626  14.750  1.7542 -0.5626 -0.6089
19448TIP3   OH279834   2.725   2.459   6.351  0.2462  0.0212  0.2705
19448TIP3    H179835   2.722   2.471   6.446  0.1197  0.4917  0.2100
19448TIP3    H279836   2.801   2.402   6.336  0.4275  0.1686  0.6293
19449TIP3   OH279837   1.152   2.991   0.421 -0.1114  0.2472  0.1990
19449TIP3    H179838   1.159   3.071   0.369 -1.0725  1.2821  1.6342
19449TIP3    H279839   1.082   2.941   0.380 -0.3775  0.7343  0.0559
19450TIP3   OH279840   6.091   5.022  11.296 -0.3264  0.0034 -0.7466
19450TIP3    H179841   6.135   5.042  11.379  1.7860 -0.1453 -1.7921
19450TIP3    H279842   6.000   5.045  11.312 -0.1187 -0.7651  1.8718
19451TIP3   OH279843   0.224   1.552   3.595  0.1938 -0.4192  0.6974
19451TIP3    H179844   0.276   1.504   3.531  1.1308  0.7924  0.5425
19451TIP3    H279845   0.143   1.501   3.602  1.5202 -2.5285  1.2268
19452TIP3   OH279846   1.999   1.658  11.454 -0.1260  0.3151 -0.5730
19452TIP3    H179847   1.984   1.565  11.471 -2.5863  0.8726  0.5724
19452TIP3    H279848   1.993   1.667  11.359  1.3981 -0.8740 -0.8000
19453TIP3   OH279849   1.357   5.075  13.479 -0.4107 -0.3848  0.4437
19453TIP3    H179850   1.316   5.067  13.394 -3.2603 -0.8071  1.7975
19453TIP3    H279851   1.321   5.002  13.531 -1.5762  1.9758  3.0851
19454TIP3   OH279852   6.586   2.678  11.193  0.5421 -0.3100 -0.0613
19454TIP3    H179853   6.562   2.700  11.283 -0.6915 -0.7803 -0.2653
19454TIP3    H279854   6.507   2.695  11.142  1.9329  2.3139 -1.4759
19455TIP3   OH279855   3.906   4.266   3.678  0.2991 -0.2382 -0.6110
19455TIP3    H179856   3.917   4.299   3.589 -1.6781  0.7832 -0.5140
19455TIP3    H279857   3.897   4.345   3.732  1.9412 -0.8255  0.5892
19456TIP3   OH279858   5.882   2.742  16.485  0.7096  0.6555 -0.5835
19456TIP3    H179859   5.857   2.704  16.401  0.9504 -1.5327  0.2997
19456TIP3    H279860   5.798   2.763  16.527  0.4735 -1.7379  0.1720
19457TIP3   OH279861   1.861   6.698   3.892  0.3025  0.3252 -0.0848
19457TIP3    H179862   1.784   6.649   3.924  0.3898  0.9726  1.1407
19457TIP3    H279863   1.858   6.687   3.797  0.3466 -2.1067  0.1569
19458TIP3   OH279864   1.262   1.933  15.322 -0.4961 -0.4586 -0.3440
19458TIP3    H179865   1.201   1.885  15.266 -0.6672 -0.6662  0.0190
19458TIP3    H279866   1.227   1.922  15.410 -0.1368 -0.2673 -0.1767
19459TIP3   OH279867   3.676   4.673  16.485  0.0814 -0.0948  0.3618
19459TIP3    H179868   3.695   4.677  16.579  0.0337  2.8141  0.3026
19459TIP3    H279869   3.648   4.583  16.470  1.5034 -1.0078  2.8535
19460TIP3   OH279870   2.844   1.211  14.852  0.5655 -0.7165 -0.4520
19460TIP3    H179871   2.790   1.162  14.790  0.3395 -0.9366 -0.0832
19460TIP3    H279872   2.801   1.198  14.937  0.6397 -0.0828 -0.3130
19461TIP3   OH279873   1.748   2.019   2.399 -0.5760 -0.0702  0.1914
19461TIP3    H179874   1.727   1.988   2.487 -1.5867  0.6180  0.1982
19461TIP3    H279875   1.664   2.047   2.362  0.0466  0.9885 -0.4615
19462TIP3   OH279876   1.888   5.481  14.809  0.8809  0.0670  0.5803
19462TIP3    H179877   1.964   5.537  14.804  2.4845 -1.8283  2.5353
19462TIP3    H279878   1.915   5.399  14.767  0.0335 -0.6906  1.4559
19463TIP3   OH279879   5.088   2.331   4.345 -0.3565 -0.5227  0.0090
19463TIP3    H179880   5.003   2.296   4.318 -1.1687  0.4693  1.2081
19463TIP3    H279881   5.067   2.391   4.417  1.0615  1.8312 -1.4681
19464TIP3   OH279882   5.140   1.520  17.157  0.0041  0.7285  0.5625
19464TIP3    H179883   5.146   1.548  17.249 -1.1672 -0.7810  1.1253
19464TIP3    H279884   5.056   1.555  17.127  0.3181  1.0894  0.0979
19465TIP3   OH279885   3.793   6.324   1.864  0.5961 -0.6324 -0.3427
19465TIP3    H179886   3.804   6.415   1.890 -1.2530 -0.4517 -0.1288
19465TIP3    H279887   3.757   6.280   1.941 -0.3739 -1.1247 -1.0709
19466TIP3   OH279888   3.430   4.738   4.046 -0.2720  0.2869  0.0645
19466TIP3    H179889   3.397   4.761   4.133 -0.8158  0.0412 -0.0755
19466TIP3    H279890   3.353   4.707   3.999 -0.4552  2.6395 -1.2825
19467TIP3   OH279891   2.222   2.291  10.667 -0.3429 -0.4681  0.3545
19467TIP3    H179892   2.228   2.342  10.586  1.3573 -0.4427  0.4765
19467TIP3    H279893   2.208   2.356  10.735 -0.3533 -0.3575  0.2468
19468TIP3   OH279894   6.478   5.319   3.626  0.4050 -0.4844  0.6033
19468TIP3    H179895   6.479   5.380   3.553 -1.7944 -1.0553  0.0511
19468TIP3    H279896   6.483   5.233   3.585  1.3815 -0.7466  1.2571
19469TIP3   OH279897   1.742   5.733   1.436 -0.3129 -0.2394  0.3455
19469TIP3    H179898   1.647   5.727   1.450 -0.1566 -1.4614  0.9343
19469TIP3    H279899   1.766   5.647   1.400  0.1620  0.9454 -2.2659
19470TIP3   OH279900   0.037   6.143  15.293  0.0263  0.0282 -0.0799
19470TIP3    H179901  -0.014   6.171  15.217 -2.2609  0.8408  1.6898
19470TIP3    H279902   0.011   6.052  15.308 -0.7886  0.3767  0.6940
19471TIP3   OH279903   4.450   5.231   2.374  0.1636 -0.2412  0.4660
19471TIP3    H179904   4.504   5.155   2.353  0.9257  0.4153  0.0123
19471TIP3    H279905   4.360   5.201   2.364  0.4642 -1.0739  0.2701
19472TIP3   OH279906   3.566   4.917  16.031 -0.5339 -0.4177 -0.2343
19472TIP3    H179907   3.596   4.855  16.097 -2.1387 -0.8174  0.1439
19472TIP3    H279908   3.552   4.864  15.953 -0.6289 -0.2975 -0.2997
19473TIP3   OH279909   5.268   2.097   5.013  0.2634  0.0793 -0.5728
19473TIP3    H179910   5.315   2.077   5.094  0.6402  2.2029 -0.2518
19473TIP3    H279911   5.284   2.022   4.956  1.4044 -0.6456  0.7014
19474TIP3   OH279912   3.071   5.244   6.134 -0.6762 -0.1608  0.0118
19474TIP3    H179913   2.983   5.231   6.168 -0.7134 -2.5847 -0.9055
19474TIP3    H279914   3.129   5.229   6.209 -0.9929  0.5766  0.4087
19475TIP3   OH279915   3.715   2.728  14.692  0.0525  0.2738 -0.5246
19475TIP3    H179916   3.730   2.809  14.742 -0.1594 -0.2787  0.4385
19475TIP3    H279917   3.638   2.747  14.639  0.3054  0.8811 -0.6839
19476TIP3   OH279918   1.564   2.468   5.856 -0.4765  0.2417 -0.2284
19476TIP3    H179919   1.627   2.506   5.917 -0.7080  0.2369  0.0125
19476TIP3    H279920   1.605   2.386   5.827 -0.4905  0.1073  0.1343
19477TIP3   OH279921   0.425   3.793  11.739 -0.4862 -0.3876 -0.1831
19477TIP3    H179922   0.370   3.819  11.665  1.1954  3.1910 -0.2504
19477TIP3    H279923   0.379   3.826  11.816 -0.3546 -0.8272  0.0881
19478TIP3   OH279924   0.530   4.080  13.185  0.2147 -0.0917 -0.2786
19478TIP3    H179925   0.569   4.167  13.176 -1.9765  0.8782 -0.6020
19478TIP3    H279926   0.565   4.030  13.111  0.2832  0.9673 -0.9663
19479TIP3   OH279927   0.618   6.699   0.659 -0.2127 -0.1226  0.3421
19479TIP3    H179928   0.618   6.611   0.621  1.8397 -0.5790  1.3217
19479TIP3    H279929   0.642   6.686   0.751  1.4638  1.5622  0.1806
19480TIP3   OH279930   4.826   5.735  15.210  0.0191 -0.4969 -0.5456
19480TIP3    H179931   4.736   5.761  15.231  0.8594  0.2585  2.3037
19480TIP3    H279932   4.862   5.809  15.161 -0.5795 -0.3687 -0.8020
19481TIP3   OH279933   5.367   4.564   2.400 -0.0387  0.0553 -0.4695
19481TIP3    H179934   5.281   4.600   2.376  0.1669  0.2723 -0.9039
19481TIP3    H279935   5.429   4.616   2.349  0.4875  1.1453  1.2805
19482TIP3   OH279936   0.133   0.906   4.010 -0.4952  0.0363  0.1688
19482TIP3    H179937   0.048   0.864   4.002 -0.6068  0.3730 -0.4123
19482TIP3    H279938   0.147   0.914   4.105 -0.1108 -2.0073  0.2985
19483TIP3   OH279939   6.526   0.487   0.727 -0.1542 -0.0173 -0.1796
19483TIP3    H179940   6.472   0.507   0.650 -1.9073 -0.7564  0.8397
19483TIP3    H279941   6.468   0.502   0.802  0.7693 -1.7445  0.9129
19484TIP3   OH279942   6.772   3.760   1.516  0.3392  0.0003 -0.4015
19484TIP3    H179943   6.733   3.770   1.603  0.2752 -0.5248 -0.3658
19484TIP3    H279944   6.866   3.752   1.533  0.1858 -1.6074 -0.2560
19485TIP3   OH279945   1.568   4.829  14.505  0.1475  0.0827  0.1229
19485TIP3    H179946   1.509   4.890  14.460  0.1513  0.8216  1.1187
19485TIP3    H279947   1.603   4.879  14.578  0.5497 -0.9580  0.6459
19486TIP3   OH279948   6.478   5.274   1.719  0.3031 -0.7360 -0.2494
19486TIP3    H179949   6.527   5.210   1.770  0.1634 -1.9638 -1.6168
19486TIP3    H279950   6.387   5.261   1.744  0.1925 -1.5991 -1.0598
19487TIP3   OH279951   3.352   0.780  15.668 -0.2400  0.4193 -0.6591
19487TIP3    H179952   3.396   0.753  15.749 -3.3060  1.1465  1.3265
19487TIP3    H279953   3.369   0.874  15.662 -0.1410  0.3940 -0.7626
19488TIP3   OH279954   4.422   0.514  17.007  0.0664 -0.0771  0.4655
19488TIP3    H179955   4.477   0.474  17.074 -1.2376 -1.9551  0.4574
19488TIP3    H279956   4.384   0.591  17.050 -0.9489 -1.3974  1.9826
19489TIP3   OH279957   6.034   4.148   3.932 -0.1042 -0.3531 -0.1667
19489TIP3    H179958   6.094   4.161   4.005 -0.3574 -1.1133  0.1815
19489TIP3    H279959   6.053   4.060   3.900 -1.4423 -0.8425  0.3320
19490TIP3   OH279960   6.630   1.236   4.424 -0.0148 -0.0257  1.1325
19490TIP3    H179961   6.609   1.249   4.331 -0.4464  1.5242  1.4283
19490TIP3    H279962   6.606   1.145   4.441 -1.8594  0.2463  0.2003
19491TIP3   OH279963   4.967   0.328   1.560  0.4267 -0.5065  0.3068
19491TIP3    H179964   4.908   0.259   1.590  0.7424 -0.6721  0.5478
19491TIP3    H279965   5.053   0.303   1.594  0.8313 -0.8199 -0.9179
19492TIP3   OH279966   5.074   4.191  13.847 -0.0323 -0.0186  0.5266
19492TIP3    H179967   5.110   4.136  13.777 -1.2852 -0.7091  0.4223
19492TIP3    H279968   4.984   4.161  13.858 -1.2650  3.0646 -0.6161
19493TIP3   OH279969   4.453   2.011   6.094  0.1556  0.1089 -0.4784
19493TIP3    H179970   4.442   2.097   6.053  1.3524  0.4172 -0.1813
19493TIP3    H279971   4.466   1.951   6.021 -1.3746  0.0627 -0.7235
19494TIP3   OH279972   1.410   0.628  15.148 -0.4462 -0.1976 -0.5348
19494TIP3    H179973   1.367   0.606  15.066 -2.6563  0.1683  0.5092
19494TIP3    H279974   1.467   0.553  15.166 -1.4574 -1.1794 -1.3833
19495TIP3   OH279975   5.844   0.829  13.648  0.3323  0.7082  0.0655
19495TIP3    H179976   5.894   0.748  13.656 -1.5757 -0.2773  2.7165
19495TIP3    H279977   5.863   0.878  13.728 -1.8539  0.9058  0.5152
19496TIP3   OH279978   3.294   6.458  14.700  0.1095 -0.0791 -0.5056
19496TIP3    H179979   3.233   6.392  14.666  0.6231 -0.2498 -1.1063
19496TIP3    H279980   3.321   6.424  14.785 -0.3854 -0.1641 -0.3841
19497TIP3   OH279981   1.797   0.495   3.991 -0.2696 -0.0007  0.0170
19497TIP3    H179982   1.830   0.445   3.915  0.7095  0.9404 -0.1874
19497TIP3    H279983   1.797   0.586   3.962 -0.3294  0.3186  0.9959
19498TIP3   OH279984   6.169   2.246  16.450  0.1178 -0.2280 -0.0765
19498TIP3    H179985   6.115   2.316  16.487  1.5765  0.8080  0.1075
19498TIP3    H279986   6.208   2.284  16.372  1.7308 -0.4775  0.5869
19499TIP3   OH279987   1.629   0.822   2.746  0.0869 -0.6144 -0.5300
19499TIP3    H179988   1.637   0.727   2.757  0.1424 -0.7499 -1.7048
19499TIP3    H279989   1.703   0.846   2.691  1.2522  0.4304  1.4215
19500TIP3   OH279990   2.590   6.336  10.850  0.1259  0.4234  0.9679
19500TIP3    H179991   2.512   6.387  10.873 -2.2983 -2.2464 -0.8623
19500TIP3    H279992   2.561   6.245  10.855  3.7744 -0.7255  2.2653
19501TIP3   OH279993   6.797   3.218  12.086 -0.3786 -1.3076 -0.3897
19501TIP3    H179994   6.727   3.279  12.111  0.5881 -1.9813  4.4855
19501TIP3    H279995   6.873   3.274  12.068 -0.4039 -0.8912  0.7817
19502TIP3   OH279996   5.782   3.846   4.709 -0.1644 -0.0947 -0.0495
19502TIP3    H179997   5.819   3.759   4.694  0.1476  0.1017 -0.4079
19502TIP3    H279998   5.777   3.886   4.622 -0.6451  0.1092  0.0691
19503TIP3   OH279999   6.241   5.973  11.986 -0.4110 -0.3656 -0.0251
19503TIP3    H180000   6.321   6.007  11.945 -0.0996 -0.7275  0.2764
19503TIP3    H280001   6.170   6.012  11.935 -0.1005  1.8089  1.1300
19504TIP3   OH280002   0.660   1.241  16.828  0.0530  0.0164 -0.4580
19504TIP3    H180003   0.699   1.275  16.909 -1.2031 -1.5065  0.8387
19504TIP3    H280004   0.568   1.268  16.833  0.4601  1.9197 -2.5400
19505TIP3   OH280005   6.002   0.447   4.337 -0.2651  0.4417  0.3901
19505TIP3    H180006   5.934   0.435   4.404 -0.1900  1.7789  0.7192
19505TIP3    H280007   6.014   0.360   4.299 -2.0331  0.1574  0.4533
19506TIP3   OH280008   0.327   1.983  16.271 -0.7796  0.5272  0.3015
19506TIP3    H180009   0.353   2.022  16.354  1.1014  0.0824 -0.0538
19506TIP3    H280010   0.311   2.058  16.213 -1.4081  0.8231  0.8510
19507TIP3   OH280011   2.586   3.407   0.131  0.2697  0.1092 -0.1393
19507TIP3    H180012   2.673   3.367   0.141 -0.9702 -1.8263  4.0832
19507TIP3    H280013   2.599   3.498   0.160  0.3665 -0.9797  3.4935
19508TIP3   OH280014   6.101   4.121  12.978  0.1154  0.2801 -0.3494
19508TIP3    H180015   6.037   4.099  13.045  1.0884  1.6294  1.0398
19508TIP3    H280016   6.116   4.215  12.988  0.9749  0.3237 -1.8363
19509TIP3   OH280017   0.115   5.851   1.756 -0.4298  0.2606  0.3575
19509TIP3    H180018   0.050   5.921   1.759  0.4653  1.0999  0.3434
19509TIP3    H280019   0.120   5.819   1.846 -0.7070  0.3332  0.3993
19510TIP3   OH280020   1.499   3.785  13.883  0.3067 -0.2787  0.2865
19510TIP3    H180021   1.528   3.871  13.915  0.2946 -0.8997  2.0126
19510TIP3    H280022   1.565   3.724  13.916  0.7863 -0.8647 -1.6587
19511TIP3   OH280023   0.049   4.562   2.806 -0.4532 -0.6851  0.2668
19511TIP3    H180024   0.016   4.506   2.736  0.9228 -1.0105 -0.1324
19511TIP3    H280025   0.094   4.633   2.761 -0.1231 -0.5500  0.8024
19512TIP3   OH280026   5.537   4.713   0.770  0.0875 -0.7313 -0.0116
19512TIP3    H180027   5.516   4.621   0.787 -2.5349 -0.6721 -2.4907
19512TIP3    H280028   5.523   4.724   0.676  0.5543  2.1726  0.2096
19513TIP3   OH280029   5.908   5.134   4.061 -0.1384 -0.5380  0.0463
19513TIP3    H180030   5.932   5.099   3.975  1.7211 -3.1011  1.5276
19513TIP3    H280031   5.990   5.140   4.109 -1.0357  1.6114  1.4222
19514TIP3   OH280032   4.880   1.263   5.458 -0.2172  0.0979  0.4143
19514TIP3    H180033   4.874   1.357   5.443 -1.0413 -0.0623 -0.2627
19514TIP3    H280034   4.968   1.239   5.429 -0.5893  0.3786 -0.9364
19515TIP3   OH280035   2.255   0.954   4.488 -0.0389 -0.2032  0.3886
19515TIP3    H180036   2.269   0.972   4.395  1.8682 -0.5878  0.5834
19515TIP3    H280037   2.224   1.037   4.524  2.6964  1.0000  0.0754
19516TIP3   OH280038   3.854   2.108  12.989  0.4919  0.8073 -0.7216
19516TIP3    H180039   3.912   2.039  13.021  0.4664  2.3719  2.9197
19516TIP3    H280040   3.791   2.062  12.933 -0.3362 -2.3986  2.6186
19517TIP3   OH280041   6.559   5.401  16.570  0.4272 -0.1293  0.7347
19517TIP3    H180042   6.520   5.400  16.658 -1.7997 -0.5246 -0.2310
19517TIP3    H280043   6.484   5.390  16.511  1.4123  3.8856 -1.3832
19518TIP3   OH280044   6.808   0.972   5.056 -0.7287 -0.0155  0.4630
19518TIP3    H180045   6.777   0.894   5.009  1.9652 -2.1006  1.9714
19518TIP3    H280046   6.748   0.981   5.130 -1.1916 -0.5311  0.1555
19519TIP3   OH280047   6.162   3.431   4.656 -0.1682  0.8084  0.4920
19519TIP3    H180048   6.191   3.343   4.635 -0.0747  0.7677  0.7830
19519TIP3    H280049   6.102   3.420   4.730 -0.0223  1.0022  0.6413
19520TIP3   OH280050   6.548   1.165   5.323 -0.8319 -0.5878 -0.4484
19520TIP3    H180051   6.488   1.097   5.353  0.1842 -1.2628  0.0766
19520TIP3    H280052   6.528   1.240   5.379  0.6650 -1.6648  1.5844
19521TIP3   OH280053   2.440   4.088   4.386  0.4350 -0.7112 -0.2166
19521TIP3    H180054   2.508   4.023   4.401  0.5739 -0.8451 -1.3464
19521TIP3    H280055   2.444   4.147   4.462  1.2200 -1.2242  0.1369
19522TIP3   OH280056   3.812   5.716  13.137  0.4184  0.2924  0.0971
19522TIP3    H180057   3.799   5.655  13.210 -1.8920 -0.7707 -1.1532
19522TIP3    H280058   3.891   5.684  13.093  0.3633 -0.5909  0.6308
19523TIP3   OH280059   3.745   5.543  11.094 -0.1557  0.6183  0.4797
19523TIP3    H180060   3.826   5.543  11.147 -0.3649 -0.8100  0.8073
19523TIP3    H280061   3.757   5.617  11.034  2.1714 -0.5823 -0.6342
19524TIP3   OH280062   2.783   1.999   6.422 -0.6855 -0.0209  0.2392
19524TIP3    H180063   2.764   2.056   6.497  1.1157 -0.5354  1.1288
19524TIP3    H280064   2.710   1.938   6.418 -1.7559  1.2447  0.3706
19525TIP3   OH280065   3.474   0.337  16.275 -0.1508 -0.2194 -0.4520
19525TIP3    H180066   3.405   0.312  16.214 -1.4572  0.7293  0.6008
19525TIP3    H280067   3.525   0.403  16.227 -0.1448 -0.6940 -1.1160
19526TIP3   OH280068   1.557   0.511  11.527  0.0940  0.0168  0.2358
19526TIP3    H180069   1.526   0.547  11.444  2.0910 -0.3623 -0.7176
19526TIP3    H280070   1.602   0.584  11.569  0.0471 -0.0928  0.4771
19527TIP3   OH280071   5.761   2.153  17.101 -0.3967  0.5044 -0.4482
19527TIP3    H180072   5.847   2.140  17.141 -1.3637  1.0537  1.9221
19527TIP3    H280073   5.720   2.066  17.103 -0.5218  0.5712 -0.0396
19528TIP3   OH280074   6.173   6.566   2.725  0.5025 -0.4340  0.3165
19528TIP3    H180075   6.114   6.547   2.797  0.7585  0.4787  0.7702
19528TIP3    H280076   6.224   6.642   2.754 -1.3700  1.7702 -1.9359
19529TIP3   OH280077   2.285   6.279  15.508 -0.2842  0.6929  0.4170
19529TIP3    H180078   2.381   6.269  15.503 -0.5760 -2.4078  0.1614
19529TIP3    H280079   2.267   6.290  15.601  0.3867  2.1902  0.3791
19530TIP3   OH280080   1.700   2.343   4.962 -0.0513  0.0329  0.9843
19530TIP3    H180081   1.665   2.426   4.929 -2.3876 -1.4967 -0.5208
19530TIP3    H280082   1.648   2.323   5.039 -2.5264 -2.1427 -1.1422
19531TIP3   OH280083   4.539   5.067  13.644  0.5351 -0.5966  0.5814
19531TIP3    H180084   4.583   5.150  13.661 -0.5048 -0.1172  1.0091
19531TIP3    H280085   4.536   5.023  13.729 -1.1147  0.0337  0.8636
19532TIP3   OH280086   2.593   2.944  15.305  0.1844 -0.4190  0.1965
19532TIP3    H180087   2.676   2.974  15.341  0.6227 -0.7791 -0.4880
19532TIP3    H280088   2.615   2.915  15.216  0.1622 -4.5709  1.4359
19533TIP3   OH280089   5.995   5.935   5.929  0.4377 -0.8535 -0.4025
19533TIP3    H180090   5.926   5.884   5.887  1.1981 -2.5105  0.3213
19533TIP3    H280091   6.077   5.904   5.890  0.8539  0.4735 -0.6263
19534TIP3   OH280092   5.955   0.593  15.853 -0.4357 -0.8485  0.5081
19534TIP3    H180093   6.029   0.654  15.852 -0.2712 -1.0526  0.2865
19534TIP3    H280094   5.974   0.534  15.927 -0.8797 -0.2787  1.0792
19535TIP3   OH280095   3.653   4.091  14.988 -0.1134  0.5722 -0.1412
19535TIP3    H180096   3.653   4.043  15.071 -1.3065  1.1301  0.1961
19535TIP3    H280097   3.707   4.038  14.929 -1.5801 -1.2823  0.1483
19536TIP3   OH280098   5.734   0.055  16.990  0.5157  0.4617  0.0911
19536TIP3    H180099   5.647   0.066  16.952  0.6534  1.1559 -0.0356
19536TIP3    H280100   5.760   0.143  17.015  1.4359  0.3384 -0.4150
19537TIP3   OH280101   0.935   2.919   1.561 -0.4172  0.7805 -0.0772
19537TIP3    H180102   0.917   2.825   1.563 -1.9612  1.0740  0.6677
19537TIP3    H280103   0.848   2.960   1.565  0.2302  2.2336 -0.6262
19538TIP3   OH280104   4.737   5.805   4.916  0.0155 -0.4255 -0.9316
19538TIP3    H180105   4.716   5.761   4.999  1.3842  0.0822 -0.2981
19538TIP3    H280106   4.829   5.783   4.900  0.0913  0.4344 -1.7211
19539TIP3   OH280107   2.514   6.374  14.644  0.2654 -0.2854  0.0307
19539TIP3    H180108   2.589   6.374  14.584  1.2735 -1.3515  1.2447
19539TIP3    H280109   2.553   6.374  14.731 -1.1667  0.0793  0.6858
19540TIP3   OH280110   4.449   3.840  16.940 -0.0557 -0.4257  0.7631
19540TIP3    H180111   4.491   3.898  17.004  1.3899 -1.2368  0.5576
19540TIP3    H280112   4.420   3.898  16.870 -2.2145  0.5680  2.4129
19541TIP3   OH280113   4.560   3.182  14.142 -0.0614 -0.2743  0.2827
19541TIP3    H180114   4.534   3.273  14.159 -0.7206 -0.8107  2.3771
19541TIP3    H280115   4.480   3.140  14.111 -0.2581 -0.5659  1.1554
19542TIP3   OH280116   0.012   1.036   4.258  0.3834  0.2018 -0.2340
19542TIP3    H180117   0.078   1.100   4.286  0.0620  0.3914  0.0948
19542TIP3    H280118  -0.022   1.000   4.340 -0.4450  0.6380 -0.3746
19543TIP3   OH280119   0.853   6.423   5.706  0.8372 -0.3721  0.0804
19543TIP3    H180120   0.927   6.458   5.658 -0.2486 -0.2906 -1.5782
19543TIP3    H280121   0.892   6.375   5.779  2.5351 -0.9535 -1.1768
19544TIP3   OH280122   5.637   1.362   6.015 -0.0325  0.3384  0.6008
19544TIP3    H180123   5.731   1.376   6.025 -0.6382  4.5645  1.6228
19544TIP3    H280124   5.607   1.336   6.102  0.3280 -2.3983 -0.0509
19545TIP3   OH280125   5.974   5.614   6.098 -0.0207 -0.1689 -0.0977
19545TIP3    H180126   6.006   5.701   6.122  0.7830 -0.8338  1.3136
19545TIP3    H280127   5.912   5.629   6.027  0.9169  1.4613 -0.5780
19546TIP3   OH280128   4.541   2.674   3.923 -0.0161 -0.0546 -0.3333
19546TIP3    H180129   4.527   2.705   3.833  1.5351 -1.1582 -0.9642
19546TIP3    H280130   4.634   2.689   3.940 -0.5102  1.1358  1.4955
19547TIP3   OH280131   5.586   6.176   5.479 -0.1995  0.0592 -0.1939
19547TIP3    H180132   5.627   6.248   5.527 -0.5488 -1.0208  1.7869
19547TIP3    H280133   5.622   6.182   5.391  0.5064  2.0647  0.2115
19548TIP3   OH280134   4.102   4.657  13.662 -0.7812 -0.5877 -0.4355
19548TIP3    H180135   4.105   4.600  13.738 -2.4929  1.3501  1.1455
19548TIP3    H280136   4.190   4.693  13.655 -1.0926  0.6965  1.8246
19549TIP3   OH280137   4.902   0.692  11.710 -0.6363  0.2378  0.1830
19549TIP3    H180138   4.917   0.674  11.617 -0.5049  1.0063  0.0496
19549TIP3    H280139   4.953   0.625  11.756 -0.5559 -0.0321 -0.2994
19550TIP3   OH280140   5.764   3.252  16.824  0.1282 -0.2734  0.2237
19550TIP3    H180141   5.808   3.213  16.749  0.2717  0.0920  0.1126
19550TIP3    H280142   5.693   3.192  16.846  0.8295 -0.9857  0.5458
19551TIP3   OH280143   2.403   4.470   2.465 -0.1212 -0.2713 -0.6681
19551TIP3    H180144   2.315   4.505   2.455 -0.9887 -1.1930  3.0111
19551TIP3    H280145   2.458   4.548   2.474 -0.9856  0.2870 -0.0861
19552TIP3   OH280146   3.282   4.382   3.773  0.5299  0.3422 -0.3621
19552TIP3    H180147   3.273   4.463   3.823 -2.4831  0.2370 -0.6569
19552TIP3    H280148   3.297   4.410   3.683  1.8515  0.5401 -0.0904
19553TIP3   OH280149   1.788   1.153  16.985  0.0394 -0.1351  0.3033
19553TIP3    H180150   1.761   1.079  16.929  0.2088  1.0247 -1.3622
19553TIP3    H280151   1.831   1.112  17.060  1.0667 -1.6993 -1.1024
19554TIP3   OH280152   0.385   0.481  15.382  0.0371  0.3905 -0.2610
19554TIP3    H180153   0.294   0.508  15.385  0.4334  1.6600  1.0684
19554TIP3    H280154   0.415   0.509  15.295 -0.5477  0.9439 -0.2915
19555TIP3   OH280155   6.151   5.782   2.956  0.3536 -0.4292 -0.0704
19555TIP3    H180156   6.240   5.758   2.929  0.4828  0.2955 -0.3018
19555TIP3    H280157   6.154   5.778   3.051  0.9102  0.5259 -0.0377
19556TIP3   OH280158   4.286   2.921  11.068 -0.1174  0.3462 -0.3835
19556TIP3    H180159   4.343   2.876  11.006 -0.0236  1.2061 -0.9343
19556TIP3    H280160   4.275   2.860  11.140 -0.4807 -0.7988 -1.3967
19557TIP3   OH280161   2.916   2.964  16.298  0.7918 -0.2088 -0.8346
19557TIP3    H180162   2.920   2.868  16.301  0.6585 -0.3017 -2.8280
19557TIP3    H280163   3.000   2.993  16.331  0.8100 -1.0177 -0.1612
19558TIP3   OH280164   2.622   6.017   2.171  0.0650  0.8808  0.2038
19558TIP3    H180165   2.611   6.097   2.120 -0.8721  1.1537  0.8344
19558TIP3    H280166   2.545   6.013   2.227  0.7014  0.1772  1.0458
19559TIP3   OH280167   1.503   3.507  16.577  0.1848  0.0130  0.8322
19559TIP3    H180168   1.573   3.455  16.538  0.6161  0.7371  0.6394
19559TIP3    H280169   1.548   3.568  16.636  0.0462  2.8276 -1.8298
19560TIP3   OH280170   1.224   4.595  11.329  0.2683 -0.4950  0.5873
19560TIP3    H180171   1.144   4.643  11.305  0.3595 -0.6060  0.0698
19560TIP3    H280172   1.193   4.521  11.380  0.0315 -0.6071  0.2794
19561TIP3   OH280173   5.048   0.586  11.305 -0.2366 -0.0350 -0.2062
19561TIP3    H180174   5.112   0.588  11.234 -0.7125 -0.1146 -0.6390
19561TIP3    H280175   4.990   0.513  11.283 -1.2541  0.8354 -0.4943
19562TIP3   OH280176   5.027   5.109  14.907 -0.0770 -0.2791 -0.1184
19562TIP3    H180177   5.031   5.050  14.831  1.1705  2.0547 -1.9522
19562TIP3    H280178   5.103   5.086  14.960  0.2220 -0.5405 -0.6587
19563TIP3   OH280179   1.030   0.705  14.280 -0.1801  0.2624  0.6072
19563TIP3    H180180   1.060   0.678  14.367 -0.4379  0.0310  0.6276
19563TIP3    H280181   1.024   0.623  14.231 -0.5387  0.3375  0.5285
19564TIP3   OH280182   2.940   0.480  14.942 -0.0868 -0.3081 -0.0237
19564TIP3    H180183   2.847   0.487  14.921 -0.4381  1.2809  1.8505
19564TIP3    H280184   2.953   0.545  15.011  2.1013 -1.5420  0.7624
19565TIP3   OH280185   4.437   2.590   4.187 -0.0985 -0.9785  0.5794
19565TIP3    H180186   4.493   2.574   4.111  0.2757 -2.2272  1.0974
19565TIP3    H280187   4.462   2.677   4.218  1.5855 -1.5219  0.8150
19566TIP3   OH280188   5.779   4.103  13.205 -0.4081  0.3955  0.1815
19566TIP3    H180189   5.769   4.008  13.206 -1.0037  0.4576  0.1908
19566TIP3    H280190   5.870   4.118  13.232  0.2073 -0.2470 -1.4861
19567TIP3   OH280191   3.877   2.449   3.756 -0.6811 -0.0267 -0.1015
19567TIP3    H180192   3.968   2.478   3.765 -0.0973 -2.1008  0.9458
19567TIP3    H280193   3.836   2.517   3.703  1.1856  1.5352  0.3888
19568TIP3   OH280194   2.199   2.175   5.271  0.1002 -0.6201 -0.1739
19568TIP3    H180195   2.111   2.140   5.258  0.0346 -0.4559 -0.1684
19568TIP3    H280196   2.257   2.101   5.256 -0.0254 -0.6573 -0.4652
19569TIP3   OH280197   1.554   5.560   3.916  0.1704  0.5666 -0.2495
19569TIP3    H180198   1.630   5.617   3.909  0.4962  0.2520  0.7054
19569TIP3    H280199   1.575   5.499   3.987 -0.8193  0.2520 -0.2106
19570TIP3   OH280200   4.169   0.389   4.331 -0.0614 -0.5694 -0.2793
19570TIP3    H180201   4.143   0.431   4.413  1.4238  1.7212 -0.9403
19570TIP3    H280202   4.263   0.408   4.323 -0.3044 -0.2328 -2.8100
19571TIP3   OH280203   4.223   1.267   6.643 -0.0406  0.1522 -0.5174
19571TIP3    H180204   4.133   1.293   6.663 -0.1050 -0.2587 -0.2513
19571TIP3    H280205   4.213   1.187   6.590  0.1640  0.1449 -0.5449
19572TIP3   OH280206   0.182   2.564   4.708  0.2440  0.1450  0.3619
19572TIP3    H180207   0.272   2.595   4.698  0.1333  0.1651 -0.6127
19572TIP3    H280208   0.177   2.532   4.798  1.0421  0.7411  0.6181
19573TIP3   OH280209   4.787   6.412  12.171  0.1401 -0.7349  0.0328
19573TIP3    H180210   4.751   6.351  12.107  0.5775  0.0593 -0.9790
19573TIP3    H280211   4.849   6.465  12.122  0.8783 -0.4667  1.2374
19574TIP3   OH280212   6.799   0.682   2.661  0.3828  0.4845  0.1669
19574TIP3    H180213   6.889   0.699   2.686  0.5485 -0.0924 -0.0138
19574TIP3    H280214   6.767   0.619   2.726  0.2542  0.3379 -0.0366
19575TIP3   OH280215   2.377   5.656  13.062  0.2707 -0.3990  0.3335
19575TIP3    H180216   2.369   5.740  13.107  2.2954 -0.3197  0.5954
19575TIP3    H280217   2.288   5.621  13.059 -0.5644  1.6930  0.3236
19576TIP3   OH280218   1.069   6.248  13.095 -0.6232  0.0226  0.1347
19576TIP3    H180219   1.002   6.181  13.076 -0.2175 -0.2464 -0.3628
19576TIP3    H280220   1.031   6.329  13.062 -0.6263 -0.1618 -0.3225
19577TIP3   OH280221   4.222   0.178   5.287  0.0397 -0.6737  0.6008
19577TIP3    H180222   4.142   0.168   5.237  0.1691  1.0789  0.0156
19577TIP3    H280223   4.288   0.131   5.236  0.2822  1.5125 -1.1915
19578TIP3   OH280224   4.361   2.438  10.543 -0.2565  0.4024  0.5480
19578TIP3    H180225   4.315   2.399  10.617  0.0994 -1.8406 -0.3854
19578TIP3    H280226   4.291   2.461  10.482 -0.3079 -1.2618 -0.0461
19579TIP3   OH280227   5.499   0.642  14.945  0.2975  0.0359  0.2486
19579TIP3    H180228   5.520   0.685  14.861  0.6791  0.1508  0.4041
19579TIP3    H280229   5.436   0.574  14.921  0.3833  0.0853 -0.1322
19580TIP3   OH280230   6.356   2.873  16.200 -0.0893  0.4793 -0.1483
19580TIP3    H180231   6.282   2.934  16.208  0.5191  0.9853  1.8414
19580TIP3    H280232   6.428   2.926  16.168  0.2987  0.7048  1.0817
19581TIP3   OH280233   1.171   1.153  13.130 -0.4613 -0.0279  0.5334
19581TIP3    H180234   1.199   1.063  13.114 -1.0105 -0.2343  0.7490
19581TIP3    H280235   1.169   1.193  13.043 -0.5390 -0.3143  0.4046
19582TIP3   OH280236   3.764   6.394   5.968 -0.2205  0.3464 -0.0327
19582TIP3    H180237   3.855   6.400   5.998  0.7088  2.0055 -2.9600
19582TIP3    H280238   3.768   6.345   5.886 -1.9839  0.3220 -0.1295
19583TIP3   OH280239   1.491   0.955   3.861  0.1935 -0.2362 -0.6801
19583TIP3    H180240   1.576   0.990   3.888 -0.8512  2.1711 -0.4618
19583TIP3    H280241   1.507   0.861   3.849  2.7029  0.0652  0.0620
19584TIP3   OH280242   1.409   1.578  14.859 -0.3698 -0.2225  0.4490
19584TIP3    H180243   1.366   1.596  14.942 -0.1050  0.4925  0.4291
19584TIP3    H280244   1.416   1.482  14.856 -0.9146 -0.2791  0.9730
19585TIP3   OH280245   6.242   0.569  13.121 -0.3485  0.2488 -0.3365
19585TIP3    H180246   6.179   0.623  13.072 -1.2607 -0.8543 -0.3953
19585TIP3    H280247   6.218   0.581  13.213  0.6560  1.4346 -0.2177
19586TIP3   OH280248   1.564   4.022  14.534  0.3819  0.1412 -0.2601
19586TIP3    H180249   1.627   4.085  14.498  1.2402  0.7043  2.1404
19586TIP3    H280250   1.547   3.961  14.462  3.4392  0.1691 -1.0596
19587TIP3   OH280251   2.360   6.429   0.694 -0.3379  0.3920  0.0440
19587TIP3    H180252   2.444   6.446   0.736 -0.1472 -0.0096 -0.1815
19587TIP3    H280253   2.299   6.487   0.740  0.1546  1.0670 -0.1385
19588TIP3   OH280254   5.593   3.218  12.905 -0.6520  0.7390 -0.1054
19588TIP3    H180255   5.677   3.173  12.903  0.5950  2.9487  1.2906
19588TIP3    H280256   5.614   3.311  12.895 -2.9507  1.3029 -0.1231
19589TIP3   OH280257   6.290   0.288   2.420  0.0459  0.6886 -0.0961
19589TIP3    H180258   6.239   0.281   2.500  2.0507 -2.1172  1.0249
19589TIP3    H280259   6.366   0.340   2.444 -0.1344  1.2116 -0.6301
19590TIP3   OH280260   1.044   6.562  12.555  0.0192  0.0972 -0.4785
19590TIP3    H180261   1.030   6.468  12.556  1.2220 -0.0973 -0.3868
19590TIP3    H280262   1.017   6.590  12.467  0.0491 -0.4038 -0.6475
19591TIP3   OH280263   3.244   1.140   6.190  0.2259  0.1319 -0.0305
19591TIP3    H180264   3.320   1.136   6.247  0.2996 -0.7291 -0.1797
19591TIP3    H280265   3.172   1.109   6.244  0.5709 -2.1784 -0.8388
19592TIP3   OH280266   1.570   4.402  15.873  0.0637 -0.3171 -0.2172
19592TIP3    H180267   1.477   4.423  15.879 -0.0676 -1.0917  0.6175
19592TIP3    H280268   1.572   4.307  15.863  0.7695 -0.3297  0.0166
19593TIP3   OH280269   0.772   3.465   0.144  0.4144  0.5879  0.4544
19593TIP3    H180270   0.856   3.490   0.106  0.0675 -0.3639 -0.9757
19593TIP3    H280271   0.767   3.370   0.131 -1.1233  0.7124  0.0110
19594TIP3   OH280272   1.833   3.390   5.868 -0.4964  0.6119  0.1376
19594TIP3    H180273   1.807   3.446   5.941 -0.9158 -0.5440  0.8936
19594TIP3    H280274   1.903   3.335   5.904 -0.2468  0.4921 -0.5285
19595TIP3   OH280275   3.759   3.716   1.563  0.2375  0.0562 -0.0720
19595TIP3    H180276   3.774   3.787   1.625  0.5201 -0.6677  0.6925
19595TIP3    H280277   3.756   3.637   1.617 -1.0424 -0.4084 -0.8100
19596TIP3   OH280278   6.035   5.762  12.363 -0.2013  0.2400 -0.4320
19596TIP3    H180279   6.130   5.773  12.355 -0.0909 -0.9667 -0.8687
19596TIP3    H280280   6.005   5.746  12.274 -0.6775 -0.4274 -0.1515
19597TIP3   OH280281   6.319   1.054   3.428 -0.7166 -0.5279 -0.6840
19597TIP3    H180282   6.326   1.050   3.332 -0.6627 -0.9656 -0.6637
19597TIP3    H280283   6.227   1.074   3.444 -1.0695 -1.9604 -0.8008
19598TIP3   OH280284   5.583   6.456  12.014  0.3390 -0.0503  0.1998
19598TIP3    H180285   5.604   6.499  11.931  0.7342  0.3657  0.5132
19598TIP3    H280286   5.620   6.514  12.081 -0.7128  0.0382  0.7048
19599TIP3   OH280287   2.946   0.881  12.052 -0.8770 -0.2170  0.4704
19599TIP3    H180288   3.033   0.893  12.089  0.4288 -0.8515 -2.2588
19599TIP3    H280289   2.939   0.786  12.037 -1.7279 -0.0941  0.0029
19600TIP3   OH280290   5.757   1.468  13.363  0.0884  0.2412  0.1556
19600TIP3    H180291   5.713   1.439  13.282 -0.1097  0.2622  0.2570
19600TIP3    H280292   5.694   1.525  13.406 -0.2639 -0.7059  0.9078
19601TIP3   OH280293   2.731   0.016   2.801 -0.3369  0.5474  0.0499
19601TIP3    H180294   2.730  -0.024   2.714  1.0195 -1.4522  0.8951
19601TIP3    H280295   2.669  -0.036   2.851 -1.5731  2.0804  0.1373
19602TIP3   OH280296   3.914   2.977   0.692 -0.5010 -0.0672 -0.2405
19602TIP3    H180297   3.952   2.896   0.726 -0.4430 -0.2761 -0.8038
19602TIP3    H280298   3.988   3.038   0.687 -0.3072 -0.3672 -1.0088
19603TIP3   OH280299   2.438   1.858   0.451  0.2647  0.0703  0.5083
19603TIP3    H180300   2.391   1.866   0.368 -0.6436 -0.6344  0.9319
19603TIP3    H280301   2.372   1.881   0.517  0.0956 -2.1865  1.1980
19604TIP3   OH280302   5.072   5.146  13.100 -0.3557  0.0533  0.6910
19604TIP3    H180303   5.134   5.129  13.170  1.4433  0.9897 -0.6533
19604TIP3    H280304   5.006   5.077  13.109  0.7486 -0.8061  2.2640
19605TIP3   OH280305   5.736   0.215   3.816 -0.0216 -0.0419  0.1183
19605TIP3    H180306   5.679   0.285   3.848 -1.7913 -0.9156 -0.9989
19605TIP3    H280307   5.728   0.145   3.880 -1.5267 -0.7915 -0.8553
19606TIP3   OH280308   5.612   6.226  12.716  0.3199 -0.3978 -0.2222
19606TIP3    H180309   5.612   6.280  12.795 -0.1486  0.5986 -0.8876
19606TIP3    H280310   5.520   6.202  12.704  0.4127 -0.6665 -0.3853
19607TIP3   OH280311   4.393   6.069  13.613 -0.3748 -0.0468 -0.0406
19607TIP3    H180312   4.316   6.013  13.626 -0.8627 -0.1174 -2.9613
19607TIP3    H280313   4.365   6.134  13.549  0.9802  2.0348  1.4360
19608TIP3   OH280314   1.297   2.716  14.864 -0.0209 -0.1427  0.3070
19608TIP3    H180315   1.353   2.705  14.941  0.9043  1.2979 -0.1513
19608TIP3    H280316   1.213   2.677  14.890  0.5917 -0.5890  1.6700
19609TIP3   OH280317   0.087   3.337   1.474 -0.0486  0.2945  0.5980
19609TIP3    H180318   0.080   3.242   1.486 -0.1839  0.0502 -1.3227
19609TIP3    H280319   0.015   3.359   1.416  0.6504  1.4022  0.1325
19610TIP3   OH280320   0.556   5.866   3.576  0.7919  0.0158 -0.1306
19610TIP3    H180321   0.599   5.917   3.645 -0.1249 -0.8765  1.1351
19610TIP3    H280322   0.566   5.775   3.604 -1.5996 -0.2381  0.0223
19611TIP3   OH280323   2.135   5.478  16.151  0.5478  0.0310 -0.1049
19611TIP3    H180324   2.218   5.508  16.188  0.0916  1.0424  0.1358
19611TIP3    H280325   2.126   5.527  16.069  0.0807  0.0973 -0.0141
19612TIP3   OH280326   5.689   6.784   1.568  0.3056  0.1529 -0.4930
19612TIP3    H180327   5.776   6.812   1.538  0.5845 -0.4637 -0.2644
19612TIP3    H280328   5.706   6.706   1.620 -0.4411 -0.2301 -0.8330
19613TIP3   OH280329   6.404   5.593  12.403 -0.6524 -0.8336  0.2823
19613TIP3    H180330   6.410   5.609  12.497  1.2829  3.0610 -0.4241
19613TIP3    H280331   6.354   5.668  12.369  0.3751 -1.1611 -2.0383
19614TIP3   OH280332   5.922   1.784  14.239 -0.7522  0.2106 -0.2176
19614TIP3    H180333   5.827   1.770  14.233 -1.2104  2.1788  1.9778
19614TIP3    H280334   5.956   1.699  14.267 -2.1758  0.2261  1.6560
19615TIP3   OH280335   1.311   0.574   0.083  0.1641  0.7000 -0.3317
19615TIP3    H180336   1.253   0.629   0.030  1.3928  0.1480 -2.3143
19615TIP3    H280337   1.398   0.613   0.071  0.4504  0.6312  1.3972
19616TIP3   OH280338   0.805   6.622   2.846  0.0139 -0.3539  0.1829
19616TIP3    H180339   0.893   6.611   2.882  0.2711  0.9036 -0.0425
19616TIP3    H280340   0.810   6.701   2.793 -1.2633 -0.2618  0.1838
19617TIP3   OH280341   2.163   4.090   4.479 -0.1150  0.6141  0.1732
19617TIP3    H180342   2.256   4.090   4.458 -0.2705 -0.6324 -0.6098
19617TIP3    H280343   2.152   4.013   4.535 -0.5233  1.2502  0.9706
19618TIP3   OH280344   1.796   3.626  12.229 -0.3505 -0.1223  0.3737
19618TIP3    H180345   1.770   3.637  12.138  0.3893  0.8954  0.2738
19618TIP3    H280346   1.741   3.686  12.278  0.5774  0.7461  0.3653
19619TIP3   OH280347   3.992   1.365  14.182 -1.1291 -0.2214 -0.0603
19619TIP3    H180348   4.017   1.273  14.187 -1.6315 -0.4158 -1.0288
19619TIP3    H280349   3.915   1.366  14.126  0.5483  1.1038 -2.4008
19620TIP3   OH280350   6.204   4.801  13.941  0.6959 -0.5348 -0.1715
19620TIP3    H180351   6.224   4.749  14.019  3.7299 -0.7974 -1.0600
19620TIP3    H280352   6.116   4.771  13.914  0.6599 -2.2192  1.6881
19621TIP3   OH280353   4.037   6.055  13.756  0.6401 -0.4481 -0.0030
19621TIP3    H180354   4.039   6.150  13.772  0.2957 -0.9981  3.6513
19621TIP3    H280355   4.120   6.023  13.791 -0.6416 -1.9037  1.7820
19622TIP3   OH280356   1.551   2.064  15.545 -0.2369  0.2924  0.1771
19622TIP3    H180357   1.631   2.110  15.570  1.6715 -3.9252  2.3213
19622TIP3    H280358   1.569   2.030  15.457 -0.2643  0.5719  0.0627
19623TIP3   OH280359   5.148   5.310  14.416  0.4873 -0.5467 -0.6172
19623TIP3    H180360   5.180   5.345  14.333 -0.2011 -0.3716 -0.8109
19623TIP3    H280361   5.115   5.223  14.395 -0.1935 -0.2850 -0.6315
19624TIP3   OH280362   0.304   5.396   2.492 -0.2329 -0.6962  0.1537
19624TIP3    H180363   0.251   5.448   2.431 -0.4361 -0.6661  0.3566
19624TIP3    H280364   0.253   5.393   2.572 -0.5175 -1.7519 -0.0623
19625TIP3   OH280365   0.625   4.740  16.512 -0.0345 -0.0751  0.0108
19625TIP3    H180366   0.678   4.810  16.549  1.1037 -0.9772  0.1348
19625TIP3    H280367   0.607   4.681  16.586  2.9243 -2.2997 -0.9261
19626TIP3   OH280368   6.070   2.058   3.252  0.0111 -0.1953  0.1560
19626TIP3    H180369   6.122   2.081   3.175 -0.7691  0.7768 -0.0856
19626TIP3    H280370   6.101   1.970   3.277 -0.1948 -0.7907 -1.6510
19627TIP3   OH280371   1.614   0.179   2.300 -0.1219 -0.3225  0.1054
19627TIP3    H180372   1.651   0.234   2.369  1.1316 -0.2182 -0.6300
19627TIP3    H280373   1.605   0.237   2.224  0.8663 -1.0057 -0.5606
19628TIP3   OH280374   1.089   1.389   0.160  0.0930  0.0036  0.1783
19628TIP3    H180375   1.125   1.302   0.176 -0.5999 -0.1739  0.8282
19628TIP3    H280376   1.106   1.437   0.241 -2.6109 -0.6062  1.1411
19629TIP3   OH280377   3.284   5.699  10.745  0.7325 -0.3993  0.8936
19629TIP3    H180378   3.315   5.707  10.835  1.4724 -1.5735  0.7466
19629TIP3    H280379   3.250   5.610  10.739  1.1962 -0.5095 -0.1526
19630TIP3   OH280380   0.513   1.472   3.924 -0.4461 -0.4593 -0.3243
19630TIP3    H180381   0.426   1.439   3.902  0.4322 -3.9678  1.0242
19630TIP3    H280382   0.562   1.393   3.948  2.8623  1.5464 -0.2934
19631TIP3   OH280383   5.263   2.333   5.477 -0.5076 -0.2025 -0.0505
19631TIP3    H180384   5.181   2.354   5.522  0.1416  0.0990  0.9977
19631TIP3    H280385   5.267   2.238   5.478 -0.1686 -0.1841  1.1411
19632TIP3   OH280386   2.055   4.815   4.430 -0.5082 -0.3022 -0.3093
19632TIP3    H180387   2.004   4.789   4.354  1.2719 -1.0197 -1.2861
19632TIP3    H280388   2.076   4.733   4.475  2.8848 -0.3979 -1.9540
19633TIP3   OH280389   6.506   1.088   3.929  0.6468  0.0698  0.0466
19633TIP3    H180390   6.418   1.115   3.900  0.9292  1.4652  0.4769
19633TIP3    H280391   6.565   1.151   3.888  1.3179  0.0947  1.0402
19634TIP3   OH280392   5.861   5.181   0.907 -0.4418 -0.7708 -0.2800
19634TIP3    H180393   5.833   5.098   0.868  0.3330 -0.5460 -1.3300
19634TIP3    H280394   5.956   5.184   0.892 -0.6214  0.8137 -1.2567
19635TIP3   OH280395   1.080   4.708   6.079 -0.5272 -0.2388 -0.8804
19635TIP3    H180396   1.166   4.672   6.057 -1.8269 -3.1842 -1.2553
19635TIP3    H280397   1.100   4.778   6.142  2.3663  1.2292 -3.2613
19636TIP3   OH280398   2.590   6.046  15.923 -0.0573  0.6252  0.1891
19636TIP3    H180399   2.681   6.072  15.936  0.7417 -1.3969 -1.0727
19636TIP3    H280400   2.570   5.994  16.001  0.1806  0.2964  0.0327
19637TIP3   OH280401   5.192   1.671   0.141  0.1499 -0.6087  0.7251
19637TIP3    H180402   5.099   1.663   0.164 -0.1192 -3.1975 -0.9424
19637TIP3    H280403   5.201   1.760   0.107 -1.7289 -0.3283  0.9010
19638TIP3   OH280404   2.761   5.882   2.397  0.2939  0.1655  0.2312
19638TIP3    H180405   2.706   5.919   2.328  1.7591  0.4471 -0.8186
19638TIP3    H280406   2.796   5.959   2.442 -0.2233 -0.0140  0.9475
19639TIP3   OH280407   6.407   5.292   5.480  0.0827  0.1373  0.2413
19639TIP3    H180408   6.317   5.263   5.493  0.2238  0.1380  1.2429
19639TIP3    H280409   6.433   5.329   5.564  0.7788  0.8007 -0.2586
19640TIP3   OH280410   2.426   0.538   3.535  0.3450  0.5987 -0.3208
19640TIP3    H180411   2.423   0.633   3.524  1.0043  0.8209  1.2374
19640TIP3    H280412   2.379   0.503   3.459 -0.2658  2.1765 -0.6855
19641TIP3   OH280413   0.617   4.201   0.575  0.4842  0.6765 -0.0413
19641TIP3    H180414   0.543   4.176   0.630 -1.1850  0.6683 -2.2269
19641TIP3    H280415   0.684   4.134   0.593 -0.8076 -0.5191  0.4210
19642TIP3   OH280416   6.463   5.426  16.833 -0.0583 -0.2283 -0.8610
19642TIP3    H180417   6.464   5.407  16.927 -0.4410  0.5368 -0.7032
19642TIP3    H280418   6.370   5.437  16.812  0.0264 -0.4153 -1.3298
19643TIP3   OH280419   1.118   5.584   6.548  0.1888  0.0953  0.1961
19643TIP3    H180420   1.167   5.648   6.600  0.2363  1.2901 -1.3045
19643TIP3    H280421   1.159   5.500   6.569  1.9341  0.9014  0.0618
19644TIP3   OH280422   0.571   6.711   0.306 -0.8345 -0.6719  0.0790
19644TIP3    H180423   0.626   6.713   0.384  0.6264 -0.3701 -0.9311
19644TIP3    H280424   0.588   6.625   0.267 -0.7366 -0.4017 -0.4789
19645TIP3   OH280425   1.205   5.036   3.742 -0.2124 -0.0981  0.0204
19645TIP3    H180426   1.112   5.058   3.741  0.3326  2.4614  1.0763
19645TIP3    H280427   1.246   5.105   3.690  1.4744  0.8909  2.5586
19646TIP3   OH280428   0.009   3.216  15.006 -0.0825 -0.0788  0.3107
19646TIP3    H180429   0.047   3.177  15.085  2.4152 -0.4575 -1.0079
19646TIP3    H280430   0.029   3.309  15.014 -0.6439  0.0161  0.5744
19647TIP3   OH280431   2.172   5.013  12.734 -0.0227  0.1005  0.6571
19647TIP3    H180432   2.252   5.056  12.703 -1.5459  0.8456 -2.4276
19647TIP3    H280433   2.122   5.083  12.776 -1.4713  0.9411 -2.3295
19648TIP3   OH280434   5.003   5.569   5.517 -0.0467  0.2141  0.1165
19648TIP3    H180435   5.088   5.559   5.473 -0.5125  2.9466 -1.5531
19648TIP3    H280436   5.026   5.582   5.609  1.2638 -0.6069 -0.0771
19649TIP3   OH280437   3.588   6.437   4.412 -0.5006 -0.0317 -0.4907
19649TIP3    H180438   3.606   6.343   4.408 -1.6915 -0.3921  1.6051
19649TIP3    H280439   3.656   6.472   4.470 -0.7225  0.2332 -0.3904
19650TIP3   OH280440   3.025   5.360   3.966 -0.0817 -0.2189 -0.1942
19650TIP3    H180441   3.065   5.423   4.027  0.2769  0.5817 -1.2448
19650TIP3    H280442   2.964   5.412   3.915  2.4778 -0.0529 -3.2091
19651TIP3   OH280443   3.821   5.603  13.628 -0.1054  0.4804 -0.9136
19651TIP3    H180444   3.884   5.588  13.698  0.2886  1.4285 -1.0643
19651TIP3    H280445   3.742   5.634  13.672 -0.7617 -1.4711 -0.6471
19652TIP3   OH280446   4.123   1.603   5.547 -0.7852  0.2914  0.5738
19652TIP3    H180447   4.072   1.561   5.617 -4.3124  0.7181 -1.5889
19652TIP3    H280448   4.146   1.531   5.488 -0.9511  0.4342  0.3343
19653TIP3   OH280449   6.296   2.319  13.495 -0.3180 -0.1707 -0.0519
19653TIP3    H180450   6.275   2.394  13.551 -0.7677 -0.3770  0.0590
19653TIP3    H280451   6.322   2.250  13.555  0.1527 -0.0891 -0.1585
19654TIP3   OH280452   5.021   4.987   0.189  0.3997  0.5580  0.1410
19654TIP3    H180453   5.080   4.911   0.188  0.2323  0.4088  1.1739
19654TIP3    H280454   5.063   5.051   0.131  0.5284 -0.3278 -0.7622
19655TIP3   OH280455   3.847   5.127  12.556 -0.1032 -0.2016  0.1107
19655TIP3    H180456   3.904   5.203  12.542  1.4220 -1.6336 -1.6031
19655TIP3    H280457   3.815   5.139  12.645 -1.6630  3.6049 -0.8685
19656TIP3   OH280458   6.797   0.808   0.740  0.0599  0.6817 -0.7005
19656TIP3    H180459   6.856   0.883   0.741  0.3883  0.4260 -0.6096
19656TIP3    H280460   6.713   0.842   0.770 -0.0590  1.2353 -1.6147
19657TIP3   OH280461   6.320   2.985   3.526  0.0452 -0.4047  0.0310
19657TIP3    H180462   6.263   2.917   3.491 -0.8642 -0.1326  0.9662
19657TIP3    H280463   6.387   2.998   3.459 -1.4162 -0.1998 -1.4050
19658TIP3   OH280464   3.483   0.637  12.657 -0.2522  0.2450 -0.3688
19658TIP3    H180465   3.524   0.563  12.611 -2.2730 -1.0945 -0.0626
19658TIP3    H280466   3.512   0.626  12.748 -1.6274 -0.9952 -0.0545
19659TIP3   OH280467   0.998   3.899   0.889  0.2861  0.0727  0.0928
19659TIP3    H180468   0.975   3.973   0.945 -1.0406  0.3494 -0.7699
19659TIP3    H280469   1.070   3.930   0.835 -0.3052  0.7763 -0.3061
19660TIP3   OH280470   2.232   1.922   0.989  0.4503 -0.0771 -0.3041
19660TIP3    H180471   2.299   1.868   1.030 -0.3237 -0.0204  1.0957
19660TIP3    H280472   2.269   2.011   0.990  0.4683 -0.0865  0.2406
19661TIP3   OH280473   0.286   1.525  11.398 -0.1216  0.1027 -0.1919
19661TIP3    H180474   0.195   1.500  11.382 -0.3182  1.1843 -0.8285
19661TIP3    H280475   0.282   1.619  11.414  0.8155  0.0531  0.3762
19662TIP3   OH280476   2.140   1.253  14.559 -0.3515 -0.0603  0.0941
19662TIP3    H180477   2.173   1.170  14.595  0.9726  0.4341  0.0626
19662TIP3    H280478   2.051   1.261  14.594 -0.2599 -1.1862  0.6093
19663TIP3   OH280479   3.464   4.118  11.986 -0.0063 -0.4436  0.3793
19663TIP3    H180480   3.405   4.114  12.061  2.0839  2.6390  2.2837
19663TIP3    H280481   3.469   4.211  11.963 -0.2248 -1.2547 -3.3231
19664TIP3   OH280482   3.438   4.014   1.492 -0.5501 -1.0221  0.7024
19664TIP3    H180483   3.412   4.002   1.584  0.9229  0.0022  1.2822
19664TIP3    H280484   3.464   4.106   1.487  0.0768 -1.2632 -0.5570
19665TIP3   OH280485   5.179   1.235  12.016  0.4973 -0.9623 -0.1178
19665TIP3    H180486   5.236   1.306  11.987 -2.3035  1.3056 -0.2314
19665TIP3    H280487   5.136   1.205  11.936 -0.9232 -0.4060  0.4196
19666TIP3   OH280488   6.280   6.432   1.467  0.6483  0.0220  0.5265
19666TIP3    H180489   6.265   6.410   1.375  2.5633  0.4838  0.0628
19666TIP3    H280490   6.250   6.522   1.476  1.6240  0.4111  0.0118
19667TIP3   OH280491   3.108   1.336   0.583  0.5428  0.2306 -0.5609
19667TIP3    H180492   3.054   1.391   0.526  0.1710 -0.2199 -0.6448
19667TIP3    H280493   3.148   1.272   0.524 -0.5399 -0.7849 -0.1866
19668TIP3   OH280494   2.990   3.736  11.138  0.0925  0.2757 -0.0168
19668TIP3    H180495   3.077   3.711  11.107  0.0566 -3.0957  2.2866
19668TIP3    H280496   2.999   3.826  11.168  1.7955  1.2541 -3.2709
19669TIP3   OH280497   3.566   6.232   0.032 -0.3782 -0.5845  0.4839
19669TIP3    H180498   3.527   6.302  -0.020  1.3685  0.0970  0.0512
19669TIP3    H280499   3.502   6.162   0.030 -0.6341 -0.3197 -2.0425
19670TIP3   OH280500   6.379   2.559   0.712  0.3917  0.2489 -0.0002
19670TIP3    H180501   6.474   2.558   0.703  0.4159 -1.8088  0.2296
19670TIP3    H280502   6.347   2.537   0.624  0.1465  0.4492  0.0406
19671TIP3   OH280503   1.616   4.941   4.105  0.7575  0.2377 -0.2757
19671TIP3    H180504   1.679   4.890   4.054  0.2246  1.1747 -1.8679
19671TIP3    H280505   1.539   4.948   4.049  0.0398  0.9865  0.7849
19672TIP3   OH280506   2.985   1.774   1.163 -0.5691  0.9616  0.1494
19672TIP3    H180507   3.046   1.703   1.181  0.2841  1.6461  0.0112
19672TIP3    H280508   2.985   1.827   1.242 -2.1268  0.1642  0.7079
19673TIP3   OH280509   0.396   0.658   0.725 -0.1495  0.5867 -0.1896
19673TIP3    H180510   0.463   0.647   0.792 -0.8055  0.8957  0.5166
19673TIP3    H280511   0.333   0.587   0.741  1.2465 -1.2145 -2.3581
19674TIP3   OH280512   4.400   5.063  15.859 -0.4110  0.3611 -0.5305
19674TIP3    H180513   4.375   5.018  15.779 -1.1141 -0.4769  0.1381
19674TIP3    H280514   4.406   5.155  15.834 -0.6406  0.1090 -1.5377
19675TIP3   OH280515   0.086   5.711  14.322 -0.2587 -0.0200 -0.3458
19675TIP3    H180516   0.059   5.765  14.396 -3.0230  0.0950 -1.3897
19675TIP3    H280517   0.081   5.621  14.355 -0.5668  0.0852 -0.1004
19676TIP3   OH280518   6.451   0.139  15.456 -0.4102  0.2057  0.0763
19676TIP3    H180519   6.368   0.128  15.409 -1.2662 -0.6471  1.7472
19676TIP3    H280520   6.514   0.088  15.406 -1.2297 -0.3927 -0.3512
19677TIP3   OH280521   1.365   3.721   3.834 -0.0097 -0.0723 -0.0742
19677TIP3    H180522   1.371   3.665   3.911 -0.2197 -0.0901 -0.0677
19677TIP3    H280523   1.316   3.798   3.863  0.2839  0.1164 -0.0818
19678TIP3   OH280524   2.064   6.489   3.811 -0.1716  0.3055 -0.4379
19678TIP3    H180525   2.087   6.533   3.728  0.5240  1.4489  0.3499
19678TIP3    H280526   2.006   6.551   3.855 -1.1409 -0.6290 -0.3864
19679TIP3   OH280527   3.588   4.709   6.397 -0.3411  0.1839  0.3673
19679TIP3    H180528   3.612   4.622   6.366  1.9067  1.4453 -1.5136
19679TIP3    H280529   3.629   4.717   6.483  1.4191  0.2358 -0.4630
19680TIP3   OH280530   4.526   0.843   4.486 -0.5507  0.2996 -0.1659
19680TIP3    H180531   4.509   0.753   4.517 -1.1115 -0.2310 -1.9515
19680TIP3    H280532   4.474   0.851   4.406  1.3865  1.4024 -1.3611
19681TIP3   OH280533   4.509   3.566  13.921 -0.6764  0.0018  0.6940
19681TIP3    H180534   4.569   3.492  13.935 -2.0047 -1.4794 -1.1943
19681TIP3    H280535   4.563   3.632  13.878 -0.0294 -0.7212  0.3830
19682TIP3   OH280536   2.025   2.724  12.103  0.1682 -0.4492  0.0960
19682TIP3    H180537   2.100   2.707  12.047 -0.3802  1.7188 -1.3361
19682TIP3    H280538   2.054   2.695  12.190  2.3943 -0.3366 -0.5661
19683TIP3   OH280539   4.390   4.394  16.609 -0.1859 -0.1172  0.1216
19683TIP3    H180540   4.310   4.375  16.658 -0.6222  0.9263 -0.1611
19683TIP3    H280541   4.361   4.399  16.518 -0.0974  1.8004  0.1742
19684TIP3   OH280542   0.419   1.391   1.796 -1.4130  0.2572 -0.4647
19684TIP3    H180543   0.416   1.476   1.754 -0.4962  0.9655  0.8371
19684TIP3    H280544   0.373   1.332   1.737  0.6862  0.9974 -2.9222
19685TIP3   OH280545   4.534   1.222   5.797 -0.1348  0.2604  0.3951
19685TIP3    H180546   4.472   1.283   5.838 -0.5827  0.0706  0.0132
19685TIP3    H280547   4.550   1.155   5.864  0.9431  1.1875  1.0874
19686TIP3   OH280548   3.372   4.097   1.748  0.5354 -0.1210 -0.6252
19686TIP3    H180549   3.292   4.120   1.699  0.6057 -0.4753 -0.9038
19686TIP3    H280550   3.418   4.180   1.757 -0.7445  0.4387  1.1369
19687TIP3   OH280551   2.931   5.174   4.868  0.3443 -0.0597  0.0934
19687TIP3    H180552   2.971   5.159   4.953  0.5443 -0.4137 -0.0595
19687TIP3    H280553   2.857   5.233   4.886 -0.0102 -0.6525  0.6040
19688TIP3   OH280554   3.848   2.661  17.091  0.0791 -0.7733  0.5446
19688TIP3    H180555   3.775   2.617  17.134 -1.5643 -0.1312 -1.5036
19688TIP3    H280556   3.858   2.743  17.138 -0.0916 -1.1541  1.2477
19689TIP3   OH280557   5.944   1.121  13.420  0.6853 -0.1536  0.5084
19689TIP3    H180558   5.882   1.083  13.358  1.4719  0.3659 -0.5917
19689TIP3    H280559   5.898   1.197  13.456  0.9379  0.6516 -0.8358
19690TIP3   OH280560   4.553   6.539  14.917  0.3912 -0.2150 -0.2979
19690TIP3    H180561   4.494   6.475  14.957  0.3085  0.2224  0.2995
19690TIP3    H280562   4.550   6.614  14.977  0.2232  0.4788 -1.1590
19691TIP3   OH280563   5.955   1.527  13.152  0.0888 -0.2546  0.1262
19691TIP3    H180564   5.968   1.592  13.084  1.2708 -2.5390 -1.8708
19691TIP3    H280565   5.880   1.561  13.203 -0.6363  1.6030 -2.0951
19692TIP3   OH280566   0.456   4.035  14.610 -0.2169  0.6701  0.0645
19692TIP3    H180567   0.494   3.948  14.598 -0.3872  0.6895 -0.6588
19692TIP3    H280568   0.530   4.089  14.638  0.2155  0.6185 -0.9361
19693TIP3   OH280569   5.960   0.153   2.141 -0.4213 -0.3825 -0.0898
19693TIP3    H180570   5.938   0.070   2.183 -1.1518  0.1622  0.6211
19693TIP3    H280571   6.028   0.191   2.196 -1.1930  0.2112  0.4524
19694TIP3   OH280572   0.498   4.406  14.325  0.0316 -0.5700 -0.1510
19694TIP3    H180573   0.539   4.412  14.411 -0.2232  1.4818 -0.1507
19694TIP3    H280574   0.404   4.402  14.343 -0.0626  0.5906 -0.3438
19695TIP3   OH280575   0.597   6.595   1.540 -0.1216 -0.6835 -0.0553
19695TIP3    H180576   0.674   6.590   1.483  0.1803 -1.1806  0.3905
19695TIP3    H280577   0.563   6.506   1.542 -1.4399 -0.2441 -1.2296
19696TIP3   OH280578   0.992   1.971  10.857 -0.4190  0.7360 -0.1426
19696TIP3    H180579   1.079   1.945  10.889  0.1343  3.1699  0.4148
19696TIP3    H280580   1.004   2.059  10.824 -2.0487 -0.0323 -2.9027
19697TIP3   OH280581   1.316   6.749   0.840 -0.3369 -0.6494  0.5648
19697TIP3    H180582   1.334   6.820   0.779 -0.6990 -1.5795 -0.6489
19697TIP3    H280583   1.277   6.680   0.786  0.4790 -1.9713  1.6307
19698TIP3   OH280584   2.291   1.974   3.245  0.5463  0.7983 -0.4748
19698TIP3    H180585   2.269   1.885   3.217  0.3130  0.5791  0.4021
19698TIP3    H280586   2.321   2.017   3.165  0.9702 -0.1586 -0.8366
19699TIP3   OH280587   4.131   1.979   0.615  0.3487 -0.8949 -0.3729
19699TIP3    H180588   4.173   2.026   0.687 -1.0800 -0.0775 -0.0646
19699TIP3    H280589   4.048   1.948   0.651 -0.1955 -0.8316 -1.5524
19700TIP3   OH280590   2.636   1.524   4.631 -0.5287 -0.4556 -0.4492
19700TIP3    H180591   2.676   1.519   4.718 -2.0435 -3.5576  0.1555
19700TIP3    H280592   2.702   1.566   4.577  0.8306  0.6686  1.9803
19701TIP3   OH280593   6.563   3.513  13.606 -0.1683 -0.3488 -0.1766
19701TIP3    H180594   6.641   3.557  13.573 -0.6995  0.5320 -0.2625
19701TIP3    H280595   6.498   3.522  13.536 -0.0542 -1.9108 -0.4999
19702TIP3   OH280596   2.900   0.767  15.622 -0.1165  0.1479  0.0048
19702TIP3    H180597   2.971   0.718  15.580 -0.8412 -1.6913  0.8757
19702TIP3    H280598   2.936   0.854  15.636  1.6833 -0.5247 -0.3236
19703TIP3   OH280599   3.240   0.791   1.304 -0.3806  0.2310 -0.7542
19703TIP3    H180600   3.192   0.859   1.351 -1.0129  0.2238 -1.3784
19703TIP3    H280601   3.332   0.808   1.325 -0.6076  0.6515 -0.0839
19704TIP3   OH280602   4.762   2.237  13.707 -0.1331  0.4692 -0.0872
19704TIP3    H180603   4.794   2.157  13.665  0.8771  1.0589 -0.4662
19704TIP3    H280604   4.722   2.287  13.635  0.7772  1.0703 -0.1830
19705TIP3   OH280605   0.204   2.162  10.453  0.7018 -0.1891  0.4031
19705TIP3    H180606   0.133   2.124  10.402 -0.8099  0.2698  2.0854
19705TIP3    H280607   0.244   2.226  10.395 -0.4027 -0.3086 -0.5060
19706TIP3   OH280608   4.577   3.921  11.173  0.1003 -0.4758  0.5978
19706TIP3    H180609   4.590   3.971  11.093  1.0504  2.9339  2.7712
19706TIP3    H280610   4.639   3.848  11.167  1.0719  0.4779 -1.1940
19707TIP3   OH280611   2.981   0.902  14.522  0.3110 -0.1065  0.0409
19707TIP3    H180612   3.066   0.942  14.543  0.7491 -1.1045  0.2051
19707TIP3    H280613   3.002   0.811  14.500 -0.8124 -0.6190  0.9959
19708TIP3   OH280614   5.149   2.082   2.083  0.7718 -0.0794 -0.5096
19708TIP3    H180615   5.214   2.028   2.036  1.4642  0.9412 -0.7442
19708TIP3    H280616   5.199   2.122   2.154  0.6404  1.5752 -1.3493
19709TIP3   OH280617   1.647   1.950   2.871 -0.0087 -0.3505  0.5028
19709TIP3    H180618   1.705   1.894   2.923  1.5025 -0.1683 -0.9302
19709TIP3    H280619   1.565   1.953   2.920  0.2195 -3.0054  1.1121
19710TIP3   OH280620   4.268   6.819  12.494 -0.3630  0.2279  0.5293
19710TIP3    H180621   4.210   6.883  12.452  0.2734 -0.7535 -1.9214
19710TIP3    H280622   4.351   6.865  12.503  0.0072 -0.1166 -0.9525
19711TIP3   OH280623   5.010   5.247   2.337 -0.6129  0.1038  0.4107
19711TIP3    H180624   5.016   5.205   2.252 -0.3714  1.8049 -0.4273
19711TIP3    H280625   5.092   5.222   2.381 -0.1115  0.3555 -0.3739
19712TIP3   OH280626   0.517   4.876   2.934 -0.3822 -0.3418 -0.5525
19712TIP3    H180627   0.503   4.862   2.841 -1.3100  2.1038 -0.8149
19712TIP3    H280628   0.457   4.948   2.957 -0.4098 -1.1155  1.9863
19713TIP3   OH280629   6.199   4.838   3.705  0.6575 -0.7547 -0.0885
19713TIP3    H180630   6.250   4.765   3.739  1.8426  0.1168  0.0383
19713TIP3    H280631   6.207   4.830   3.610  0.4226 -1.0330 -0.0873
19714TIP3   OH280632   4.484   2.458  14.787 -0.6381 -0.1012 -0.2126
19714TIP3    H180633   4.489   2.552  14.776 -1.4239 -0.1521 -1.0705
19714TIP3    H280634   4.403   2.433  14.743  1.2995 -1.6187 -3.1064
19715TIP3   OH280635   6.746   4.201  13.217 -0.7596  0.2893 -0.0167
19715TIP3    H180636   6.743   4.156  13.302 -0.9875  0.3158 -0.0105
19715TIP3    H280637   6.660   4.241  13.208 -0.5324  0.7908  0.0116
19716TIP3   OH280638   5.293   4.235   1.334 -0.2912  0.0335  0.5353
19716TIP3    H180639   5.291   4.188   1.251 -1.5363 -1.8757  1.6090
19716TIP3    H280640   5.202   4.260   1.350 -0.1019  0.1428  1.4764
19717TIP3   OH280641   1.076   4.199  15.589 -0.2478  0.4345 -0.5440
19717TIP3    H180642   1.168   4.207  15.564 -0.5099  0.5489 -1.4901
19717TIP3    H280643   1.076   4.139  15.663  0.4780 -0.4491 -1.2592
19718TIP3   OH280644   4.632   4.538  13.595 -0.5170 -0.5091 -0.7553
19718TIP3    H180645   4.537   4.526  13.599 -0.6246  0.0808 -1.4429
19718TIP3    H280646   4.644   4.631  13.575  0.2346 -0.2987  0.5776
19719TIP3   OH280647   2.531   2.760   1.445 -0.0907  0.0480 -0.2855
19719TIP3    H180648   2.502   2.851   1.434 -2.0462 -0.3402  1.3235
19719TIP3    H280649   2.625   2.763   1.427 -0.0227  2.4877  0.1941
19720TIP3   OH280650   6.320   2.570  16.072 -0.2308  0.1474 -0.0540
19720TIP3    H180651   6.372   2.539  15.998 -1.7440 -1.2805 -0.5446
19720TIP3    H280652   6.338   2.664  16.076  1.0934 -0.0318 -1.2296
19721TIP3   OH280653   3.499   1.996   4.772  0.4732  0.5646 -0.1053
19721TIP3    H180654   3.567   2.051   4.810  2.3373 -0.6606 -1.6167
19721TIP3    H280655   3.544   1.916   4.746 -1.9234 -1.0930  0.6989
19722TIP3   OH280656   2.453   1.506   2.799  0.4146  0.0132  0.7951
19722TIP3    H180657   2.470   1.435   2.738 -0.6672 -0.0384  0.5404
19722TIP3    H280658   2.536   1.520   2.845  0.5659 -1.5827  1.0163
19723TIP3   OH280659   6.494   3.810  12.914 -0.5698  0.6134 -0.1494
19723TIP3    H180660   6.570   3.867  12.906 -1.2164  1.3919 -0.7194
19723TIP3    H280661   6.422   3.859  12.874 -1.4148 -0.0356  0.5548
19724TIP3   OH280662   2.832   2.943  17.093 -0.0234  0.1099  0.1740
19724TIP3    H180663   2.917   2.905  17.113 -1.3279 -1.8850  2.2265
19724TIP3    H280664   2.806   2.986  17.174 -1.7855 -0.9711  0.2173
19725TIP3   OH280665   1.848   1.300   4.518 -0.3061  0.3304 -0.0916
19725TIP3    H180666   1.780   1.269   4.577 -0.6881  3.3346  1.1106
19725TIP3    H280667   1.921   1.240   4.533 -0.2264  1.2772  3.8113
19726TIP3   OH280668   0.933   5.727   2.010 -0.5684  0.3550 -0.2474
19726TIP3    H180669   0.927   5.666   1.937 -1.9418  1.2970 -0.9419
19726TIP3    H280670   0.889   5.683   2.083 -0.8073  0.1597 -0.5107
19727TIP3   OH280671   2.113   3.890   0.582 -0.3110 -0.0601 -0.6003
19727TIP3    H180672   2.155   3.902   0.497  3.3619  0.6667  1.2139
19727TIP3    H280673   2.125   3.974   0.627  0.7280 -1.4412  1.8011
19728TIP3   OH280674   2.332   5.222  14.979  0.2542  0.3620  0.0826
19728TIP3    H180675   2.323   5.284  15.050 -2.9361  0.7183 -0.5466
19728TIP3    H280676   2.359   5.140  15.021 -0.6731  0.8169  1.5940
19729TIP3   OH280677   3.148   4.024   5.693  0.1834  0.2669  0.0671
19729TIP3    H180678   3.147   4.030   5.788 -1.5229  0.0535  0.0751
19729TIP3    H280679   3.221   3.966   5.673 -1.7949 -2.8363  1.4653
19730TIP3   OH280680   5.156   3.162  14.481 -0.3210 -0.2644 -0.1472
19730TIP3    H180681   5.161   3.070  14.507  0.2655 -0.5978 -1.3662
19730TIP3    H280682   5.138   3.158  14.387  0.4291  0.8716 -0.3321
19731TIP3   OH280683   3.192   5.685   0.225  0.2974 -0.6000  0.4158
19731TIP3    H180684   3.163   5.766   0.182 -3.2666 -1.9623  0.0701
19731TIP3    H280685   3.158   5.691   0.314  1.4034 -1.0149  0.8754
19732TIP3   OH280686   5.547   3.975   2.454  0.0373  0.5732  0.5347
19732TIP3    H180687   5.470   4.011   2.498  0.2328  2.3113 -0.5134
19732TIP3    H280688   5.621   4.020   2.493  0.3663  0.5185 -0.0106
19733TIP3   OH280689   1.655   1.216  11.916 -0.1639  0.1696 -0.2204
19733TIP3    H180690   1.586   1.272  11.879 -0.6853  0.8964  1.8076
19733TIP3    H280691   1.637   1.214  12.010  1.6284 -0.9763  0.1221
19734TIP3   OH280692   1.674   0.702  15.896  0.0208  0.0105 -0.0987
19734TIP3    H180693   1.726   0.677  15.819 -1.4152 -0.7809 -0.8253
19734TIP3    H280694   1.647   0.618  15.934  2.1397  0.3351  2.2840
19735TIP3   OH280695   4.886   5.345  15.599  0.7846  0.3349 -0.1378
19735TIP3    H180696   4.846   5.269  15.643 -0.4442  0.6521 -0.6709
19735TIP3    H280697   4.861   5.335  15.507 -2.1814  3.0442  0.2567
19736TIP3   OH280698   6.069   4.986  15.252  0.2832  0.0242 -0.1708
19736TIP3    H180699   6.015   4.907  15.259 -0.5149  0.4047 -1.8038
19736TIP3    H280700   6.044   5.024  15.168  1.7618  1.2109 -0.0794
19737TIP3   OH280701   1.147   5.675   6.104  0.7859  1.0672  0.8537
19737TIP3    H180702   1.150   5.770   6.093 -0.5714  0.9643 -0.5432
19737TIP3    H280703   1.126   5.641   6.017 -0.5702 -0.3899  1.7184
19738TIP3   OH280704   5.886   3.950  15.398 -0.0401 -0.1122 -0.2479
19738TIP3    H180705   5.881   3.881  15.464 -1.5148  0.7520  0.5695
19738TIP3    H280706   5.927   4.024  15.443 -3.9842  1.6027  0.7572
19739TIP3   OH280707   6.633   3.035  16.586 -0.7274  0.8025  0.0474
19739TIP3    H180708   6.729   3.043  16.578 -0.8637  0.4394 -2.1958
19739TIP3    H280709   6.600   3.117  16.550 -1.2729  0.8863  0.7437
19740TIP3   OH280710   1.722   3.081   6.610  0.4334  0.8551  0.5878
19740TIP3    H180711   1.731   3.174   6.627  1.1747  1.3754 -2.3593
19740TIP3    H280712   1.652   3.075   6.546  1.8390 -0.3897 -0.8906
19741TIP3   OH280713   2.635   6.305  11.335  0.1053 -0.4302  0.0181
19741TIP3    H180714   2.648   6.303  11.241 -1.5031 -2.0434 -0.1997
19741TIP3    H280715   2.704   6.248  11.370  0.1498 -0.5357 -0.2464
19742TIP3   OH280716   1.009   1.216  11.894  0.2461 -0.6293 -0.4182
19742TIP3    H180717   0.946   1.187  11.960 -0.1811 -0.6278 -0.8202
19742TIP3    H280718   1.050   1.293  11.933  0.5135 -1.0539  0.1454
19743TIP3   OH280719   1.255   6.414   4.157 -0.2662 -0.9273 -0.7088
19743TIP3    H180720   1.290   6.462   4.233 -0.6314 -0.6641 -0.7043
19743TIP3    H280721   1.322   6.350   4.136  0.0484 -0.6854 -0.4532
19744TIP3   OH280722   5.572   6.571  15.809 -0.8177 -0.0344  0.1836
19744TIP3    H180723   5.601   6.662  15.808 -2.9884  0.7100  0.6680
19744TIP3    H280724   5.630   6.527  15.871 -0.0260  1.1246  0.2714
19745TIP3   OH280725   4.388   4.183  17.177 -0.1527 -0.2102 -0.3662
19745TIP3    H180726   4.378   4.093  17.209 -0.4370 -0.0535 -0.0003
19745TIP3    H280727   4.400   4.174  17.083 -0.3953 -0.6205 -0.3623
19746TIP3   OH280728   1.629   3.910   0.623  0.8263 -0.3264  0.4346
19746TIP3    H180729   1.627   4.005   0.637  1.2496 -0.4276  1.2298
19746TIP3    H280730   1.712   3.895   0.577  0.3676 -0.2189 -0.4328
19747TIP3   OH280731   6.819   6.649  12.155 -0.0783 -0.0653 -0.6663
19747TIP3    H180732   6.894   6.651  12.215 -0.8480 -2.2643  0.4257
19747TIP3    H280733   6.763   6.720  12.184  0.4398  0.0451  0.0683
19748TIP3   OH280734   0.890   1.715  15.206  0.7684  0.3063 -0.1567
19748TIP3    H180735   0.973   1.742  15.247  0.3064  1.5214 -0.0077
19748TIP3    H280736   0.826   1.720  15.277  0.5779 -0.8129 -0.2301
19749TIP3   OH280737   5.146   4.927  13.871 -0.2714  0.2436 -0.0010
19749TIP3    H180738   5.085   4.899  13.939  0.7698 -0.4998  0.6257
19749TIP3    H280739   5.231   4.931  13.914  0.0664  1.6590 -0.7785
19750TIP3   OH280740   0.721   3.961   2.979  0.6996  0.0051  0.0116
19750TIP3    H180741   0.733   4.054   2.958 -0.9214 -0.0984 -1.5438
19750TIP3    H280742   0.809   3.927   2.990  1.3258  1.6595  0.2681
19751TIP3   OH280743   4.562   4.501  12.022 -0.1749  0.3172  0.1133
19751TIP3    H180744   4.494   4.445  12.060 -0.2819  0.9307  0.8377
19751TIP3    H280745   4.538   4.509  11.930 -0.8991  0.2615  0.2955
19752TIP3   OH280746   1.355   6.402   1.891  0.2187 -0.2054 -0.1145
19752TIP3    H180747   1.437   6.353   1.900 -1.0549 -2.3723  0.2226
19752TIP3    H280748   1.294   6.356   1.949 -1.2321  1.3762 -0.3550
19753TIP3   OH280749   0.562   1.910   2.479  0.2322 -0.2390  0.1229
19753TIP3    H180750   0.473   1.921   2.512 -0.1135 -0.2475 -0.7761
19753TIP3    H280751   0.592   1.999   2.461 -1.3707 -0.3943 -4.0732
19754TIP3   OH280752   0.560   0.015   5.331  0.0825 -0.5286  0.6098
19754TIP3    H180753   0.491   0.002   5.396  2.2802 -2.8953  2.6350
19754TIP3    H280754   0.558  -0.064   5.278 -0.5438  0.6254 -1.1098
19755TIP3   OH280755   4.106   1.785  15.836 -0.0126 -0.2635  0.1132
19755TIP3    H180756   4.118   1.726  15.762 -1.1394 -1.3385  0.7830
19755TIP3    H280757   4.171   1.757  15.900 -0.6988 -0.9286  0.5220
19756TIP3   OH280758   4.548   2.211  11.076  0.0110  0.1674  0.4572
19756TIP3    H180759   4.525   2.206  11.168  0.3328 -0.6908  0.4949
19756TIP3    H280760   4.520   2.127  11.039  0.7766  0.1118 -0.0153
19757TIP3   OH280761   6.060   2.834  14.010  0.0223 -0.4462  0.0828
19757TIP3    H180762   6.128   2.865  14.070 -0.8390  1.6077  0.0494
19757TIP3    H280763   5.995   2.792  14.065  0.0591 -0.0782  0.4060
19758TIP3   OH280764   5.045   0.492  13.609 -0.4949 -0.4901  0.2218
19758TIP3    H180765   5.118   0.490  13.670 -0.3240 -1.5286  0.0049
19758TIP3    H280766   4.980   0.548  13.652  0.9679  1.6231 -0.2516
19759TIP3   OH280767   1.142   1.219   5.838 -0.0459 -0.2159 -0.4827
19759TIP3    H180768   1.048   1.229   5.853  0.0743  0.7108 -0.3017
19759TIP3    H280769   1.152   1.128   5.810 -1.1382 -0.0404 -1.5359
19760TIP3   OH280770   6.154   2.696   0.341 -0.0956  0.4925  0.2419
19760TIP3    H180771   6.174   2.729   0.429 -0.0681  0.2791  0.3149
19760TIP3    H280772   6.059   2.709   0.332 -0.3038 -0.6443  0.7790
19761TIP3   OH280773   4.429   0.916  15.002 -0.0317 -0.0081  0.0753
19761TIP3    H180774   4.457   0.986  15.060 -1.8991  0.4909  0.4068
19761TIP3    H280775   4.408   0.843  15.062 -0.8964  0.1355 -0.0528
19762TIP3   OH280776   5.298   0.431   2.667 -0.1673  0.3747  0.1921
19762TIP3    H180777   5.368   0.493   2.647  0.8067 -0.8116 -0.2049
19762TIP3    H280778   5.242   0.476   2.730 -0.3296  2.2019 -1.2429
19763TIP3   OH280779   1.286   4.203   2.168 -0.2392 -0.4229 -0.5040
19763TIP3    H180780   1.213   4.234   2.114  0.9804  1.0347 -1.3465
19763TIP3    H280781   1.362   4.249   2.134  0.6552  0.0880  2.0844
19764TIP3   OH280782   6.274   2.814  11.350 -0.1276 -0.1661  0.7523
19764TIP3    H180783   6.220   2.736  11.342 -0.9834  0.3312  1.5086
19764TIP3    H280784   6.213   2.887  11.341  0.4734  0.4085  1.2352
19765TIP3   OH280785   4.919   0.861   5.410 -0.1745 -0.0274 -0.7927
19765TIP3    H180786   4.978   0.801   5.364  0.9244  0.9703 -0.7396
19765TIP3    H280787   4.832   0.826   5.395  0.4673 -1.7890 -0.5064
19766TIP3   OH280788   0.228   4.764  13.275  0.2474 -1.0973  0.0531
19766TIP3    H180789   0.140   4.801  13.279  0.7050  0.0972 -0.4802
19766TIP3    H280790   0.267   4.785  13.360 -0.0066 -1.7050  0.3234
19767TIP3   OH280791   1.661   0.462   1.206  0.7314  0.3130  0.1972
19767TIP3    H180792   1.622   0.428   1.126  2.0130 -1.0177  0.1232
19767TIP3    H280793   1.714   0.536   1.178  0.4414  0.4265 -0.0542
19768TIP3   OH280794   2.773   0.104   1.076  0.4187 -0.1480 -0.9861
19768TIP3    H180795   2.850   0.136   1.122  1.6338 -4.9805  0.6147
19768TIP3    H280796   2.709   0.086   1.145  0.1211 -1.9054 -1.6788
19769TIP3   OH280797   3.001   1.827   2.600 -0.3195 -0.5762 -0.6175
19769TIP3    H180798   2.966   1.744   2.569 -2.4757 -0.0576  0.3449
19769TIP3    H280799   2.996   1.822   2.695 -2.6120  1.5003 -0.5765
19770TIP3   OH280800   2.183   4.720   2.465  0.1589  0.6709 -0.1228
19770TIP3    H180801   2.237   4.744   2.540 -0.1732 -0.9373  0.6522
19770TIP3    H280802   2.093   4.728   2.496  0.0369 -2.5524  0.5233
19771TIP3   OH280803   3.607   0.222  10.471 -0.0280  0.4950 -0.3154
19771TIP3    H180804   3.636   0.308  10.501 -0.7942  0.8928 -0.6940
19771TIP3    H280805   3.538   0.197  10.532  0.6842 -0.1743  0.2202
19772TIP3   OH280806   0.296   6.082   2.675 -0.1416 -0.0019  0.4212
19772TIP3    H180807   0.215   6.034   2.656  0.8631 -0.6439 -2.5078
19772TIP3    H280808   0.268   6.159   2.723 -2.2755 -1.2029  1.1791
19773TIP3   OH280809   6.475   3.271   3.188 -0.1329  0.1988  0.2216
19773TIP3    H180810   6.398   3.305   3.234 -1.2784  1.0809 -2.2837
19773TIP3    H280811   6.458   3.177   3.179 -0.3474  0.1867  0.7382
19774TIP3   OH280812   6.710   0.327   1.020 -0.2143 -0.3516 -0.0118
19774TIP3    H180813   6.708   0.269   0.944  2.6828  0.5393 -0.8510
19774TIP3    H280814   6.777   0.288   1.077 -2.0313 -0.7546  1.9004
19775TIP3   OH280815   2.703   6.514  10.657 -0.2667  0.4389 -0.2695
19775TIP3    H180816   2.626   6.465  10.685  0.7791 -1.5866 -0.8420
19775TIP3    H280817   2.733   6.559  10.736 -1.9022  1.1079 -0.0066
19776TIP3   OH280818   2.069   6.486   2.538 -0.3925  0.2969 -0.4666
19776TIP3    H180819   2.071   6.397   2.503 -2.8662 -0.2213  0.5654
19776TIP3    H280820   2.144   6.491   2.597 -0.0278 -0.9744 -0.8084
19777TIP3   OH280821   3.028   2.037   0.762  0.1512  0.2366 -0.6698
19777TIP3    H180822   3.021   2.034   0.857 -0.1097  0.9633 -0.6604
19777TIP3    H280823   2.999   1.950   0.733 -1.9331  0.7493 -0.2065
19778TIP3   OH280824   5.440   1.528  10.795  0.3876  0.0650 -0.2172
19778TIP3    H180825   5.405   1.449  10.836  0.8997 -0.1953 -0.2749
19778TIP3    H280826   5.397   1.600  10.842 -0.7798 -0.2523 -0.7856
19779TIP3   OH280827   2.824   3.748   4.632 -0.1123 -0.5355  0.2726
19779TIP3    H180828   2.885   3.755   4.705 -0.1159 -0.1588  0.2397
19779TIP3    H280829   2.740   3.726   4.673 -1.0145  3.5160  0.7750
19780TIP3   OH280830   0.121   1.093  15.887  1.1846  0.0436  0.3553
19780TIP3    H180831   0.121   1.046  15.803 -0.3070 -1.7161  1.3115
19780TIP3    H280832   0.200   1.064  15.931 -0.5240 -2.8825  1.6114
19781TIP3   OH280833   2.298   4.353  15.692 -0.0476  0.4736 -0.3056
19781TIP3    H180834   2.223   4.374  15.748 -0.5572  0.6917 -1.0636
19781TIP3    H280835   2.261   4.300  15.622  0.9388 -1.5352  0.6654
19782TIP3   OH280836   3.152   0.609  12.306  0.1547  0.2677  0.1435
19782TIP3    H180837   3.177   0.604  12.214 -0.1623  2.1953 -0.0621
19782TIP3    H280838   3.057   0.622  12.304 -0.2326 -2.2002  0.8177
19783TIP3   OH280839   6.400   0.502   0.995  0.1702 -0.3443 -0.0862
19783TIP3    H180840   6.384   0.585   1.039 -0.6162  0.4118 -1.7585
19783TIP3    H280841   6.318   0.453   1.006  0.0786 -0.2744 -0.4617
19784TIP3   OH280842   0.672   1.017   4.171  0.1127 -0.0269 -0.1709
19784TIP3    H180843   0.728   1.044   4.243  0.0640  2.1040 -0.8988
19784TIP3    H280844   0.721   0.946   4.128  2.9344  2.6360 -1.5676
19785TIP3   OH280845   2.799   3.170   2.554 -0.0458 -0.5119  0.1257
19785TIP3    H180846   2.783   3.242   2.492 -0.0812 -0.9865 -0.4181
19785TIP3    H280847   2.813   3.093   2.499  0.1038 -0.9042  0.7053
19786TIP3   OH280848   6.735   4.518  11.342  0.0509  0.0193  0.0707
19786TIP3    H180849   6.737   4.465  11.263  0.7787  0.2900 -0.0971
19786TIP3    H280850   6.795   4.591  11.324 -1.7779  1.5111 -0.1211
19787TIP3   OH280851   1.278   2.382   6.315  0.1300  0.1008 -0.0639
19787TIP3    H180852   1.363   2.387   6.358 -0.1530  0.4617  0.4558
19787TIP3    H280853   1.251   2.290   6.325 -0.4066  0.4077  1.4465
19788TIP3   OH280854   5.840   1.295  12.384 -0.8676  0.4321  0.1987
19788TIP3    H180855   5.895   1.371  12.365 -0.7793  0.6785  1.3551
19788TIP3    H280856   5.751   1.329  12.382 -0.8022  0.6834  1.1809
19789TIP3   OH280857   6.307   3.146  11.599  0.1904 -0.0465  0.6127
19789TIP3    H180858   6.375   3.214  11.591  0.9581 -0.7810  0.8741
19789TIP3    H280859   6.281   3.127  11.509 -1.0748  1.6372  0.5965
19790TIP3   OH280860   6.407   6.312   4.336 -0.5562 -0.0523  0.4283
19790TIP3    H180861   6.489   6.262   4.337 -1.3792 -1.4548  0.4784
19790TIP3    H280862   6.395   6.341   4.426 -0.0684  0.2392  0.4003
19791TIP3   OH280863   6.027   3.691  11.898  0.1383 -0.1222 -0.4991
19791TIP3    H180864   6.068   3.751  11.959  0.6873  1.4597 -2.3732
19791TIP3    H280865   6.042   3.730  11.812 -0.8728 -2.1335 -1.6302
19792TIP3   OH280866   1.324   1.983  11.433  0.1994  0.4265 -0.4200
19792TIP3    H180867   1.315   2.012  11.342  0.9047  0.6808 -0.4097
19792TIP3    H280868   1.279   2.050  11.484 -0.1275  0.3257 -0.5719
19793TIP3   OH280869   5.243   0.398   4.732 -0.1334 -0.7328 -0.3596
19793TIP3    H180870   5.271   0.342   4.804  0.9839 -1.0015 -0.9929
19793TIP3    H280871   5.292   0.480   4.745 -1.7568  0.1262  0.5653
19794TIP3   OH280872   5.760   3.782   2.028 -0.0468  0.6520 -0.1329
19794TIP3    H180873   5.682   3.764   1.974  0.1957 -1.0357  0.0489
19794TIP3    H280874   5.725   3.826   2.105 -0.8366 -0.0821 -0.0574
19795TIP3   OH280875   5.556   2.966  13.404  0.2506  0.1780 -0.5613
19795TIP3    H180876   5.504   2.911  13.346  1.6655 -0.5736 -1.1553
19795TIP3    H280877   5.579   2.908  13.478 -0.4393  0.7415  0.1008
19796TIP3   OH280878   6.690   2.799  15.353 -1.2898 -0.1413  0.2474
19796TIP3    H180879   6.672   2.733  15.287 -1.5727 -0.1154  0.2954
19796TIP3    H280880   6.656   2.880  15.316  1.4566  0.5002 -0.9439
19797TIP3   OH280881   2.570   1.134  16.687  0.9636 -0.4174  0.0460
19797TIP3    H180882   2.540   1.224  16.678  0.2051 -0.4952  1.7438
19797TIP3    H280883   2.520   1.086  16.621  0.6251  0.2202 -0.1698
19798TIP3   OH280884   0.859   2.354  16.143 -0.1897  0.4025 -0.4716
19798TIP3    H180885   0.955   2.357  16.143 -0.0789 -1.7574 -2.0412
19798TIP3    H280886   0.834   2.384  16.056 -0.8060 -1.1888 -0.8656
19799TIP3   OH280887   1.395   2.551   2.865  0.2614  0.4969 -0.7079
19799TIP3    H180888   1.391   2.587   2.954 -1.9517 -2.5660  0.5398
19799TIP3    H280889   1.478   2.503   2.863 -0.2368 -0.4318  0.1586
19800TIP3   OH280890   1.641   4.174  12.898  0.0480 -0.4065 -0.4570
19800TIP3    H180891   1.674   4.128  12.975 -1.2395 -0.7109 -0.0698
19800TIP3    H280892   1.607   4.105  12.841 -0.4204 -0.0726 -0.5916
19801TIP3   OH280893   3.379   1.124   1.736 -0.1101 -0.1515  0.0866
19801TIP3    H180894   3.379   1.209   1.780  0.6568  0.4914 -1.1179
19801TIP3    H280895   3.409   1.144   1.647  1.8217 -1.9483  0.3082
19802TIP3   OH280896   6.572   3.652   0.891  0.3834 -0.1324 -0.5653
19802TIP3    H180897   6.645   3.613   0.938 -0.2154 -1.4213 -0.6827
19802TIP3    H280898   6.526   3.578   0.851  0.3288  0.8546 -2.3987
19803TIP3   OH280899   1.401   0.590   2.855  0.6453 -0.3161 -0.1723
19803TIP3    H180900   1.445   0.521   2.905  0.4731 -0.8317 -0.7297
19803TIP3    H280901   1.467   0.622   2.794  1.1170  0.9016  0.9453
19804TIP3   OH280902   0.758   4.146  12.534  0.4769  0.4604  0.3301
19804TIP3    H180903   0.704   4.139  12.456  0.6398 -1.6090  0.3664
19804TIP3    H280904   0.848   4.154  12.501  0.3863  1.4303  0.2992
19805TIP3   OH280905   1.092   5.519   0.829  0.7437  0.0233 -0.0389
19805TIP3    H180906   1.130   5.448   0.779 -2.5533 -1.8967  0.0771
19805TIP3    H280907   1.117   5.598   0.781  1.4500 -1.4470 -2.1551
19806TIP3   OH280908   0.133   4.398   4.734  0.1293 -0.3911  0.1676
19806TIP3    H180909   0.184   4.411   4.814 -0.0319  0.0328  0.2003
19806TIP3    H280910   0.048   4.439   4.752  0.1169 -0.2336 -0.2439
19807TIP3   OH280911   2.812   4.256  13.111  0.1349  0.5396  0.0742
19807TIP3    H180912   2.776   4.256  13.200  1.2442  0.2551  0.5345
19807TIP3    H280913   2.745   4.298  13.058 -0.0318  1.7946  1.2573
19808TIP3   OH280914   5.741   4.498   0.097  0.0310 -0.4923 -0.0177
19808TIP3    H180915   5.703   4.554   0.031 -0.6527 -0.7975  0.1128
19808TIP3    H280916   5.767   4.419   0.050 -0.8442 -0.8823  0.1520
19809TIP3   OH280917   5.225   1.876   4.881  0.3263  0.3688 -0.2318
19809TIP3    H180918   5.282   1.805   4.910  0.0813  0.4732  0.5122
19809TIP3    H280919   5.175   1.839   4.808 -1.2268 -0.8585  1.4107
19810TIP3   OH280920   5.519   6.150  12.294  0.1971  0.4122  0.4402
19810TIP3    H180921   5.574   6.224  12.318  1.0855  0.2404 -1.0123
19810TIP3    H280922   5.581   6.080  12.273 -0.6079 -0.2291  0.1660
19811TIP3   OH280923   4.301   6.808   1.969 -0.3705 -0.2450  0.6887
19811TIP3    H180924   4.291   6.793   2.063  2.1917 -0.0178  1.0345
19811TIP3    H280925   4.342   6.895   1.963 -2.4131  0.6651 -0.7379
19812TIP3   OH280926   2.549   2.118  15.447  0.6920 -0.0946  0.0598
19812TIP3    H180927   2.561   2.210  15.427 -1.3592  0.0258 -0.6855
19812TIP3    H280928   2.600   2.071  15.381  1.8350  0.4791  0.5171
19813TIP3   OH280929   2.674   5.620  17.165 -0.0518  0.0367 -0.1765
19813TIP3    H180930   2.733   5.563  17.214 -0.3794 -0.2491 -0.1112
19813TIP3    H280931   2.586   5.593  17.193 -0.2204  0.2971 -0.4495
19814TIP3   OH280932   5.277   2.385   5.815  0.0989 -0.4430  0.1468
19814TIP3    H180933   5.277   2.303   5.863 -2.3807 -0.6320 -0.0895
19814TIP3    H280934   5.275   2.359   5.723  0.2291 -0.1167  0.0518
19815TIP3   OH280935   5.037   3.111   5.325  0.1395  0.5598 -0.1907
19815TIP3    H180936   5.121   3.098   5.368  0.4203 -0.9255 -1.1140
19815TIP3    H280937   5.024   3.031   5.274 -2.4390  0.2023  0.9391
19816TIP3   OH280938   3.458   3.976   0.197  0.2006  0.0727  0.3186
19816TIP3    H180939   3.417   3.889   0.197  0.1297  0.0920 -1.2011
19816TIP3    H280940   3.546   3.961   0.163 -0.0308  0.6756 -0.5824
19817TIP3   OH280941   4.458   4.658   2.935  0.7042 -0.0463  0.0504
19817TIP3    H180942   4.434   4.731   2.991  1.6828 -0.0220  0.4385
19817TIP3    H280943   4.500   4.698   2.859 -1.2638 -0.0219 -1.0829
19818TIP3   OH280944   6.074   1.159  14.881  0.6389 -0.1888  0.8274
19818TIP3    H180945   6.116   1.073  14.875  2.0314  0.5940 -1.1143
19818TIP3    H280946   6.000   1.153  14.820  1.0573  0.1567  0.2815
19819TIP3   OH280947   2.430   0.823   0.020  0.4689  0.5949 -0.2280
19819TIP3    H180948   2.502   0.774  -0.021  1.3326  1.3304  0.3820
19819TIP3    H280949   2.435   0.800   0.112 -0.8961 -0.3361 -0.3700
19820TIP3   OH280950   1.755   5.140   2.888 -0.2263  0.0007  0.2423
19820TIP3    H180951   1.732   5.126   2.796  2.6911  1.1213 -0.7090
19820TIP3    H280952   1.844   5.106   2.896 -0.0286  0.9438  2.3831
19821TIP3   OH280953   5.912   3.185  14.839  0.0874  0.7954 -0.3926
19821TIP3    H180954   5.852   3.225  14.901 -0.3002  0.5519 -0.6116
19821TIP3    H280955   5.884   3.094  14.833 -0.9584  1.2107 -2.2084
19822TIP3   OH280956   4.346   3.509  12.778  0.3735 -0.0856  0.4273
19822TIP3    H180957   4.355   3.479  12.688  0.8285  2.2988 -0.3616
19822TIP3    H280958   4.261   3.552  12.781  1.6528  2.5938  0.2446
19823TIP3   OH280959   1.724   5.898   5.523  0.0117  0.5872  0.5639
19823TIP3    H180960   1.747   5.966   5.459 -1.1124 -0.6836 -1.2299
19823TIP3    H280961   1.652   5.936   5.573 -0.4474  0.8319 -0.2695
19824TIP3   OH280962   2.732   4.021   3.328  0.2377 -0.1758  0.2129
19824TIP3    H180963   2.685   3.948   3.288  0.1340  0.2791 -0.5065
19824TIP3    H280964   2.822   4.014   3.294  0.6414 -0.8998  1.3934
19825TIP3   OH280965   5.287   5.053   5.000  0.2990 -0.4421 -0.0029
19825TIP3    H180966   5.200   5.017   4.984 -0.2614  0.1492  1.5904
19825TIP3    H280967   5.327   4.992   5.061  0.4059  0.1058  0.4832
19826TIP3   OH280968   2.116   1.512  12.458 -0.1645 -0.1554  0.3388
19826TIP3    H180969   2.206   1.481  12.464 -0.2483 -0.2674  1.1294
19826TIP3    H280970   2.115   1.593  12.508 -0.5023 -0.1563  0.3376
19827TIP3   OH280971   1.547   0.339  12.550 -0.1486  0.0014 -0.4707
19827TIP3    H180972   1.588   0.422  12.576  0.3910 -0.4488  0.1341
19827TIP3    H280973   1.601   0.307  12.478 -0.6821  0.4390 -1.0777
19828TIP3   OH280974   0.501   0.462   0.008  0.2829  0.4250  0.2343
19828TIP3    H180975   0.436   0.395   0.031 -0.9242  1.8585  1.0701
19828TIP3    H280976   0.566   0.458   0.079  0.1977  0.1569  0.2989
19829TIP3   OH280977   1.041   2.095   5.184  0.1212 -0.3034 -0.2704
19829TIP3    H180978   1.056   2.175   5.135  0.0606  0.1338  0.4187
19829TIP3    H280979   0.959   2.111   5.231 -0.0282 -0.8668 -0.3367
19830TIP3   OH280980   6.347   2.642   2.377 -0.4288  0.1607  0.0364
19830TIP3    H180981   6.334   2.676   2.466  0.8309  1.3622 -0.2203
19830TIP3    H280982   6.308   2.709   2.320 -1.1066 -0.5387 -0.3284
19831TIP3   OH280983   2.123   1.229   1.445  0.2981 -0.0428 -0.2659
19831TIP3    H180984   2.193   1.199   1.388  0.5407 -1.2921  0.6550
19831TIP3    H280985   2.165   1.242   1.530 -0.6369 -1.1887  0.3928
19832TIP3   OH280986   1.240   3.395   4.614  0.2329  0.8369 -0.2551
19832TIP3    H180987   1.208   3.329   4.551  2.9204 -0.7239 -0.0489
19832TIP3    H280988   1.279   3.463   4.559  0.9299  0.3690 -0.3428
19833TIP3   OH280989   4.180   2.101   6.667 -0.6238  0.0378 -0.0714
19833TIP3    H180990   4.125   2.061   6.734  0.2580  1.3193  1.4607
19833TIP3    H280991   4.119   2.146   6.609 -1.2736  0.4373  0.9122
19834TIP3   OH280992   2.742   2.145  13.432 -0.5263  0.0098 -0.2315
19834TIP3    H180993   2.725   2.232  13.470 -0.6676 -0.9345  1.9286
19834TIP3    H280994   2.818   2.113  13.479 -1.4782 -1.7329  0.1550
19835TIP3   OH280995   0.016   3.133   3.099 -0.6824 -0.4157  0.0199
19835TIP3    H180996   0.107   3.136   3.067 -0.2182 -0.7638  1.2820
19835TIP3    H280997  -0.007   3.225   3.113 -0.1145 -0.3820  0.8008
19836TIP3   OH280998   0.903   5.879   3.143  0.4858 -0.2415 -0.5235
19836TIP3    H180999   0.909   5.794   3.186 -1.7237  0.5532  1.4760
19836TIP3    H281000   0.969   5.876   3.074  2.0160 -2.7189  0.9775
19837TIP3   OH281001   1.928   4.670  12.254  0.0095 -0.0143  0.4859
19837TIP3    H181002   1.888   4.597  12.300 -0.9676  1.1079  1.4458
19837TIP3    H281003   1.905   4.656  12.162  0.8576 -1.5502  0.4948
19838TIP3   OH281004   4.614   5.058   2.822  0.2072  0.0373  0.3550
19838TIP3    H181005   4.640   5.021   2.737 -2.0714 -1.7183  0.3609
19838TIP3    H281006   4.685   5.035   2.882  0.8942 -0.4480 -0.6303
19839TIP3   OH281007   2.318   0.002   1.582 -0.7831  0.4508 -0.2972
19839TIP3    H181008   2.391  -0.059   1.593  0.8323  2.3305 -0.2812
19839TIP3    H281009   2.263  -0.038   1.515  1.1581 -0.2309 -1.5316
19840TIP3   OH281010   1.184   3.943   3.726 -0.0606 -0.4768 -1.1133
19840TIP3    H181011   1.214   4.032   3.742  1.2798 -0.7346 -2.1830
19840TIP3    H281012   1.145   3.945   3.639 -1.5548 -0.5577 -0.4604
19841TIP3   OH281013   1.658   3.001  12.792  0.2174  0.7794  0.3032
19841TIP3    H181014   1.727   3.054  12.832  1.1388  0.4687 -0.8480
19841TIP3    H281015   1.705   2.934  12.742 -0.9045  0.6773 -0.6377
19842TIP3   OH281016   1.203   5.309   5.320  0.4648  0.0148 -0.2465
19842TIP3    H181017   1.193   5.218   5.292 -2.2447  0.2161 -0.0253
19842TIP3    H281018   1.220   5.357   5.239 -1.2891 -0.2628 -0.7981
19843TIP3   OH281019   4.057   1.134  10.484 -0.0842 -0.0593  0.7683
19843TIP3    H181020   4.138   1.096  10.519  1.0667 -0.6059 -2.3478
19843TIP3    H281021   4.082   1.221  10.455 -1.0361  0.4130  1.3488
19844TIP3   OH281022   5.527   4.557  11.826 -0.1846  0.1400 -0.3758
19844TIP3    H181023   5.446   4.570  11.874  0.1906  0.0210  0.2985
19844TIP3    H281024   5.546   4.641  11.785 -1.2485 -0.1424 -1.4849
19845TIP3   OH281025   4.474   0.324  14.458  0.2800  0.0972 -0.3759
19845TIP3    H181026   4.392   0.277  14.471 -0.8169  1.8520 -0.7225
19845TIP3    H281027   4.521   0.315  14.541  0.0858 -1.5471 -0.4247
19846TIP3   OH281028   0.925   0.321   0.161 -0.8227  0.0195  0.2748
19846TIP3    H181029   0.974   0.365   0.092 -0.4963  0.9161  1.0642
19846TIP3    H281030   0.944   0.372   0.240 -2.5654  0.0472  0.7019
19847TIP3   OH281031   4.354   4.293   0.175 -0.0520 -0.7357  0.4558
19847TIP3    H181032   4.352   4.262   0.084  2.3437  0.0943  0.0771
19847TIP3    H281033   4.314   4.222   0.225 -0.1163 -1.8231 -1.0789
19848TIP3   OH281034   2.787   5.277   2.140 -0.1452  0.3381 -0.1576
19848TIP3    H181035   2.799   5.296   2.233  1.9350  0.7356 -0.4699
19848TIP3    H281036   2.865   5.227   2.115 -0.0237  1.3722 -1.9754
19849TIP3   OH281037   0.095   3.140   4.783 -0.1478  0.0519 -0.0399
19849TIP3    H181038   0.114   3.052   4.753 -0.8119  0.5345 -1.9399
19849TIP3    H281039   0.032   3.129   4.854  0.2845 -1.0247  0.1755
19850TIP3   OH281040   0.563   0.831  11.024  0.1625 -0.0528 -0.1496
19850TIP3    H181041   0.617   0.831  10.945 -0.7416 -1.4227 -0.7908
19850TIP3    H281042   0.622   0.862  11.093  1.3273 -0.0508 -1.1246
19851TIP3   OH281043   6.173   4.083   2.973 -0.7477 -0.3102 -0.4812
19851TIP3    H181044   6.173   4.016   3.041  0.0738 -1.2258 -1.3659
19851TIP3    H281045   6.087   4.124   2.979 -0.4699  0.0276  1.4949
19852TIP3   OH281046   1.338   1.720   3.996  0.0354  0.7460 -0.1977
19852TIP3    H181047   1.338   1.766   3.912 -0.1564  2.3222  0.6419
19852TIP3    H281048   1.406   1.764   4.047  0.5044 -0.5430  0.2932
19853TIP3   OH281049   0.082   0.178   4.967  0.6006  0.2651  0.2055
19853TIP3    H181050   0.133   0.109   4.925  2.9505  1.9469  0.2132
19853TIP3    H281051   0.087   0.157   5.061  0.9657  0.2234  0.1766
19854TIP3   OH281052   3.128   3.505   4.064 -0.2667 -0.0729  0.3338
19854TIP3    H181053   3.220   3.530   4.060  0.4861 -2.6601  0.3387
19854TIP3    H281054   3.106   3.482   3.974 -0.4270 -1.0073  0.6057
19855TIP3   OH281055   0.025   0.793  14.837  0.3422  0.4847  0.2597
19855TIP3    H181056   0.060   0.856  14.899 -3.0317  1.2583  1.5078
19855TIP3    H281057  -0.016   0.847  14.769 -1.5917 -0.3136  0.7542
19856TIP3   OH281058   6.157   5.678   4.333 -0.0648 -0.4495  0.1095
19856TIP3    H181059   6.244   5.683   4.371 -0.2947 -0.1458  0.6028
19856TIP3    H281060   6.146   5.586   4.310 -0.0544 -0.7098  1.1144
19857TIP3   OH281061   5.214   1.987   4.495 -0.0885 -0.5748 -0.2302
19857TIP3    H181062   5.301   1.947   4.493 -0.7177 -2.0460  0.7159
19857TIP3    H281063   5.188   1.993   4.403  0.1228 -2.1579 -0.4174
19858TIP3   OH281064   5.357   1.395  14.413  0.0412 -0.1207  0.7660
19858TIP3    H181065   5.299   1.333  14.370  0.7437 -0.8867  0.9102
19858TIP3    H281066   5.362   1.365  14.504 -1.2140  1.3230  1.3340
19859TIP3   OH281067   0.506   0.928  13.798  0.4467 -0.2172  0.9213
19859TIP3    H181068   0.481   0.895  13.712  1.6378 -0.5838  0.7069
19859TIP3    H281069   0.569   0.998  13.780  0.4212 -0.0452  1.4856
19860TIP3   OH281070   6.069   0.143  13.399 -0.5460 -0.4851 -0.1229
19860TIP3    H181071   6.081   0.226  13.353  1.5171 -0.9864 -0.5261
19860TIP3    H281072   6.088   0.163  13.490 -0.3962 -0.4411 -0.1643
19861TIP3   OH281073   5.589   0.307   2.225  0.4627  0.1592  0.0139
19861TIP3    H181074   5.594   0.372   2.155  0.7770 -2.0381 -2.0805
19861TIP3    H281075   5.496   0.286   2.231  0.6045 -0.6777 -0.7186
19862TIP3   OH281076   1.286   6.485   0.589  0.4390  0.4618 -0.0248
19862TIP3    H181077   1.373   6.479   0.550  0.0488 -0.0509 -0.8486
19862TIP3    H281078   1.243   6.404   0.562 -0.7712  1.3505 -0.8061
19863TIP3   OH281079   4.584   1.133   4.877  0.3279  0.1088  0.3248
19863TIP3    H181080   4.509   1.102   4.928 -0.2190 -0.2475 -0.6857
19863TIP3    H281081   4.549   1.146   4.789  1.0290  1.7204  0.2767
19864TIP3   OH281082   4.521   3.024  13.793  0.1791  0.0248 -0.1995
19864TIP3    H181083   4.504   3.117  13.780  0.0839  0.0153 -0.1367
19864TIP3    H281084   4.504   3.009  13.886  0.9110  0.1039 -0.0497
19865TIP3   OH281085   2.480   3.652  15.877 -0.3408  0.2390  0.2132
19865TIP3    H181086   2.551   3.593  15.851 -2.0555 -2.3818  1.2369
19865TIP3    H281087   2.523   3.721  15.926  1.8825  0.5770 -2.1033
19866TIP3   OH281088   1.769   6.435   6.496 -0.3774  0.2941 -0.7615
19866TIP3    H181089   1.806   6.347   6.502 -0.4104  0.3452  0.2802
19866TIP3    H281090   1.756   6.449   6.402  1.2826 -0.1083 -1.0612
19867TIP3   OH281091   2.534   1.396  16.313 -0.5413 -0.0461  0.4310
19867TIP3    H181092   2.550   1.388  16.219 -1.2451  0.6989  0.2433
19867TIP3    H281093   2.598   1.338  16.353  0.7436  0.7533 -0.4286
19868TIP3   OH281094   1.032   6.200  13.751 -0.1643 -0.1007 -0.1468
19868TIP3    H181095   0.950   6.249  13.746 -0.5776 -0.3757  3.2574
19868TIP3    H281096   1.006   6.109  13.739 -0.1458 -0.0549 -0.5559
19869TIP3   OH281097   1.961   3.725  15.844  0.2314 -1.1562  0.1570
19869TIP3    H181098   2.010   3.770  15.913  2.8510  0.0568 -2.3892
19869TIP3    H281099   2.023   3.662  15.807 -1.3623 -2.3035 -0.6458
19870TIP3   OH281100   2.948   3.953  14.785 -0.6017 -0.1169  0.3803
19870TIP3    H181101   2.861   3.917  14.770 -1.8047  2.4660  0.9495
19870TIP3    H281102   2.960   3.950  14.880  0.4739 -1.6255  0.2196
19871TIP3   OH281103   4.588   5.487  12.755 -0.3044  0.1745 -0.3096
19871TIP3    H181104   4.530   5.415  12.726 -1.4940  0.1209  2.0502
19871TIP3    H281105   4.620   5.458  12.840 -3.4358  3.7903  2.2995
19872TIP3   OH281106   6.469   2.895  11.003 -0.0129 -0.5092 -0.3490
19872TIP3    H181107   6.496   2.813  10.960 -0.4454 -0.1500 -1.3212
19872TIP3    H281108   6.411   2.937  10.940 -0.0397  0.4046  0.2756
19873TIP3   OH281109   0.210   0.423   2.591 -0.5206  0.3812  0.2396
19873TIP3    H181110   0.217   0.517   2.607 -0.8710  0.6293 -0.9865
19873TIP3    H281111   0.118   0.409   2.567 -0.0178  0.0753 -1.6140
19874TIP3   OH281112   1.859   0.919  15.856  0.2414 -0.5879 -0.3860
19874TIP3    H181113   1.844   0.913  15.762  2.4592  0.6479 -0.8413
19874TIP3    H281114   1.772   0.910  15.894 -0.5008 -2.8139 -2.4543
19875TIP3   OH281115   5.961   6.458   3.215  0.5356  0.5007  0.2908
19875TIP3    H181116   5.998   6.465   3.303  1.6355 -0.6742 -0.0698
19875TIP3    H281117   5.998   6.532   3.167  0.8359  0.4860  0.4982
19876TIP3   OH281118   3.363   3.824  11.484  0.3614 -0.2177 -0.0779
19876TIP3    H181119   3.343   3.751  11.425 -2.1534  2.0369 -2.1614
19876TIP3    H281120   3.316   3.803  11.565 -0.0916 -1.0943 -0.5627
19877TIP3   OH281121   0.048   0.146  12.522  0.3106 -0.2671 -0.1569
19877TIP3    H181122   0.120   0.201  12.491 -0.4304  0.1521 -1.1505
19877TIP3    H281123   0.010   0.195  12.594 -0.9613  1.0095 -1.6603
19878TIP3   OH281124   4.560   5.110  15.475 -0.0509 -0.5019 -0.9075
19878TIP3    H181125   4.507   5.097  15.396  0.1737  0.9683 -1.3081
19878TIP3    H281126   4.567   5.023  15.514 -2.4973 -0.7704 -1.0137
19879TIP3   OH281127   0.897   3.444   5.170 -0.0422  0.5630 -0.1030
19879TIP3    H181128   0.921   3.362   5.128  0.2874 -0.7597  2.5547
19879TIP3    H281129   0.801   3.447   5.163 -0.1975 -0.8637  1.1990
19880TIP3   OH281130   5.332   4.848   4.336  0.1774  0.6488  0.7669
19880TIP3    H181131   5.363   4.925   4.289 -2.1652 -0.2007 -2.3979
19880TIP3    H281132   5.342   4.776   4.273 -2.2058 -0.6983  1.8482
19881TIP3   OH281133   6.677   3.334   0.945 -0.0348 -0.2559  0.5643
19881TIP3    H181134   6.694   3.243   0.920 -2.8416 -1.4568  2.7107
19881TIP3    H281135   6.607   3.363   0.887 -1.0388 -0.4014  1.6824
19882TIP3   OH281136   1.006   0.360  13.457  0.5509 -0.5725 -0.5426
19882TIP3    H181137   1.026   0.440  13.408  0.3619 -0.4935 -0.4876
19882TIP3    H281138   0.955   0.307  13.396  1.1211 -0.8720 -0.7612
19883TIP3   OH281139   4.980   2.312   2.081  0.2383 -0.4348  0.9289
19883TIP3    H181140   5.051   2.375   2.092 -0.1703  0.3430 -0.7263
19883TIP3    H281141   5.021   2.227   2.097  1.0261  0.1599  2.1488
19884TIP3   OH281142   0.219   4.022  15.722  0.0196  0.1626  0.0898
19884TIP3    H181143   0.306   4.026  15.762 -0.5640 -1.0466  1.5100
19884TIP3    H281144   0.225   3.950  15.658 -0.1948 -0.5143  0.8288
19885TIP3   OH281145   0.601   6.412   1.129 -0.5018  0.1532  0.4799
19885TIP3    H181146   0.670   6.370   1.180  1.2455  0.6508 -1.3863
19885TIP3    H281147   0.532   6.345   1.122  0.7002 -1.1137  0.6065
19886TIP3   OH281148   2.798   5.892   3.622  0.5029  0.0036 -0.2674
19886TIP3    H181149   2.747   5.933   3.692  2.4396 -0.6443  1.5690
19886TIP3    H281150   2.767   5.802   3.619 -0.4039  0.3385 -1.0511
19887TIP3   OH281151   0.208   3.193  12.971 -0.1657  0.1174  0.0349
19887TIP3    H181152   0.194   3.100  12.989 -2.5047  0.2544 -0.9227
19887TIP3    H281153   0.209   3.200  12.875 -0.4014  1.1179  0.0902
19888TIP3   OH281154   4.209   5.478  16.865 -0.6549  0.2191 -0.3281
19888TIP3    H181155   4.185   5.558  16.819 -0.0820 -0.2925 -1.5269
19888TIP3    H281156   4.127   5.429  16.873 -1.1231  1.1857  0.9574
19889TIP3   OH281157   5.027   2.581  15.180 -0.0663  0.3836 -0.1005
19889TIP3    H181158   4.936   2.553  15.196  0.1257  0.7377  1.7419
19889TIP3    H281159   5.037   2.658  15.234  1.7242 -0.3693  0.6604
19890TIP3   OH281160   2.677   0.365  13.583 -0.5564  0.0696  0.3704
19890TIP3    H181161   2.713   0.398  13.665  0.9054  0.7966 -0.5420
19890TIP3    H281162   2.714   0.277  13.575 -0.8188 -0.0596  0.5508
19891TIP3   OH281163   5.967   4.262  16.780  0.1284 -0.1993  0.2892
19891TIP3    H181164   5.988   4.177  16.819 -0.7538 -2.0884 -3.1258
19891TIP3    H281165   6.034   4.275  16.713  0.0392  1.6619  0.5277
19892TIP3   OH281166   0.582   1.667  11.057 -0.1398  0.6476 -0.5544
19892TIP3    H181167   0.637   1.609  11.110  0.1542  0.0728 -1.4847
19892TIP3    H281168   0.640   1.703  10.991 -0.8179  0.2500 -1.3748
19893TIP3   OH281169   4.180   2.851   4.214 -0.3758  0.0302 -0.0224
19893TIP3    H181170   4.186   2.764   4.254 -0.7609  0.2240  0.4497
19893TIP3    H281171   4.249   2.902   4.257 -0.5882  0.1500  0.1763
19894TIP3   OH281172   3.821   5.822  12.118  0.3819 -0.0524 -0.1785
19894TIP3    H181173   3.857   5.733  12.116  0.0543 -0.1754 -0.9088
19894TIP3    H281174   3.813   5.843  12.211 -1.2342 -1.4918  0.0434
19895TIP3   OH281175   1.689   5.821  12.930 -0.8079  0.4243 -0.8462
19895TIP3    H181176   1.750   5.805  13.002 -0.9814 -0.4070 -0.8812
19895TIP3    H281177   1.689   5.916  12.919  0.6251  0.4082 -0.9761
19896TIP3   OH281178   0.233   3.706  15.860  0.2391 -0.0365 -0.2559
19896TIP3    H181179   0.145   3.692  15.896 -0.3819 -0.4461 -1.8933
19896TIP3    H281180   0.288   3.722  15.937 -1.4923  1.4413  0.7119
19897TIP3   OH281181   4.816   3.521   4.972 -0.0724 -0.4871 -0.0699
19897TIP3    H181182   4.829   3.577   5.048  1.0242  1.3429 -1.5707
19897TIP3    H281183   4.724   3.533   4.949 -0.1955 -0.4010  0.4580
19898TIP3   OH281184   1.878   0.032  16.758 -0.4596  0.1461  0.2523
19898TIP3    H181185   1.938   0.093  16.715 -0.0459 -0.0237  0.5853
19898TIP3    H281186   1.892   0.048  16.852 -0.5123 -0.3003  0.3384
19899TIP3   OH281187   6.189   1.999  12.718  0.2368  0.3492 -0.1544
19899TIP3    H181188   6.199   2.022  12.811  0.5886 -3.3687  0.8053
19899TIP3    H281189   6.277   2.004  12.682  0.7287 -1.8868  0.6728
19900TIP3   OH281190   4.057   4.054  13.918  0.0486 -0.3454 -0.5284
19900TIP3    H181191   4.066   3.990  13.847 -0.8394 -1.9792  0.7968
19900TIP3    H281192   4.147   4.073  13.944  0.3542 -0.3424 -1.5277
19901TIP3   OH281193   6.216   0.434  13.913 -0.1278 -0.4597  0.0554
19901TIP3    H181194   6.257   0.518  13.934 -0.7049  0.8238 -3.6120
19901TIP3    H281195   6.268   0.369  13.961  1.6374  1.8055  1.2801
19902TIP3   OH281196   3.503   3.706  15.295 -0.3905  0.2361  0.7889
19902TIP3    H181197   3.540   3.789  15.264  0.0195  0.2450  1.2790
19902TIP3    H281198   3.477   3.660  15.216  2.4185 -0.5835  0.2772
19903TIP3   OH281199   4.269   1.276   0.423 -0.4155  0.0206 -0.2971
19903TIP3    H181200   4.307   1.364   0.429  0.5577 -0.5308  2.3317
19903TIP3    H281201   4.242   1.268   0.331  0.1388  2.7759 -0.7518
19904TIP3   OH281202   0.246   2.861   0.964 -0.3193  0.3678 -0.1127
19904TIP3    H181203   0.254   2.942   1.015 -0.3316 -0.6207  1.4762
19904TIP3    H281204   0.177   2.812   1.008  1.3667 -1.5913  0.3936
19905TIP3   OH281205   2.119   1.998  10.921  0.0363 -0.3638  0.1384
19905TIP3    H181206   2.087   2.007  10.832 -3.1281 -0.9166  1.1806
19905TIP3    H281207   2.139   1.905  10.931 -0.1544 -0.4007  0.1781
19906TIP3   OH281208   3.363   1.576  14.365 -1.0337  0.0691 -0.3131
19906TIP3    H181209   3.351   1.665  14.398  2.9453  1.2177 -1.7058
19906TIP3    H281210   3.428   1.537  14.424 -2.0845 -1.6316 -0.2505
19907TIP3   OH281211   4.587   4.027   3.836  0.0886 -0.0515  0.2991
19907TIP3    H181212   4.653   4.046   3.902  2.5629 -1.2466 -1.7195
19907TIP3    H281213   4.506   4.064   3.871  1.9105  1.8651  2.6441
19908TIP3   OH281214   1.233   6.377   5.821 -0.5314 -0.3449  0.2153
19908TIP3    H181215   1.185   6.312   5.769 -1.2175 -0.6718  1.2592
19908TIP3    H281216   1.302   6.408   5.762 -0.1950 -2.0214 -0.2971
19909TIP3   OH281217   2.408   0.820   2.983  0.1232 -0.2833  0.0332
19909TIP3    H181218   2.419   0.797   3.075 -2.6169  1.6559  0.9152
19909TIP3    H281219   2.494   0.851   2.955  0.5943  0.6187  2.3959
19910TIP3   OH281220   6.321   3.569   0.588  0.2449 -0.1120 -0.3890
19910TIP3    H181221   6.276   3.650   0.564  0.1151 -0.3695 -1.0084
19910TIP3    H281222   6.263   3.500   0.559  0.4967 -0.4344 -0.1241
19911TIP3   OH281223   5.843   2.210   1.925  0.4163 -0.1547 -0.3934
19911TIP3    H181224   5.885   2.223   2.011  2.2300  1.1279 -1.4486
19911TIP3    H281225   5.831   2.298   1.890  0.9650 -0.7235 -2.0475
19912TIP3   OH281226   4.543   6.297  11.891 -0.1561 -0.1207  0.3129
19912TIP3    H181227   4.538   6.386  11.924 -0.5670  0.0242 -0.1424
19912TIP3    H281228   4.619   6.297  11.833  0.0864 -0.1728  0.6304
19913TIP3   OH281229   6.777   5.060  14.599 -0.7341  0.2730  0.0626
19913TIP3    H181230   6.770   5.094  14.510  0.3956 -0.0870 -0.1740
19913TIP3    H281231   6.860   5.013  14.600 -2.3281 -2.7148  0.2747
19914TIP3   OH281232   2.220   1.011  12.291  0.2062  0.3424 -0.1699
19914TIP3    H181233   2.174   1.081  12.338 -2.3730 -0.0370 -2.0078
19914TIP3    H281234   2.184   0.930  12.328  1.4640  0.0023  0.3179
19915TIP3   OH281235   3.320   4.910  10.394 -0.0267 -0.1375  0.4884
19915TIP3    H181236   3.264   4.851  10.343  0.0089  0.3472 -0.1207
19915TIP3    H281237   3.377   4.951  10.328 -1.5287  2.2403  0.6247
19916TIP3   OH281238   3.142   1.484  16.962 -0.2715  0.2312  0.3910
19916TIP3    H181239   3.228   1.470  17.002  0.5225  2.7654 -0.3165
19916TIP3    H281240   3.141   1.577  16.941 -1.7997 -0.4783 -2.8938
19917TIP3   OH281241   0.966   6.567   5.466 -0.3276 -0.0750  0.3269
19917TIP3    H181242   0.881   6.611   5.470 -0.5467 -0.3992 -0.8539
19917TIP3    H281243   1.029   6.637   5.485 -0.8556  0.1080  1.5069
19918TIP3   OH281244   3.842   2.234   5.342  0.0501  0.1788  0.3237
19918TIP3    H181245   3.828   2.150   5.297 -1.4746  0.1904  0.7722
19918TIP3    H281246   3.878   2.291   5.274  3.0963 -1.4038  0.4984
19919TIP3   OH281247   2.913   3.994  11.524 -0.1733 -0.6691  0.2053
19919TIP3    H181248   2.892   4.009  11.432  0.7874  0.3678  0.1487
19919TIP3    H281249   2.869   4.064  11.571  0.7074 -0.2245  0.3720
19920TIP3   OH281250   4.783   4.905   5.910  0.0167  0.1687 -0.3403
19920TIP3    H181251   4.840   4.981   5.900  0.5735 -0.3764 -1.2734
19920TIP3    H281252   4.810   4.865   5.993 -0.2162  0.9312  0.1080
19921TIP3   OH281253   2.051   3.058  10.522  0.5777  0.0046 -0.3700
19921TIP3    H181254   2.067   2.986  10.582  0.8053 -0.4422 -0.9625
19921TIP3    H281255   1.956   3.058  10.507  0.2306  1.4533  1.6505
19922TIP3   OH281256   1.985   3.334  16.042  0.1243  0.1608 -0.1017
19922TIP3    H181257   1.961   3.289  15.961  0.6441  0.2876 -0.3327
19922TIP3    H281258   1.996   3.264  16.107 -1.2171  0.1295  0.1040
19923TIP3   OH281259   0.331   6.034  12.294  0.1889 -0.8013 -0.1634
19923TIP3    H181260   0.408   5.983  12.268  1.3965  1.1139 -0.4471
19923TIP3    H281261   0.352   6.064  12.383 -0.1919 -0.2614 -0.2524
19924TIP3   OH281262   5.983   2.867   4.968 -0.3781  0.2345 -0.2128
19924TIP3    H181263   5.925   2.899   4.898 -1.4134  0.7223  0.8480
19924TIP3    H281264   5.923   2.830   5.033  0.5992 -0.4472  0.3098
19925TIP3   OH281265   5.201   0.965   4.645 -0.4206  0.7283  0.1885
19925TIP3    H181266   5.162   1.012   4.719  0.7918  1.9986  0.0451
19925TIP3    H281267   5.131   0.958   4.581 -0.6072  2.4887  0.1680
19926TIP3   OH281268   3.928   2.055  12.576  0.3818 -0.4762  0.1657
19926TIP3    H181269   3.927   2.095  12.489 -0.3812  1.3589  1.0089
19926TIP3    H281270   4.020   2.057  12.602  0.4271  0.1967 -0.0363
19927TIP3   OH281271   2.664   3.066  13.585  0.5161  0.2169 -0.5218
19927TIP3    H181272   2.739   3.011  13.607 -0.4279 -0.6612  0.5410
19927TIP3    H281273   2.672   3.141  13.644 -0.4073 -0.7333  0.8336
19928TIP3   OH281274   2.517   2.103   2.467 -0.8736 -0.1474  0.2889
19928TIP3    H181275   2.611   2.085   2.476 -0.4044  1.8843 -0.3954
19928TIP3    H281276   2.475   2.025   2.503  1.0584 -0.3129  2.3219
19929TIP3   OH281277   6.292   4.899   4.581 -0.1247 -0.4676  0.1667
19929TIP3    H181278   6.370   4.844   4.573 -0.9668 -1.3276 -2.9642
19929TIP3    H281279   6.228   4.845   4.628  0.9943  0.1089  2.4131
19930TIP3   OH281280   1.179   5.941   0.023  0.0381  0.3748 -0.1270
19930TIP3    H181281   1.138   5.912   0.105  0.6518 -0.9224 -0.2617
19930TIP3    H281282   1.121   5.908  -0.045 -1.0689  2.4076 -0.2132
19931TIP3   OH281283   0.947   2.480   4.620  0.0401 -0.4258  0.0473
19931TIP3    H181284   0.866   2.456   4.665 -1.0185  0.2819 -1.4445
19931TIP3    H281285   0.981   2.553   4.672 -0.9419  0.1008 -0.0262
19932TIP3   OH281286   6.197   2.495   6.415  0.1803  0.6718 -0.7641
19932TIP3    H181287   6.198   2.400   6.410  1.2325  0.5465  1.4500
19932TIP3    H281288   6.289   2.520   6.422 -0.0424  1.9095 -1.9748
19933TIP3   OH281289   6.321   2.420   0.951  0.0106  0.0836 -0.2745
19933TIP3    H181290   6.284   2.471   1.023 -0.8372 -1.7586  0.6168
19933TIP3    H281291   6.333   2.484   0.881 -0.1653  1.6906  1.1240
19934TIP3   OH281292   0.892   0.155   4.247  0.0383 -0.5376  0.1507
19934TIP3    H181293   0.945   0.160   4.167 -0.7896  0.0583 -0.3569
19934TIP3    H281294   0.956   0.141   4.316  0.8805  0.3537 -0.4416
19935TIP3   OH281295   3.861   4.429   4.095 -0.4821 -0.1887 -0.4282
19935TIP3    H181296   3.773   4.435   4.058  0.3817 -1.7979 -2.9471
19935TIP3    H281297   3.858   4.351   4.151 -0.5583 -0.4942 -0.8531
19936TIP3   OH281298   0.826   5.646   3.438  0.1129  0.2983 -0.4236
19936TIP3    H181299   0.847   5.587   3.510 -1.1100 -0.4114 -0.6451
19936TIP3    H281300   0.901   5.639   3.379  1.7980  1.9610  1.4235
19937TIP3   OH281301   6.442   3.348   1.985  0.0482 -0.3506 -0.1380
19937TIP3    H181302   6.439   3.276   1.922  0.9691 -0.4081 -0.1100
19937TIP3    H281303   6.429   3.427   1.931  0.2124 -0.4467 -0.3170
19938TIP3   OH281304   3.621   2.435   5.391  0.0239 -0.0481  0.2319
19938TIP3    H181305   3.535   2.407   5.362  0.4269  0.0682 -1.1033
19938TIP3    H281306   3.679   2.363   5.365  0.4829  0.3314  0.2027
19939TIP3   OH281307   3.338   1.296   6.713  0.0303  0.2126 -0.5057
19939TIP3    H181308   3.337   1.365   6.646 -0.0983  0.4035 -0.3089
19939TIP3    H281309   3.418   1.312   6.762  0.9968 -0.9628 -1.6826
19940TIP3   OH281310   1.349   4.075   6.378 -0.9415 -0.1468  0.2450
19940TIP3    H181311   1.324   4.112   6.462 -1.1128 -1.3437  0.7377
19940TIP3    H281312   1.315   3.985   6.380 -0.9926 -0.1790 -1.1172
19941TIP3   OH281313   0.426   6.810  12.815  0.6349 -0.0670  0.0319
19941TIP3    H181314   0.391   6.889  12.775  0.3350 -0.4769 -0.5188
19941TIP3    H281315   0.358   6.782  12.876  1.2767  0.8037  1.1740
19942TIP3   OH281316   4.598   6.528  12.368  0.4540  0.6221  0.0867
19942TIP3    H181317   4.647   6.494  12.293  0.4487  1.8610 -0.4915
19942TIP3    H281318   4.544   6.598  12.331 -1.4819 -0.4789  0.7808
19943TIP3   OH281319   6.282   3.033  16.652  0.3961  0.2235  0.0202
19943TIP3    H181320   6.365   2.984  16.656  0.9246  1.1684  1.0354
19943TIP3    H281321   6.225   2.979  16.598  0.5023 -2.2023  2.2479
19944TIP3   OH281322   3.259   3.737  11.020  0.3194 -0.4841 -0.1778
19944TIP3    H181323   3.271   3.652  10.978  0.0822 -0.6773  0.1391
19944TIP3    H281324   3.313   3.797  10.969 -0.2871 -0.6360 -1.0173
19945TIP3   OH281325   4.937   1.833  12.305 -0.1846 -0.2197 -0.5591
19945TIP3    H181326   4.927   1.749  12.350 -2.0371  0.4679  0.3605
19945TIP3    H281327   5.022   1.866  12.336 -0.9565 -0.2325  1.6606
19946TIP3   OH281328   6.538   4.733   5.642  0.5952 -0.1332  0.2160
19946TIP3    H181329   6.532   4.775   5.556 -1.4302  0.9444  0.8721
19946TIP3    H281330   6.621   4.765   5.678  1.0902  0.0083 -1.0133
19947TIP3   OH281331   6.500   1.865   6.055 -0.2628  0.6802 -0.2696
19947TIP3    H181332   6.589   1.831   6.052 -0.4840  0.1492 -0.8082
19947TIP3    H281333   6.501   1.930   6.126  0.1834 -0.3831  0.7122
19948TIP3   OH281334   6.024   0.929   5.054  0.0135 -0.4752  0.9496
19948TIP3    H181335   6.018   0.905   4.962 -0.9319 -1.0865  1.1641
19948TIP3    H281336   6.055   0.849   5.098  0.3533 -0.2197  1.1835
19949TIP3   OH281337   1.278   4.608   1.334  0.1241  0.3836  0.0490
19949TIP3    H181338   1.227   4.674   1.381  1.2207  0.7034  0.8177
19949TIP3    H281339   1.257   4.623   1.241 -1.0491  0.5986  0.3425
19950TIP3   OH281340   4.340   1.625   1.356 -0.8107 -0.0104 -0.7432
19950TIP3    H181341   4.348   1.541   1.401 -2.0125  0.7678  0.9729
19950TIP3    H281342   4.270   1.610   1.292 -1.7098 -0.0346  0.2381
19951TIP3   OH281343   1.687   1.785   3.380  0.1129  0.3312 -0.3060
19951TIP3    H181344   1.703   1.867   3.426  2.3032 -0.2662  0.0591
19951TIP3    H281345   1.696   1.718   3.447  0.5804 -0.3583 -1.0483
19952TIP3   OH281346   0.419   3.376  14.007  0.1032 -0.4254  0.0791
19952TIP3    H181347   0.328   3.387  13.979 -0.4837 -0.3360  1.9394
19952TIP3    H281348   0.468   3.441  13.957 -1.0531  0.3358 -0.0714
19953TIP3   OH281349   2.042   1.477   5.936 -0.0334  0.3678 -0.3432
19953TIP3    H181350   2.111   1.421   5.900 -0.7591 -1.6366  1.2578
19953TIP3    H281351   1.971   1.416   5.959 -0.4856  1.8259  2.3430
19954TIP3   OH281352   0.902   0.879  11.670  0.0521 -0.3686  0.1888
19954TIP3    H181353   0.853   0.941  11.723  1.2427  1.0157 -0.3012
19954TIP3    H281354   0.945   0.822  11.734  0.3867  0.4322  0.6821
19955TIP3   OH281355   5.979   0.204   4.180 -0.2366  0.4231 -0.6218
19955TIP3    H181356   5.887   0.230   4.175 -0.3419 -0.1196 -1.6605
19955TIP3    H281357   6.019   0.241   4.101  0.1625 -0.4037 -0.8098
19956TIP3   OH281358   6.474   2.611   5.429 -0.5330 -0.3490  0.0621
19956TIP3    H181359   6.469   2.678   5.498  0.3867 -0.2960  0.0954
19956TIP3    H281360   6.557   2.630   5.385  0.4677 -2.3478  1.0141
19957TIP3   OH281361   6.155   1.818  16.832  0.9016 -0.1167 -0.4137
19957TIP3    H181362   6.131   1.834  16.740 -1.1094 -0.3152  0.0459
19957TIP3    H281363   6.118   1.892  16.880 -0.2594 -1.2580  0.5256
19958TIP3   OH281364   4.762   5.624  13.578 -0.1368 -0.4540 -0.0201
19958TIP3    H181365   4.829   5.647  13.513  0.6251  0.2073  0.9833
19958TIP3    H281366   4.807   5.631  13.662 -1.2587 -0.7851  0.6180
19959TIP3   OH281367   2.087   4.893   4.737  0.1684  0.5403  0.2319
19959TIP3    H181368   2.045   4.943   4.666  0.1013  0.2186  0.0456
19959TIP3    H281369   2.027   4.820   4.753 -0.3519  1.2043  1.3518
19960TIP3   OH281370   1.585   2.048   0.649  0.6673 -0.2703  0.5113
19960TIP3    H181371   1.588   2.053   0.745 -0.2746 -1.1978  0.6026
19960TIP3    H281372   1.652   2.110   0.620  0.1022  0.9588  1.7489
19961TIP3   OH281373   0.076   5.334  13.983 -0.3123 -0.1684  0.5187
19961TIP3    H181374   0.146   5.398  13.983 -1.5171  1.1782  0.1987
19961TIP3    H281375   0.067   5.308  14.075  0.0921  0.2326  0.6714
19962TIP3   OH281376   1.121   6.131  11.475 -0.9209  0.4447  0.1298
19962TIP3    H181377   1.033   6.111  11.444 -1.8531  0.9674  2.3464
19962TIP3    H281378   1.128   6.086  11.559  1.8359 -1.6253 -1.1226
19963TIP3   OH281379   1.910   4.509  12.662 -0.2176  0.0791 -0.0662
19963TIP3    H181380   1.826   4.528  12.704  0.7696  1.5380  1.2727
19963TIP3    H281381   1.955   4.452  12.724  1.8307  3.3855  1.6021
19964TIP3   OH281382   1.188   4.003  13.789 -0.4245  0.0923  0.2429
19964TIP3    H181383   1.263   4.059  13.768 -1.7453  1.6225 -0.5680
19964TIP3    H281384   1.216   3.952  13.865  1.4367  0.6161 -0.0641
19965TIP3   OH281385   4.313   5.917   2.283 -0.1920  0.1438  0.2884
19965TIP3    H181386   4.228   5.874   2.291  1.3704 -2.9552  0.8246
19965TIP3    H281387   4.333   5.912   2.189  0.9319 -2.3334  0.6078
19966TIP3   OH281388   4.705   3.901  14.345  0.1182  0.6959  0.0216
19966TIP3    H181389   4.672   3.864  14.427  0.0270  0.7752  0.0218
19966TIP3    H281390   4.753   3.979  14.371  1.2718 -0.0398  0.1228
19967TIP3   OH281391   5.706   1.297   2.566  1.2254  0.0543  0.3527
19967TIP3    H181392   5.718   1.202   2.578  0.2076 -0.1354 -0.0773
19967TIP3    H281393   5.641   1.321   2.632 -2.5772 -0.5542 -2.9582
19968TIP3   OH281394   2.513   2.822   2.907  0.0669  0.0270  0.0378
19968TIP3    H181395   2.556   2.830   2.991 -0.7223 -1.0331  0.5516
19968TIP3    H281396   2.420   2.834   2.926 -0.2324 -1.3492 -0.4974
19969TIP3   OH281397   1.810   3.306   4.861 -0.8970  0.2679 -0.2735
19969TIP3    H181398   1.751   3.364   4.811 -0.6420 -0.0594 -0.9632
19969TIP3    H281399   1.831   3.236   4.800 -2.7341 -1.6210  1.1788
19970TIP3   OH281400   1.384   2.719   3.576  0.5366  0.3849  0.6115
19970TIP3    H181401   1.299   2.699   3.615 -0.0299 -1.4493 -1.5231
19970TIP3    H281402   1.438   2.748   3.650 -1.1619 -0.9251  2.3925
19971TIP3   OH281403   1.678   2.028   5.185 -0.0137 -0.3242 -0.4005
19971TIP3    H181404   1.695   2.037   5.092  2.2751 -1.1837 -0.1195
19971TIP3    H281405   1.744   2.084   5.227 -0.7214 -0.3009  0.7043
19972TIP3   OH281406   5.794   5.917   2.582  0.9255  0.0137  0.1430
19972TIP3    H181407   5.753   6.000   2.557 -0.3626 -0.9541 -0.9940
19972TIP3    H281408   5.831   5.935   2.669 -0.6597  1.3390  0.5843
19973TIP3   OH281409   2.066   2.281  12.193  0.3585  0.0292  0.7371
19973TIP3    H181410   2.094   2.313  12.107 -0.0543  0.3966  0.7370
19973TIP3    H281411   1.981   2.323  12.207  0.9524  0.8820  1.8372
19974TIP3   OH281412   4.369   3.320  14.587  0.1848 -0.3928  0.4139
19974TIP3    H181413   4.382   3.287  14.676 -0.8054 -2.3007 -0.1060
19974TIP3    H281414   4.447   3.290  14.539 -0.9830 -2.5684 -0.1944
19975TIP3   OH281415   0.018   0.483  12.601 -0.4312  0.1186  0.2243
19975TIP3    H181416   0.113   0.493  12.596 -0.4212  0.5034  1.1496
19975TIP3    H281417  -0.013   0.520  12.518  0.2494 -0.3703 -0.2530
19976TIP3   OH281418   0.124   0.794  14.495  0.3390  0.0190  0.6686
19976TIP3    H181419   0.030   0.808  14.485 -0.0957 -1.2180  2.6800
19976TIP3    H281420   0.132   0.702  14.522  2.0456  0.3398  1.3405
19977TIP3   OH281421   6.040   1.553   1.320 -0.8589 -0.3883 -0.4330
19977TIP3    H181422   6.002   1.472   1.357  0.9457 -1.5254 -0.9963
19977TIP3    H281423   6.134   1.540   1.327 -0.5401  1.3312 -1.3249
19978TIP3   OH281424   4.001   4.119  12.264 -0.2950 -0.1201 -0.6849
19978TIP3    H181425   4.018   4.074  12.182 -3.9365 -1.0801 -0.9764
19978TIP3    H281426   3.981   4.209  12.239  2.6272  0.6521 -0.4500
19979TIP3   OH281427   6.662   6.073  16.817  0.0530 -0.0011 -0.3251
19979TIP3    H181428   6.568   6.072  16.796 -0.0708  0.4882  0.1820
19979TIP3    H281429   6.671   6.143  16.882  0.2329 -2.3584  2.2464
19980TIP3   OH281430   5.549   6.225  14.720  0.6084  0.5949 -0.0444
19980TIP3    H181431   5.463   6.196  14.688  0.7829 -0.1165  0.1170
19980TIP3    H281432   5.546   6.212  14.814  1.0325  0.2008 -0.0831
19981TIP3   OH281433   4.183   4.433  12.449 -0.1591 -0.0362  0.5681
19981TIP3    H181434   4.199   4.417  12.542  3.1746 -0.7954 -0.0817
19981TIP3    H281435   4.166   4.346  12.413 -0.3239  0.1256  0.2530
19982TIP3   OH281436   0.405   6.767  13.354  0.0661 -0.1020  0.1954
19982TIP3    H181437   0.450   6.735  13.432 -0.6942  0.6872  0.9724
19982TIP3    H281438   0.312   6.765  13.378 -0.1768  0.1087 -0.7049
19983TIP3   OH281439   1.804   5.956  13.184 -0.7095  0.2278  0.2723
19983TIP3    H181440   1.737   6.024  13.180 -1.4898 -0.5357  0.0374
19983TIP3    H281441   1.845   5.967  13.269 -2.9274 -0.9368  1.5505
19984TIP3   OH281442   2.464   4.088   0.173  0.3713 -0.6290  1.1828
19984TIP3    H181443   2.544   4.039   0.155  0.2618 -0.3298 -0.1916
19984TIP3    H281444   2.414   4.083   0.091  0.0553  1.1690  1.2411
19985TIP3   OH281445   2.805   2.789   0.305 -0.2597  0.1625  0.4790
19985TIP3    H181446   2.736   2.741   0.352 -2.0056  2.4895  0.3996
19985TIP3    H281447   2.758   2.835   0.235  2.0177 -1.6438 -2.3588
19986TIP3   OH281448   1.162   2.385  16.927 -0.3416  0.3726  0.4277
19986TIP3    H181449   1.177   2.364  17.019 -0.3233  0.5026  0.4555
19986TIP3    H281450   1.087   2.444  16.927  1.3379  2.5965  0.6316
19987TIP3   OH281451   3.141   1.274   2.570 -0.5915 -0.3001 -0.4391
19987TIP3    H181452   3.234   1.297   2.570 -0.7952  0.5818  1.2254
19987TIP3    H281453   3.139   1.185   2.534  0.9802 -0.5911  0.1198
19988TIP3   OH281454   3.306   1.417   0.832  0.2626  0.1508 -0.4287
19988TIP3    H181455   3.397   1.429   0.857  0.2778  1.7456 -1.1973
19988TIP3    H281456   3.260   1.400   0.915  1.1321  0.0568  0.0370
19989TIP3   OH281457   2.520   4.574   2.728  0.7567 -0.9112 -0.3035
19989TIP3    H181458   2.485   4.490   2.760 -0.5352 -0.1105  0.4491
19989TIP3    H281459   2.570   4.551   2.650 -0.5754 -2.2452 -0.7868
19990TIP3   OH281460   3.166   2.976   5.960  0.1864 -0.4924 -0.1588
19990TIP3    H181461   3.165   3.071   5.957  0.9437 -0.4400  0.8849
19990TIP3    H281462   3.182   2.955   6.052  2.8654 -1.5816 -0.8073
19991TIP3   OH281463   0.105   2.917   0.085  0.2424 -0.6995 -0.2802
19991TIP3    H181464   0.016   2.915   0.049 -0.2680 -0.2006  0.9100
19991TIP3    H281465   0.155   2.971   0.024 -1.0459  1.6504  0.6716
19992TIP3   OH281466   5.488   0.139   6.079  0.0626 -0.5643 -0.0701
19992TIP3    H181467   5.525   0.051   6.069  0.7359 -0.2888 -0.0302
19992TIP3    H281468   5.478   0.150   6.174  2.4690  0.4129  0.0902
19993TIP3   OH281469   2.605   6.636  12.767 -0.2348 -0.4006  0.4468
19993TIP3    H181470   2.563   6.552  12.790  0.7802 -0.8328  0.7264
19993TIP3    H281471   2.670   6.613  12.701 -1.3098  0.4633 -0.9387
19994TIP3   OH281472   0.392   3.029  14.564 -0.4490  0.2140 -0.3877
19994TIP3    H181473   0.454   2.966  14.527 -1.7178 -0.0275 -2.1270
19994TIP3    H281474   0.318   2.977  14.594 -1.7991  0.8936 -2.4303
19995TIP3   OH281475   3.347   1.356  12.152  0.4774 -0.1412 -0.2578
19995TIP3    H181476   3.392   1.274  12.132  0.0275 -1.0756  2.3592
19995TIP3    H281477   3.308   1.383  12.069  1.3105 -2.1515 -1.3325
19996TIP3   OH281478   1.692   4.111  16.836  0.1220 -0.0914  0.1524
19996TIP3    H181479   1.694   4.144  16.926  0.2905 -1.4945  0.6783
19996TIP3    H281480   1.600   4.092  16.819  0.1162 -0.0160  0.1000
19997TIP3   OH281481   5.097   0.011  16.015  0.5862  0.1049 -0.1478
19997TIP3    H181482   5.014   0.037  16.054  0.7584  1.1558 -0.4754
19997TIP3    H281483   5.146   0.093  16.006  2.1880 -0.6540  1.2910
19998TIP3   OH281484   4.682   0.680   3.083  0.6969 -0.0791 -0.0133
19998TIP3    H181485   4.601   0.685   3.033  0.7971 -0.2984 -0.1979
19998TIP3    H281486   4.708   0.772   3.096  0.4049 -0.0088  0.0732
19999TIP3   OH281487   5.125   4.410   4.409  0.1116  0.0966 -0.0297
19999TIP3    H181488   5.167   4.485   4.452  0.9345 -0.5152  0.2531
19999TIP3    H281489   5.145   4.336   4.466  0.5423 -0.5896 -1.0450
20000TIP3   OH281490   2.714   5.546   0.539 -0.1331  0.5054 -0.1878
20000TIP3    H181491   2.706   5.451   0.546 -0.5645  0.4788 -0.9366
20000TIP3    H281492   2.703   5.578   0.628 -1.6264 -0.0342 -0.1608
20001TIP3   OH281493   1.993   5.795   3.175 -0.1788 -0.3153  0.0462
20001TIP3    H181494   2.003   5.737   3.251  0.0039  1.3239  1.2968
20001TIP3    H281495   1.975   5.736   3.102  1.9843 -2.1090  0.9051
20002TIP3   OH281496   0.531   5.846   5.783  0.1307 -0.8034  0.0440
20002TIP3    H181497   0.460   5.835   5.719 -1.5168  2.1406  1.2995
20002TIP3    H281498   0.575   5.926   5.756 -0.3324  0.2522  2.3473
20003TIP3   OH281499   1.628   2.112   4.102  0.3871 -0.3036  0.7921
20003TIP3    H181500   1.532   2.117   4.101  0.4117  0.1941  0.0312
20003TIP3    H281501   1.656   2.201   4.122  0.6946 -0.4425  0.9816
20004TIP3   OH281502   2.490   0.917  14.414  0.0697  0.6422  0.2156
20004TIP3    H181503   2.539   0.974  14.473 -1.5184  2.0951  0.1644
20004TIP3    H281504   2.540   0.918  14.332  2.5754 -1.8082  1.6333
20005TIP3   OH281505   2.742   3.632   5.935 -0.6829 -0.4744  0.1495
20005TIP3    H181506   2.648   3.628   5.953 -0.8890 -1.0403 -1.0187
20005TIP3    H281507   2.763   3.547   5.895  0.3524 -0.4117  0.5396
20006TIP3   OH281508   6.006   3.335   4.397 -0.0618 -0.3495  0.5991
20006TIP3    H181509   5.964   3.300   4.318 -1.1011  0.4215  0.8002
20006TIP3    H281510   5.942   3.323   4.467 -0.2970  1.5363  0.7578
20007TIP3   OH281511   6.155   2.151   5.955  0.0912 -0.0815  0.0556
20007TIP3    H181512   6.223   2.177   5.893  1.4844  0.1747  1.6809
20007TIP3    H281513   6.170   2.058   5.970  0.6854  0.1815  1.1401
20008TIP3   OH281514   2.579   0.102  15.483 -0.0942 -0.3303 -0.2323
20008TIP3    H181515   2.642   0.129  15.550 -0.3834 -0.1763 -0.0265
20008TIP3    H281516   2.593   0.164  15.411  0.5992 -0.8329 -0.5411
20009TIP3   OH281517   5.302   3.979   4.514  0.1978 -0.1316 -0.3049
20009TIP3    H181518   5.388   3.976   4.557  1.0333 -0.8679 -1.9715
20009TIP3    H281519   5.269   3.890   4.521  0.0909 -0.1217 -0.6809
20010TIP3   OH281520   4.049   4.009  16.032  0.7226  0.2902 -0.0598
20010TIP3    H181521   4.027   4.093  15.991  0.8070  0.4385  0.1991
20010TIP3    H281522   4.046   3.946  15.960  1.2094  0.6066 -0.3609
20011TIP3   OH281523   1.898   1.368  16.247  0.1616 -0.1246  0.0136
20011TIP3    H181524   1.981   1.332  16.215  0.6074  0.3302  0.6517
20011TIP3    H281525   1.902   1.357  16.342 -1.8210 -2.8531 -0.1661
20012TIP3   OH281526   5.358   1.289  15.939  0.1921  0.5492  0.1442
20012TIP3    H181527   5.437   1.301  15.991 -0.7420  1.5025  1.3864
20012TIP3    H281528   5.312   1.372  15.945 -1.3116 -0.2576  0.1652
20013TIP3   OH281529   1.199   3.770   0.396  0.2132 -0.2728 -0.0120
20013TIP3    H181530   1.122   3.797   0.447 -0.4575 -0.0044 -1.1339
20013TIP3    H281531   1.250   3.716   0.456 -1.1225 -0.8937  0.5988
20014TIP3   OH281532   0.155   1.243  12.346 -0.4425  0.9254 -0.3681
20014TIP3    H181533   0.191   1.322  12.387  0.0458  1.2152 -1.3428
20014TIP3    H281534   0.065   1.265  12.324 -0.0064  1.5497 -1.5390
20015TIP3   OH281535   6.727   4.425   3.403  0.2718  0.2136  0.5319
20015TIP3    H181536   6.803   4.378   3.370 -0.9644 -0.6317 -1.2076
20015TIP3    H281537   6.734   4.512   3.366 -0.5297 -0.4067 -1.1508
20016TIP3   OH281538   5.944   4.359   4.465  0.9484 -0.6167  0.5171
20016TIP3    H181539   5.863   4.335   4.510  0.4835 -0.9829 -0.5120
20016TIP3    H281540   5.958   4.450   4.489  1.3347 -1.1227  2.3502
20017TIP3   OH281541   3.875   6.314   3.931 -0.8235 -0.1099  0.1070
20017TIP3    H181542   3.828   6.283   4.008 -1.4034  3.5163  1.3323
20017TIP3    H281543   3.960   6.343   3.965 -1.0057  1.3252 -0.6196
20018TIP3   OH281544   1.604   3.275  10.574  0.5922 -0.2755 -0.0079
20018TIP3    H181545   1.570   3.303  10.659 -1.2067  0.8741 -1.0885
20018TIP3    H281546   1.528   3.274  10.516  1.5090 -2.5812 -1.2461
20019TIP3   OH281547   2.275   5.793   3.483  0.4789  0.7862 -0.0658
20019TIP3    H181548   2.184   5.800   3.512  0.8315 -0.6532  1.4697
20019TIP3    H281549   2.285   5.702   3.455  1.7515  0.5861  0.9560
20020TIP3   OH281550   3.467   6.028  14.197 -0.3624 -0.2335 -0.1822
20020TIP3    H181551   3.550   5.993  14.227 -0.0756 -2.7866 -3.6440
20020TIP3    H281552   3.486   6.119  14.173  0.5615  0.2593  2.2979
20021TIP3   OH281553   0.385   0.882  14.403  0.4101  0.3443 -0.0696
20021TIP3    H181554   0.295   0.884  14.371  0.2776  0.2374  0.3021
20021TIP3    H281555   0.416   0.794  14.381  0.0023 -0.0659  0.9708
20022TIP3   OH281556   0.836   5.493   5.019  0.2921 -0.0852 -0.1767
20022TIP3    H181557   0.851   5.400   5.039 -0.1534 -0.4733 -1.6108
20022TIP3    H281558   0.778   5.492   4.944 -0.3639  1.3841  0.3034
20023TIP3   OH281559   5.797   3.253   5.954  0.4558  0.5557  0.3109
20023TIP3    H181560   5.886   3.262   5.919  0.9218  0.6888  1.4812
20023TIP3    H281561   5.798   3.307   6.034 -0.8773  1.1012 -0.0263
20024TIP3   OH281562   0.305   0.915  14.674 -0.0494 -0.2494 -0.2664
20024TIP3    H181563   0.241   0.854  14.638 -0.9719  1.2564 -1.2145
20024TIP3    H281564   0.345   0.957  14.598 -0.5096  1.4222  0.3862
20025TIP3   OH281565   4.568   0.940   5.907  0.6087  0.1091 -0.0592
20025TIP3    H181566   4.647   0.893   5.932  1.0626  1.0312  0.2741
20025TIP3    H281567   4.513   0.874   5.866  0.9929 -0.8390  0.9067
20026TIP3   OH281568   4.935   2.385  15.818 -0.2588  0.9036 -0.0287
20026TIP3    H181569   4.988   2.458  15.849  0.7980  0.4944 -0.8380
20026TIP3    H281570   4.887   2.420  15.743  0.3214  0.7385 -0.4762
20027TIP3   OH281571   0.570   6.375  12.376  0.1945  0.1716  0.0758
20027TIP3    H181572   0.475   6.381  12.379  0.2426  0.3446  2.1832
20027TIP3    H281573   0.596   6.436  12.307 -1.2018  0.3875 -0.2663
20028TIP3   OH281574   1.667   0.554  12.635 -0.2347  0.1731  0.1592
20028TIP3    H181575   1.594   0.603  12.672  1.3353  1.0330  2.2183
20028TIP3    H281576   1.708   0.615  12.574  1.7524  1.5349  2.7613
20029TIP3   OH281577   6.694   1.389   1.521  0.2400  0.4752  0.0494
20029TIP3    H181578   6.783   1.424   1.516  0.1495  0.7653  0.4242
20029TIP3    H281579   6.695   1.334   1.599 -0.2024  1.3312  0.6680
20030TIP3   OH281580   3.188   0.122   0.640  0.7772 -1.2842  0.0507
20030TIP3    H181581   3.173   0.116   0.734  0.3290  1.1060  0.1800
20030TIP3    H281582   3.101   0.136   0.602  1.1893  0.0767 -0.4550
20031TIP3   OH281583   2.722   4.398  14.504 -0.5189 -0.0412 -0.6892
20031TIP3    H181584   2.791   4.464  14.507 -1.1486  0.5629  1.6322
20031TIP3    H281585   2.766   4.316  14.525 -0.2362  0.1248 -0.6257
20032TIP3   OH281586   5.025   1.904   5.749  0.2048 -0.7336  0.3998
20032TIP3    H181587   5.094   1.941   5.693 -0.5437 -0.7997 -0.5841
20032TIP3    H281588   5.018   1.966   5.821  1.4136 -0.8135  0.6016
20033TIP3   OH281589   2.421   3.947  14.030 -0.0364 -0.5982 -0.1937
20033TIP3    H181590   2.418   3.852  14.030  1.8041 -0.6831  2.2156
20033TIP3    H281591   2.514   3.969  14.022 -0.4884  1.0362 -1.5193
20034TIP3   OH281592   3.236   4.251  13.388 -0.6496 -0.2390 -0.2813
20034TIP3    H181593   3.266   4.239  13.298 -0.5076  0.6735 -0.3603
20034TIP3    H281594   3.146   4.218  13.389 -0.4169 -0.8853 -0.5916
20035TIP3   OH281595   0.044   5.625  15.210 -0.1728 -0.2651  0.0369
20035TIP3    H181596   0.118   5.613  15.269 -1.1493  0.4224  1.4093
20035TIP3    H281597   0.025   5.718  15.214  0.1814 -0.0853 -1.9079
20036TIP3   OH281598   1.762   4.271   0.180 -0.3497  0.0082  0.2941
20036TIP3    H181599   1.801   4.344   0.133  2.5028 -0.1500  2.3212
20036TIP3    H281600   1.786   4.194   0.129  0.5388  0.0738  0.6082
20037TIP3   OH281601   3.223   4.192   1.200 -0.5510 -0.9233  0.6322
20037TIP3    H181602   3.267   4.258   1.254 -1.8437 -0.7676  1.5019
20037TIP3    H281603   3.139   4.178   1.242 -2.3174  0.4475 -2.2905
20038TIP3   OH281604   6.005   4.990  10.543 -0.2140  0.4234 -0.2404
20038TIP3    H181605   5.938   4.935  10.502  0.6037 -0.1038 -0.8960
20038TIP3    H281606   6.081   4.981  10.485  1.2034 -0.9041  1.7988
20039TIP3   OH281607   6.552   3.362  15.823  0.1967  0.4419 -0.1603
20039TIP3    H181608   6.485   3.298  15.798  0.6988  0.5355 -1.7586
20039TIP3    H281609   6.628   3.310  15.847  0.6272  0.4111 -1.5230
20040TIP3   OH281610   6.688   1.872  11.958 -0.7779 -0.0147  0.3783
20040TIP3    H181611   6.688   1.955  11.910  0.0389 -0.5705 -0.6046
20040TIP3    H281612   6.776   1.866  11.996 -0.3835 -1.0532 -0.6748
20041TIP3   OH281613   6.534   3.622  15.694 -0.8241  0.3388 -0.1878
20041TIP3    H181614   6.556   3.532  15.718 -0.6075  0.6485  0.8062
20041TIP3    H281615   6.606   3.674  15.730 -1.9026  1.0995  0.8928
20042TIP3   OH281616   0.516   1.182   2.388  0.1965  0.1477  0.2721
20042TIP3    H181617   0.428   1.165   2.354 -0.5062  0.3829  1.9265
20042TIP3    H281618   0.558   1.096   2.390  0.2428  0.1340 -1.1709
20043TIP3   OH281619   3.570   0.206   1.106 -0.1711  0.2107  0.0644
20043TIP3    H181620   3.652   0.245   1.075  0.2277 -1.3643 -0.8898
20043TIP3    H281621   3.592   0.172   1.193  0.0829  0.1551 -0.0195
20044TIP3   OH281622   5.940   4.964   0.745 -0.3367 -0.2199  0.5130
20044TIP3    H181623   5.976   5.000   0.664  1.0685 -0.3196  1.0921
20044TIP3    H281624   5.847   4.949   0.725 -0.1522  0.3982 -0.8539
20045TIP3   OH281625   3.613   3.928   3.810 -0.0138 -0.1829 -0.7381
20045TIP3    H181626   3.617   3.967   3.897 -0.4527 -2.4987  0.3356
20045TIP3    H281627   3.684   3.864   3.808 -0.5611 -0.7720 -1.7728
20046TIP3   OH281628   5.110   3.154   3.277 -0.3855 -0.1025 -0.0955
20046TIP3    H181629   5.029   3.164   3.228 -0.1902  5.2363  0.4171
20046TIP3    H281630   5.091   3.190   3.364  2.1963  0.2035  0.4016
20047TIP3   OH281631   6.763   1.432   3.538 -0.5550 -0.1982 -0.0436
20047TIP3    H181632   6.752   1.379   3.460 -1.6231  0.3120 -0.2536
20047TIP3    H281633   6.708   1.509   3.523  0.7542  0.8408  0.3705
20048TIP3   OH281634   0.911   5.762  15.647  0.0617 -0.5356  0.7452
20048TIP3    H181635   0.877   5.803  15.727 -0.4217 -2.1060  1.3604
20048TIP3    H281636   0.903   5.830  15.580 -1.7573  0.0291  1.4966
20049TIP3   OH281637   5.128   4.767  16.421 -0.3200 -0.4489 -0.1184
20049TIP3    H181638   5.090   4.848  16.455  0.4111  0.1032 -0.5994
20049TIP3    H281639   5.123   4.777  16.326  1.0602 -0.3491 -0.1840
20050TIP3   OH281640   4.729   2.723  16.122  0.7115 -0.7857 -0.5613
20050TIP3    H181641   4.815   2.685  16.108  1.8210  1.4054  0.0318
20050TIP3    H281642   4.746   2.802  16.174 -1.6366 -0.2881 -0.4877
20051TIP3   OH281643   5.435   4.248   2.812 -0.4713 -0.0337  0.4699
20051TIP3    H181644   5.355   4.222   2.855 -0.9215  1.8133  0.8056
20051TIP3    H281645   5.475   4.312   2.871  1.3204 -1.0410  0.3798
20052TIP3   OH281646   5.297   5.797   0.610  0.0534  0.2820 -0.6388
20052TIP3    H181647   5.347   5.857   0.553  0.7419  0.3260 -0.0074
20052TIP3    H281648   5.225   5.850   0.643  1.4823  1.2319  1.0753
20053TIP3   OH281649   1.109   3.234  14.804  0.2533  0.3252 -0.3272
20053TIP3    H181650   1.065   3.264  14.724  0.2658  0.3935 -0.3085
20053TIP3    H281651   1.037   3.212  14.864  0.2446  1.1722 -0.0192
20054TIP3   OH281652   0.748   1.840   0.740  0.0274  0.1995 -0.0429
20054TIP3    H181653   0.655   1.863   0.741  0.2214  1.0015  0.0526
20054TIP3    H281654   0.750   1.745   0.756 -0.8173  0.0138 -1.0349
20055TIP3   OH281655   0.248   0.374   4.061  0.6542 -0.4819  0.6346
20055TIP3    H181656   0.219   0.286   4.085  0.4709 -0.5439  0.2041
20055TIP3    H281657   0.275   0.366   3.969  0.2361  0.0015  0.4660
20056TIP3   OH281658   4.717   5.531  12.320  0.3378  0.0017 -0.0172
20056TIP3    H181659   4.736   5.597  12.387  0.3706  0.6254 -0.6366
20056TIP3    H281660   4.642   5.565  12.272  1.0426  0.1319 -1.0525
20057TIP3   OH281661   5.245   3.041  10.911 -0.0666 -0.3915 -0.1045
20057TIP3    H181662   5.340   3.056  10.913 -0.1183 -0.0869 -0.0129
20057TIP3    H281663   5.226   2.997  10.994 -0.5415  2.6691  1.4712
20058TIP3   OH281664   3.868   1.955  17.127  0.0271  0.1169  0.3451
20058TIP3    H181665   3.833   1.884  17.074 -0.9433  1.4311 -0.8426
20058TIP3    H281666   3.845   1.932  17.217 -1.7457 -0.2649 -0.1891
20059TIP3   OH281667   0.503   4.209  11.790 -0.0356 -0.0169 -0.2384
20059TIP3    H181668   0.523   4.119  11.766 -0.3493  0.4374 -2.2908
20059TIP3    H281669   0.567   4.231  11.859  1.1844 -1.2066 -0.9761
20060TIP3   OH281670   2.863   6.145   6.440  0.2173  0.3385  0.3219
20060TIP3    H181671   2.908   6.061   6.427  1.2181  0.8005  0.8316
20060TIP3    H281672   2.802   6.150   6.366 -0.5008 -1.2542  0.7661
20061TIP3   OH281673   1.129   6.699   4.624  0.2102  1.2264 -0.1878
20061TIP3    H181674   1.135   6.762   4.552 -0.7722 -0.2658 -1.6178
20061TIP3    H281675   1.212   6.708   4.671  1.7252  0.8705 -2.6676
20062TIP3   OH281676   3.260   3.201  13.867  0.1467  0.5622 -0.3449
20062TIP3    H181677   3.349   3.227  13.844  0.0039  2.4423  1.0458
20062TIP3    H281678   3.268   3.157  13.952 -0.0095 -1.1228 -1.1932
20063TIP3   OH281679   2.808   3.007   2.218  0.1474 -0.2729  0.2083
20063TIP3    H181680   2.749   2.932   2.219 -0.6022  0.3068 -0.0774
20063TIP3    H281681   2.896   2.969   2.216 -0.2475 -1.1551 -1.2087
20064TIP3   OH281682   2.950   0.625  11.274  0.1774 -0.7599  0.3667
20064TIP3    H181683   2.989   0.693  11.219 -3.1452  1.0613  0.1080
20064TIP3    H281684   2.990   0.544  11.243  1.2271  0.6426 -2.1590
20065TIP3   OH281685   4.621   2.743   2.002 -0.0843  0.4992 -0.6994
20065TIP3    H181686   4.711   2.771   2.019  0.5666 -0.7821 -2.0294
20065TIP3    H281687   4.578   2.748   2.088  2.1818 -2.2988  0.6815
20066TIP3   OH281688   6.610   2.302   4.433 -0.7013  0.1895  0.1312
20066TIP3    H181689   6.650   2.388   4.443  2.1308 -1.1571  1.2598
20066TIP3    H281690   6.626   2.278   4.342  0.2212  0.1017  0.3044
20067TIP3   OH281691   4.201   3.878   2.378 -0.2264 -0.7693 -0.2475
20067TIP3    H181692   4.117   3.886   2.424 -1.0973 -1.4053 -1.6968
20067TIP3    H281693   4.235   3.793   2.404 -0.4006 -0.8461 -0.2731
20068TIP3   OH281694   5.425   1.787  12.020 -0.1967  0.0950  0.0905
20068TIP3    H181695   5.382   1.760  11.938  0.2484 -2.6970  0.7339
20068TIP3    H281696   5.518   1.792  11.997 -0.2950  1.4029 -0.0790
20069TIP3   OH281697   0.674   3.104   2.176 -0.1098 -0.2789 -0.3400
20069TIP3    H181698   0.680   3.033   2.240 -1.0364  0.7938  0.9917
20069TIP3    H281699   0.604   3.077   2.117 -0.3665 -0.5403  0.0804
20070TIP3   OH281700   3.373   0.424  10.788 -0.2253  0.5805 -0.4308
20070TIP3    H181701   3.300   0.404  10.847  0.2757 -1.6132 -0.4907
20070TIP3    H281702   3.420   0.495  10.830 -0.6011 -0.1173  1.2091
20071TIP3   OH281703   5.653   4.133   5.728  0.4394 -0.2734 -0.0341
20071TIP3    H181704   5.629   4.042   5.711 -1.2574  0.0422  0.6341
20071TIP3    H281705   5.586   4.184   5.683  2.1525  0.6950 -1.5733
20072TIP3   OH281706   4.054   0.619  11.864 -0.0245 -0.0801 -0.4259
20072TIP3    H181707   4.146   0.610  11.890 -0.3118  1.1472  1.1307
20072TIP3    H281708   4.027   0.530  11.842  1.1927 -0.6602  0.3104
20073TIP3   OH281709   5.669   1.144  14.653 -0.0782 -0.7379 -0.1655
20073TIP3    H181710   5.659   1.103  14.739 -0.3587 -3.3126 -1.3657
20073TIP3    H281711   5.705   1.231  14.671  1.0913 -1.7256  2.4566
20074TIP3   OH281712   3.962   3.143  11.872  0.0076  0.6565  0.1780
20074TIP3    H181713   3.901   3.133  11.800 -1.8235  2.9328  1.3233
20074TIP3    H281714   3.910   3.180  11.943  2.3697  1.1642  1.7302
20075TIP3   OH281715   6.300   6.404  14.715  0.0244 -0.0781  0.1210
20075TIP3    H181716   6.352   6.357  14.650  1.3819  1.9765 -0.3425
20075TIP3    H281717   6.217   6.356  14.719  0.4883 -1.1221 -2.0152
20076TIP3   OH281718   0.701   2.640  12.200 -0.1137 -0.5623 -0.4641
20076TIP3    H181719   0.726   2.639  12.108  0.0907  2.6002 -0.4920
20076TIP3    H281720   0.613   2.678  12.200  0.9421  1.9323  0.8433
20077TIP3   OH281721   6.108   1.849  16.060  0.1233 -0.0493 -0.0206
20077TIP3    H181722   6.124   1.768  16.108  1.1318  1.0471  1.5509
20077TIP3    H281723   6.013   1.851  16.047 -0.3595  0.1955  3.0313
20078TIP3   OH281724   3.230   4.473   2.541 -0.4999  0.3873  0.0057
20078TIP3    H181725   3.276   4.393   2.565 -0.8961 -0.0899 -0.8036
20078TIP3    H281726   3.269   4.541   2.597  1.9984  0.2026 -1.4113
20079TIP3   OH281727   5.434   4.434  17.207  0.0974  0.1671 -0.4981
20079TIP3    H181728   5.514   4.443  17.156 -0.9082  2.1107 -1.8321
20079TIP3    H281729   5.371   4.396  17.146 -0.5782  0.6882 -0.1382
20080TIP3   OH281730   2.066   4.171  16.431 -0.2453 -0.3217  0.4578
20080TIP3    H181731   1.995   4.147  16.489 -0.2000 -0.4037  0.4789
20080TIP3    H281732   2.072   4.099  16.368 -0.8132  0.1381 -0.1334
20081TIP3   OH281733   5.094   6.452  12.317 -0.7328 -0.0435  0.3429
20081TIP3    H181734   5.161   6.456  12.249 -1.3690 -0.2044 -0.3033
20081TIP3    H281735   5.135   6.405  12.389 -0.3074 -0.5723 -0.2408
20082TIP3   OH281736   4.469   4.706  13.965  0.7581  0.1626 -0.1557
20082TIP3    H181737   4.556   4.667  13.973  0.8765  0.6210  0.8641
20082TIP3    H281738   4.430   4.662  13.890  0.6136 -2.4513  1.4101
20083TIP3   OH281739   2.400   4.457  12.283 -0.1026 -0.0604  0.3193
20083TIP3    H181740   2.379   4.541  12.242 -0.3384 -0.1603  0.2318
20083TIP3    H281741   2.417   4.397  12.210 -0.4500 -0.2188  0.3650
20084TIP3   OH281742   6.058   2.609  16.179  0.8631  0.4708 -1.1452
20084TIP3    H181743   6.152   2.626  16.173  1.0450 -0.9898 -2.3941
20084TIP3    H281744   6.046   2.521  16.145 -0.7296 -0.0882  0.7735
20085TIP3   OH281745   3.031   1.728   3.078  0.6049  0.0723 -0.3745
20085TIP3    H181746   3.093   1.792   3.044  0.1376  1.0644  0.5986
20085TIP3    H281747   2.954   1.780   3.103 -2.1580 -1.4737 -4.9828
20086TIP3   OH281748   4.344   5.500  14.043  0.2234 -0.2485 -0.0622
20086TIP3    H181749   4.364   5.493  14.136 -0.3853 -1.5396 -0.0193
20086TIP3    H281750   4.249   5.490  14.038 -0.0947  2.7199 -0.5566
20087TIP3   OH281751   4.026   5.929   1.516  0.1045  0.3353  0.5593
20087TIP3    H181752   4.048   6.014   1.554 -0.4227  0.2050  1.1652
20087TIP3    H281753   3.993   5.949   1.428  0.2997  0.7305  0.5780
20088TIP3   OH281754   2.560   6.061   2.646 -0.7433  0.0400 -0.1427
20088TIP3    H181755   2.476   6.085   2.608 -0.4727  0.5593 -0.4141
20088TIP3    H281756   2.537   6.012   2.725 -1.2982 -0.0527 -0.3602
20089TIP3   OH281757   3.073   6.819   0.035  0.6333 -0.1652  0.0384
20089TIP3    H181758   3.128   6.740   0.032 -0.3076 -0.9462  2.0663
20089TIP3    H281759   2.991   6.789   0.075 -0.0646  1.6720  0.0215
20090TIP3   OH281760   4.163   1.381  16.881 -0.2354  0.1175 -0.3341
20090TIP3    H181761   4.230   1.384  16.813  1.4370  0.6888  1.2990
20090TIP3    H281762   4.186   1.304  16.934  1.6915  2.6160  2.7059
20091TIP3   OH281763   6.115   1.022   2.974 -0.1137  0.5133 -0.5960
20091TIP3    H181764   6.097   0.937   3.012 -0.6723  0.0215 -1.9161
20091TIP3    H281765   6.200   1.048   3.011 -0.0330 -0.5192 -0.0457
20092TIP3   OH281766   1.835   0.829  13.756  0.5443 -0.1625  0.3368
20092TIP3    H181767   1.849   0.893  13.825 -1.7096 -1.1222  1.7422
20092TIP3    H281768   1.923   0.808  13.724  1.4988  1.5080  1.7734
20093TIP3   OH281769   1.291   0.591  12.691  0.3016  0.4177  0.4227
20093TIP3    H181770   1.313   0.644  12.615 -0.1583 -0.0410 -0.0302
20093TIP3    H281771   1.205   0.622  12.718  0.3667  0.4260  0.6277
20094TIP3   OH281772   3.661   2.785   3.822  0.0214 -0.2731  0.1707
20094TIP3    H181773   3.645   2.694   3.849 -1.4047 -0.0562  0.0772
20094TIP3    H281774   3.735   2.779   3.762  1.9042 -1.0053  2.5040
20095TIP3   OH281775   2.219   6.687  15.421 -0.2262 -0.0480  0.2867
20095TIP3    H181776   2.301   6.687  15.469 -0.1250  0.6430  0.1157
20095TIP3    H281777   2.168   6.757  15.460 -0.4556 -0.0075 -0.0831
20096TIP3   OH281778   1.821   1.242  13.767  0.1037  0.0330  0.1316
20096TIP3    H181779   1.751   1.289  13.721  0.5475 -1.1503 -1.8011
20096TIP3    H281780   1.873   1.202  13.697  2.6420  0.7739  1.5382
20097TIP3   OH281781   6.372   5.888   5.544  0.0249 -0.2167 -0.1897
20097TIP3    H181782   6.462   5.899   5.513  0.0779 -1.5369 -0.5398
20097TIP3    H281783   6.350   5.798   5.521 -0.2653 -0.9428  2.7793
20098TIP3   OH281784   3.646   2.169  10.552 -0.2838  0.2372  0.0866
20098TIP3    H181785   3.713   2.176  10.620  0.1428 -0.1730 -0.2922
20098TIP3    H281786   3.568   2.209  10.592  0.8968  3.1606 -0.4427
20099TIP3   OH281787   3.972   3.485  11.976  0.0210 -0.3020  0.1847
20099TIP3    H181788   4.022   3.458  11.899 -0.2235 -2.1154  0.6598
20099TIP3    H281789   3.881   3.463  11.955  0.1376 -2.2104  1.5753
20100TIP3   OH281790   5.636   6.375   0.756  0.1927 -0.4382  0.4984
20100TIP3    H181791   5.718   6.397   0.801  0.3860  1.9973 -0.9490
20100TIP3    H281792   5.664   6.344   0.670 -0.3611 -1.0985  0.5526
20101TIP3   OH281793   3.621   3.098  15.135 -0.0942 -0.1307  0.7966
20101TIP3    H181794   3.569   3.020  15.117  0.3262 -0.1766 -0.2538
20101TIP3    H281795   3.576   3.168  15.088 -0.4792  0.2771  1.7451
20102TIP3   OH281796   3.816   0.736   1.950 -0.4977 -0.3892 -0.1818
20102TIP3    H181797   3.855   0.653   1.922  0.5490  0.4576 -1.3106
20102TIP3    H281798   3.737   0.711   1.998 -0.0794 -2.0412 -0.3253
20103TIP3   OH281799   4.059   0.154  14.057  0.1477 -0.0142  0.3041
20103TIP3    H181800   3.968   0.126  14.058  0.4931 -1.1546  0.2046
20103TIP3    H281801   4.087   0.139  13.966  0.2556  0.9468  0.1686
20104TIP3   OH281802   0.748   6.129   2.503 -0.2953  0.0823 -0.2208
20104TIP3    H181803   0.721   6.176   2.582  1.6057  0.8813 -0.0044
20104TIP3    H281804   0.774   6.199   2.442  0.3876 -0.6025 -0.7242
20105TIP3   OH281805   4.218   2.497   2.915  0.3113  0.4359 -0.2582
20105TIP3    H181806   4.186   2.536   2.834 -0.1465  1.2128  0.2861
20105TIP3    H281807   4.268   2.567   2.957  0.7503 -0.0388  0.0133
20106TIP3   OH281808   0.041   5.568   2.907 -0.0372  0.0541  0.1559
20106TIP3    H181809   0.069   5.654   2.938 -0.0989 -0.3393  1.3188
20106TIP3    H281810  -0.022   5.587   2.837  1.0487  0.9406 -0.5827
20107TIP3   OH281811   2.463   5.508   2.671  0.2455  0.5425 -0.2481
20107TIP3    H181812   2.553   5.487   2.647  0.9085  0.3690  2.1901
20107TIP3    H281813   2.454   5.602   2.652  0.3099  0.1365 -2.3068
20108TIP3   OH281814   1.995   5.744  16.987 -0.3015 -0.3187 -0.0881
20108TIP3    H181815   1.988   5.807  16.916 -3.4101 -2.0113 -1.3821
20108TIP3    H281816   1.970   5.660  16.947 -1.2726 -1.4560  2.7791
20109TIP3   OH281817   1.269   5.889  15.531  0.1574 -0.8537 -0.3206
20109TIP3    H181818   1.312   5.919  15.451  1.4828 -1.5960  0.0953
20109TIP3    H281819   1.211   5.819  15.501 -1.6512  0.9088 -1.0427
20110TIP3   OH281820   4.423   6.806  13.829 -0.1932  0.0964  0.5421
20110TIP3    H181821   4.330   6.813  13.850  0.2295 -0.5301  2.8145
20110TIP3    H281822   4.466   6.796  13.914  1.9682  0.4608 -0.4585
20111TIP3   OH281823   2.434   6.264  16.915  0.7519  0.0088 -0.0416
20111TIP3    H181824   2.375   6.236  16.845  1.4886  2.0277 -1.5115
20111TIP3    H281825   2.381   6.259  16.995 -1.2489  1.2447 -1.2537
20112TIP3   OH281826   2.295   4.712   4.775 -0.0770  0.1912 -0.7062
20112TIP3    H181827   2.250   4.629   4.790  0.8881 -0.3107 -0.5346
20112TIP3    H281828   2.226   4.778   4.777 -0.5851 -0.3484  1.5271
20113TIP3   OH281829   1.525   5.630   0.819  0.0334  0.1524  0.1610
20113TIP3    H181830   1.470   5.551   0.816  0.0168  0.2068 -1.4881
20113TIP3    H281831   1.508   5.674   0.736  0.4524  1.6314  0.8465
20114TIP3   OH281832   3.319   4.215   3.365 -0.5446  0.0410 -0.6374
20114TIP3    H181833   3.370   4.138   3.389 -0.3798 -0.2652 -1.9239
20114TIP3    H281834   3.335   4.226   3.271 -1.6753  0.8243 -0.7468
20115TIP3   OH281835   5.748   3.975   1.312  0.0937  0.4517 -0.4553
20115TIP3    H181836   5.776   3.981   1.221 -3.3969 -0.2639 -1.6588
20115TIP3    H281837   5.741   3.881   1.329 -0.6310  0.6033  0.1069
20116TIP3   OH281838   3.164   5.556  12.280  0.2159 -0.3206 -0.0120
20116TIP3    H181839   3.172   5.651  12.267 -0.6159 -0.6838 -3.6650
20116TIP3    H281840   3.072   5.537  12.266  0.7714 -1.9547 -1.6149
20117TIP3   OH281841   0.858   6.555  14.211  0.4898  0.0926  0.6666
20117TIP3    H181842   0.766   6.530  14.223  0.1987  0.4323 -0.7580
20117TIP3    H281843   0.901   6.477  14.177 -0.1703  1.0737 -2.6370
20118TIP3   OH281844   2.200   0.597   6.532 -0.2433 -0.5425 -0.0502
20118TIP3    H181845   2.196   0.587   6.437  0.0236  1.2997 -0.2917
20118TIP3    H281846   2.227   0.512   6.565 -1.9266 -1.6584 -1.4936
20119TIP3   OH281847   3.995   5.320  16.611  0.0689  0.2813 -0.6429
20119TIP3    H181848   3.946   5.400  16.626  1.0104  0.7028  0.2700
20119TIP3    H281849   3.975   5.265  16.687 -1.0260 -0.5892 -1.5476
20120TIP3   OH281850   1.420   3.421   5.560  0.7958 -0.3630 -0.0906
20120TIP3    H181851   1.362   3.413   5.636  0.1634  2.6382 -0.1694
20120TIP3    H281852   1.506   3.396   5.593 -0.0466 -2.2030  0.7611
20121TIP3   OH281853   0.004   1.489  17.112  0.2626 -0.0327 -0.5672
20121TIP3    H181854  -0.090   1.476  17.118  0.4634 -1.3691 -0.0657
20121TIP3    H281855   0.023   1.479  17.018  0.2443 -2.4388 -0.3518
20122TIP3   OH281856   0.317   5.226  14.549  0.3520 -0.0304  0.6302
20122TIP3    H181857   0.377   5.189  14.613  0.0609 -0.4179  0.6792
20122TIP3    H281858   0.331   5.321  14.554 -0.2790  0.0094  1.8722
20123TIP3   OH281859   2.925   0.640  15.183 -0.2208 -0.0812  0.1129
20123TIP3    H181860   2.885   0.572  15.237 -0.6952 -0.7808 -1.0742
20123TIP3    H281861   2.851   0.686  15.144  0.1016  1.1044  0.8908
20124TIP3   OH281862   4.161   2.173  12.701 -0.1582  0.1741  0.2316
20124TIP3    H181863   4.254   2.169  12.680 -0.0787  2.3716  0.0141
20124TIP3    H281864   4.156   2.145  12.793  0.6018 -0.8763 -0.0469
20125TIP3   OH281865   6.027   1.790  17.221 -0.3796  0.2779 -0.3455
20125TIP3    H181866   6.026   1.714  17.162 -0.0771  1.5516 -2.0307
20125TIP3    H281867   5.974   1.856  17.176  1.7161  2.0488 -0.2800
20126TIP3   OH281868   4.707   3.457   2.307 -0.3831 -0.0304 -0.3000
20126TIP3    H181869   4.739   3.381   2.259 -0.3522  0.0554 -0.4156
20126TIP3    H281870   4.613   3.442   2.318  0.0873 -1.4953  2.2192
20127TIP3   OH281871   2.571   1.912  17.118 -0.3160 -0.2955 -0.5512
20127TIP3    H181872   2.643   1.887  17.177  0.5811  0.9666 -1.0931
20127TIP3    H281873   2.614   1.928  17.034 -1.2743  0.1896 -0.9487
20128TIP3   OH281874   5.723   0.970   5.015 -1.1665  0.6977 -0.1356
20128TIP3    H181875   5.789   0.980   5.084  0.2553  3.3053 -1.8071
20128TIP3    H281876   5.763   0.908   4.954 -1.6498 -0.2069  0.4598
20129TIP3   OH281877   4.753   0.487   1.646  0.1606 -0.4158  0.4756
20129TIP3    H181878   4.819   0.426   1.615  0.9113  0.0596  1.1299
20129TIP3    H281879   4.688   0.489   1.575  0.0053 -2.1338  0.5512
20130TIP3   OH281880   1.512   3.997   2.863  0.2223 -0.1642 -0.2199
20130TIP3    H181881   1.484   4.006   2.953  0.4186  0.1594 -0.1891
20130TIP3    H281882   1.538   3.905   2.854 -0.2214 -0.2996 -0.0726
20131TIP3   OH281883   0.321   2.199  14.136  0.3320  0.6179  0.7422
20131TIP3    H181884   0.250   2.172  14.194  2.0139 -0.8891  2.1481
20131TIP3    H281885   0.358   2.117  14.105  1.3116  1.4002 -0.1740
20132TIP3   OH281886   2.171   0.737  12.411  0.6610  0.1026 -0.0266
20132TIP3    H181887   2.240   0.692  12.362 -0.4149 -2.2866  0.5818
20132TIP3    H281888   2.099   0.674  12.414 -1.1957  2.1839  0.1939
20133TIP3   OH281889   6.748   2.487   0.112 -0.0702  0.4375  0.1752
20133TIP3    H181890   6.713   2.399   0.125  0.3841  0.3800  0.9983
20133TIP3    H281891   6.723   2.509   0.022 -0.4461 -0.4107  0.0661
20134TIP3   OH281892   3.285   5.291   3.981 -0.1568  0.1047 -0.2677
20134TIP3    H181893   3.192   5.282   3.960 -0.2442  0.5199 -0.0704
20134TIP3    H281894   3.305   5.216   4.037 -0.6516  0.6441  0.6373
20135TIP3   OH281895   5.837   6.536   6.047  0.3991 -0.0730 -0.1481
20135TIP3    H181896   5.800   6.610   6.095  1.5199  0.6323 -0.3599
20135TIP3    H281897   5.914   6.511   6.097  2.4885  1.6638 -2.3330
20136TIP3   OH281898   6.268   2.110  12.960 -0.8857  0.5694 -0.0084
20136TIP3    H181899   6.317   2.069  13.032 -0.2560 -1.6994 -1.6859
20136TIP3    H281900   6.297   2.202  12.961  1.1029 -0.0474  0.9737
20137TIP3   OH281901   0.997   3.091   4.099 -0.2586 -0.5369  0.2475
20137TIP3    H181902   0.953   3.123   4.020  0.8611 -0.1455 -0.2215
20137TIP3    H281903   0.954   3.137   4.171 -1.7966 -1.4474 -0.0505
20138TIP3   OH281904   2.866   1.783  11.424  0.1566  0.1144  0.2363
20138TIP3    H181905   2.787   1.838  11.423  0.0598 -0.0275  0.0965
20138TIP3    H281906   2.899   1.787  11.334 -0.7896 -1.4069 -0.2001
20139TIP3   OH281907   6.117   2.593  14.387 -0.4126 -0.6410 -0.4239
20139TIP3    H181908   6.198   2.632  14.351 -0.2297  0.3175  0.9791
20139TIP3    H281909   6.074   2.555  14.311  2.4172 -3.1252 -0.8860
20140TIP3   OH281910   6.283   1.622  12.307 -0.1555  0.0925  0.0382
20140TIP3    H181911   6.349   1.604  12.240 -1.7773 -1.2810 -1.2278
20140TIP3    H281912   6.225   1.547  12.304 -2.3843  1.7466  0.4018
20141TIP3   OH281913   0.172   3.291  16.417 -0.3017  0.4363  0.0823
20141TIP3    H181914   0.105   3.353  16.388  1.6166  2.0887 -0.9497
20141TIP3    H281915   0.253   3.341  16.413  1.0142 -1.5685  1.2126
20142TIP3   OH281916   5.522   6.380   4.721 -0.2721 -0.0292 -0.8355
20142TIP3    H181917   5.547   6.442   4.789  1.5345 -0.9474 -0.6253
20142TIP3    H281918   5.439   6.342   4.752 -0.7149  1.3269 -0.3477
20143TIP3   OH281919   0.292   2.366   0.798  0.6533 -0.4342  0.8509
20143TIP3    H181920   0.297   2.460   0.814  1.2980 -0.5373  1.2497
20143TIP3    H281921   0.207   2.354   0.756  1.4675  0.6232 -1.2070
20144TIP3   OH281922   3.693   3.845  13.531  0.4004  1.1278  0.2529
20144TIP3    H181923   3.627   3.777  13.546  0.1639  1.2018 -0.4616
20144TIP3    H281924   3.748   3.842  13.610  0.8764 -0.4430 -0.0987
20145TIP3   OH281925   0.562   2.879  14.427  0.1873 -0.0431  0.3874
20145TIP3    H181926   0.547   2.868  14.333  0.3734  0.4671  0.2948
20145TIP3    H281927   0.592   2.793  14.457  2.5970  0.4362 -0.5220
20146TIP3   OH281928   5.104   1.066   2.440 -0.1530  0.0422 -0.0437
20146TIP3    H181929   5.051   1.088   2.363  0.6291 -0.7266 -0.8031
20146TIP3    H281930   5.160   1.143   2.453  1.4697 -0.8341 -1.7476
20147TIP3   OH281931   0.176   3.482  13.981  0.0737  0.1317  0.3157
20147TIP3    H181932   0.107   3.466  13.917  1.9158 -1.2964 -1.3707
20147TIP3    H281933   0.179   3.577  13.989 -0.4314  0.3108 -1.4432
20148TIP3   OH281934   1.362   1.725   0.281 -0.5746 -0.2343  0.0864
20148TIP3    H181935   1.452   1.702   0.256 -0.7762 -1.0010  0.0391
20148TIP3    H281936   1.320   1.640   0.296 -1.1549  0.1427  0.5735
20149TIP3   OH281937   0.546   4.749  12.669 -0.6044 -0.1278  0.4247
20149TIP3    H181938   0.541   4.703  12.585 -0.8202  0.2128  0.2509
20149TIP3    H281939   0.588   4.833  12.648  2.0243 -1.1982  1.1386
20150TIP3   OH281940   2.386   1.958   4.032 -0.2538 -0.2270  0.2734
20150TIP3    H181941   2.388   2.008   3.950  1.0481 -1.0220 -0.2083
20150TIP3    H281942   2.382   2.025   4.100 -0.8958  0.4620 -0.4326
20151TIP3   OH281943   1.985   6.088  12.239 -0.2349 -0.3185  0.4323
20151TIP3    H181944   1.961   6.177  12.213 -0.4463 -0.3963  0.3652
20151TIP3    H281945   1.959   6.034  12.165 -2.2416 -0.7430  1.4223
20152TIP3   OH281946   6.045   2.865  15.126  0.1300  0.4832  0.1006
20152TIP3    H181947   6.099   2.869  15.205 -2.3419 -0.7127  1.9183
20152TIP3    H281948   6.064   2.779  15.089 -0.1421  0.2581  0.4752
20153TIP3   OH281949   5.195   3.815   0.102  0.0766 -0.2572 -0.0038
20153TIP3    H181950   5.256   3.855   0.039  1.0472 -1.0285  0.4226
20153TIP3    H281951   5.249   3.798   0.179 -0.4121 -1.9929 -0.0141
20154TIP3   OH281952   2.245   1.244   3.503 -0.1962 -0.3789  0.4242
20154TIP3    H181953   2.254   1.149   3.517  0.2628 -0.3163  0.5616
20154TIP3    H281954   2.241   1.254   3.408 -0.0435 -0.5171  0.4040
20155TIP3   OH281955   6.810   1.628  15.384 -0.9773 -0.4884 -0.5139
20155TIP3    H181956   6.901   1.651  15.401 -1.0442 -1.3868  1.1853
20155TIP3    H281957   6.811   1.533  15.369 -1.6296 -0.5203 -0.4016
20156TIP3   OH281958   1.523   0.096  11.078 -0.4279  0.5679  0.1639
20156TIP3    H181959   1.504   0.181  11.117  1.7838  1.1333  0.0660
20156TIP3    H281960   1.524   0.113  10.984  0.0257  0.4576  0.1447
20157TIP3   OH281961   4.075   1.016  14.523  0.6202  0.6786  0.0321
20157TIP3    H181962   4.091   1.047  14.434 -1.4102 -0.4376 -0.7498
20157TIP3    H281963   4.056   1.096  14.573  1.6300  1.2988 -0.5641
20158TIP3   OH281964   2.454   6.094  10.927  0.1308  0.1448  0.0932
20158TIP3    H181965   2.370   6.053  10.908  0.5391 -0.3468 -0.6704
20158TIP3    H281966   2.512   6.063  10.858  0.9690  0.4033  0.6722
20159TIP3   OH281967   1.457   4.158   2.628 -0.0420 -0.1419  0.1473
20159TIP3    H181968   1.467   4.122   2.717 -0.2784  3.3108  1.6426
20159TIP3    H281969   1.364   4.182   2.623  0.5433  2.1691 -0.0173
20160TIP3   OH281970   2.398   0.381   1.850  0.0569 -0.0134 -0.8173
20160TIP3    H181971   2.459   0.412   1.917 -1.2775  1.0430 -0.0508
20160TIP3    H281972   2.414   0.437   1.774  0.8082 -0.4784 -1.0034
20161TIP3   OH281973   4.673   6.156   3.210 -0.3895 -0.1570 -0.3069
20161TIP3    H181974   4.581   6.129   3.217  0.3195 -1.8993  3.4975
20161TIP3    H281975   4.720   6.075   3.191  0.4766  0.5438 -1.1577
20162TIP3   OH281976   0.604   0.489  14.070  0.5421  0.4974 -0.2369
20162TIP3    H181977   0.527   0.528  14.029  1.1971  1.1084 -0.9022
20162TIP3    H281978   0.599   0.396  14.046 -1.1045  0.0926  1.4877
20163TIP3   OH281979   6.151   6.414   4.825  0.6377  0.6207  0.0625
20163TIP3    H181980   6.061   6.380   4.823  0.9160 -0.1443  0.2352
20163TIP3    H281981   6.143   6.505   4.798  0.1389 -0.1853 -2.7046
20164TIP3   OH281982   2.964   0.485   4.614  0.2231  0.4556  0.2070
20164TIP3    H181983   2.893   0.463   4.675 -0.8124 -0.2557 -1.2279
20164TIP3    H281984   2.919   0.505   4.532  1.6384  0.8345 -0.4797
20165TIP3   OH281985   4.267   2.370   5.003 -0.0647  0.7894  0.6382
20165TIP3    H181986   4.242   2.443   4.947 -0.4572  0.7415  0.7546
20165TIP3    H281987   4.359   2.387   5.025  0.1463  0.7233 -0.1561
20166TIP3   OH281988   3.719   3.992   2.496  0.1248  0.5988  0.3179
20166TIP3    H181989   3.702   4.063   2.558 -1.3638  0.6333 -0.1016
20166TIP3    H281990   3.743   4.035   2.414 -0.0248  0.6002  0.2750
20167TIP3   OH281991   0.260   6.582   2.756 -0.1981  0.3483 -0.5945
20167TIP3    H181992   0.333   6.523   2.771 -1.4243 -1.1667 -0.4263
20167TIP3    H281993   0.264   6.645   2.827  0.0589 -0.6405  0.2757
20168TIP3   OH281994   0.263   4.261   2.429 -0.8667 -0.4137 -0.1205
20168TIP3    H181995   0.296   4.175   2.404  2.8763 -0.1049  3.1761
20168TIP3    H281996   0.204   4.245   2.502 -1.5671 -0.2921 -0.6513
20169TIP3   OH281997   0.023   1.655   1.123 -0.5899  0.3878 -0.0234
20169TIP3    H181998  -0.030   1.576   1.112 -0.2030  0.2745 -1.1231
20169TIP3    H281999   0.092   1.647   1.057  0.4269  0.8381  0.9650
20170TIP3   OH282000   3.260   4.714   2.174 -0.3939 -0.5461 -0.3932
20170TIP3    H182001   3.197   4.757   2.117  0.6467  2.9154  0.9763
20170TIP3    H282002   3.328   4.681   2.114 -1.6612 -1.1676 -1.5223
20171TIP3   OH282003   5.986   0.066  13.650  0.3606 -0.0749 -0.0226
20171TIP3    H182004   5.906   0.098  13.608 -0.7345 -2.3955  0.2282
20171TIP3    H282005   6.018   0.141  13.700 -1.3106  1.0816 -0.6317
20172TIP3   OH282006   4.946   3.225   4.137  0.8977  0.0675 -0.0809
20172TIP3    H182007   4.951   3.177   4.219  2.0986  0.0452 -0.1647
20172TIP3    H282008   4.959   3.316   4.162 -0.2101  0.2372 -0.0726
20173TIP3   OH282009   2.325   2.968  16.579 -0.3558 -0.3814  0.3281
20173TIP3    H182010   2.347   2.906  16.510 -1.6147 -0.5885  0.1111
20173TIP3    H282011   2.230   2.963  16.588 -0.4950  1.5989  0.2192
20174TIP3   OH282012   6.334   5.987  16.623  0.2748 -0.0099  0.0602
20174TIP3    H182013   6.272   6.053  16.654  0.7198 -0.2507  1.5000
20174TIP3    H282014   6.314   5.978  16.530 -0.7316  1.1249  0.1428
20175TIP3   OH282015   3.383   2.264   1.972  0.1908 -0.0764  0.1079
20175TIP3    H182016   3.409   2.302   2.056  0.6039  1.1914 -0.5830
20175TIP3    H282017   3.384   2.338   1.911 -1.6267 -0.6742 -0.6848
20176TIP3   OH282018   2.879   2.278   3.066  0.1804 -0.6884 -0.4316
20176TIP3    H182019   2.907   2.286   2.975  0.6036 -1.8848 -0.4197
20176TIP3    H282020   2.804   2.336   3.074  1.5022  1.1454 -0.9632
20177TIP3   OH282021   1.719   4.072  13.785  0.1066 -0.0007  0.5728
20177TIP3    H182022   1.707   4.163  13.759  1.5594  0.1770  0.4841
20177TIP3    H282023   1.798   4.072  13.838  3.0654 -1.9026 -3.5249
20178TIP3   OH282024   3.659   5.952  13.233  0.1121  0.2365 -0.3835
20178TIP3    H182025   3.597   5.899  13.282  1.8030 -0.9529  0.5162
20178TIP3    H282026   3.712   5.888  13.185  2.5599  1.0276  1.1739
20179TIP3   OH282027   2.425   6.514   5.284 -0.3192  0.2905 -0.2149
20179TIP3    H182028   2.331   6.497   5.288 -0.4068  0.2771 -1.9516
20179TIP3    H282029   2.431   6.608   5.268 -0.0005  0.4845  0.9727
20180TIP3   OH282030   5.444   3.669   2.565 -0.1174 -0.2899 -0.7158
20180TIP3    H182031   5.436   3.665   2.469 -1.0694  0.3467 -0.6654
20180TIP3    H282032   5.357   3.695   2.595  0.0068 -1.1256  0.3678
20181TIP3   OH282033   2.724   0.335   4.406 -0.5554  0.1152 -0.1351
20181TIP3    H182034   2.716   0.323   4.500  1.9407  1.7055  0.3434
20181TIP3    H282035   2.746   0.248   4.372 -0.1732 -0.2037  0.9253
20182TIP3   OH282036   0.002   5.892   6.267 -0.2529 -0.6954 -0.3860
20182TIP3    H182037   0.055   5.967   6.295 -1.4029  0.2567 -0.6711
20182TIP3    H282038  -0.007   5.838   6.345 -1.6274  0.8302  0.5520
20183TIP3   OH282039   0.371   1.660  14.045 -0.5783 -0.5351  0.7370
20183TIP3    H182040   0.456   1.662  14.090  0.7183 -2.1650 -1.5326
20183TIP3    H282041   0.368   1.743  13.997 -0.7698  0.0022  1.6595
20184TIP3   OH282042   4.665   0.285   4.228  0.4758  0.1940 -0.3317
20184TIP3    H182043   4.713   0.231   4.164 -0.4001  0.2987 -1.0824
20184TIP3    H282044   4.630   0.358   4.176 -0.2100  0.3035  0.2828
20185TIP3   OH282045   5.037   3.160  12.389 -0.3972 -0.3943  0.2027
20185TIP3    H182046   5.101   3.209  12.337  0.6095  0.5078  2.2730
20185TIP3    H282047   4.958   3.214  12.388  0.1086  0.3492  0.9081
20186TIP3   OH282048   2.013   5.241  14.694  0.1278 -0.2595 -0.0548
20186TIP3    H182049   2.101   5.244  14.732 -0.7203  0.2019  1.9151
20186TIP3    H282050   2.005   5.152  14.658  0.7447 -0.8810  1.3317
20187TIP3   OH282051   2.951   6.787   2.245 -0.5385  0.2239  0.4975
20187TIP3    H182052   2.999   6.850   2.299  0.6714 -0.8137  0.6388
20187TIP3    H282053   3.005   6.775   2.167 -0.2338 -1.4330  0.9423
20188TIP3   OH282054   2.963   4.092   1.345  0.1331  0.2346  0.1947
20188TIP3    H182055   2.919   4.059   1.267  0.0981  1.5538 -0.3634
20188TIP3    H282056   2.896   4.089   1.414  0.6614 -2.5785  0.6398
20189TIP3   OH282057   5.799   2.351   0.836  0.0628 -0.1199  0.7821
20189TIP3    H182058   5.826   2.346   0.928  0.6711  1.2029  0.6855
20189TIP3    H282059   5.881   2.361   0.787 -0.4247  1.7465  0.3121
20190TIP3   OH282060   6.159   1.637   0.282 -0.4873  0.3122 -0.5494
20190TIP3    H182061   6.077   1.603   0.245 -0.9715  0.5883  0.2578
20190TIP3    H282062   6.225   1.571   0.261 -1.4482 -1.2162  1.1647
20191TIP3   OH282063   6.211   1.866  16.533 -0.1936  0.7650  0.1178
20191TIP3    H182064   6.213   1.887  16.439 -1.9804 -1.5488 -0.4810
20191TIP3    H282065   6.183   1.775  16.537 -0.3371  0.8811  2.9369
20192TIP3   OH282066   3.882   0.020   1.437 -0.0745 -0.4737 -0.0251
20192TIP3    H182067   3.897  -0.074   1.428 -0.7172 -0.3878 -2.2455
20192TIP3    H282068   3.961   0.053   1.479  0.1218 -2.0102  0.8646
20193TIP3   OH282069   2.864   6.662  16.082  0.0597  0.5473  0.3853
20193TIP3    H182070   2.951   6.651  16.045 -0.0187  0.9244  0.0806
20193TIP3    H282071   2.819   6.580  16.063  0.4259  0.2532  0.7670
20194TIP3   OH282072   4.947   4.454   3.560  0.1274 -1.0353 -0.0622
20194TIP3    H182073   4.882   4.524   3.555 -0.8500 -1.9454 -0.1978
20194TIP3    H282074   4.992   4.468   3.643 -2.5679 -2.4142  1.6915
20195TIP3   OH282075   1.637   4.010   1.607  0.4246  0.1223  0.0363
20195TIP3    H182076   1.618   4.026   1.699 -3.0377  1.4273 -0.8175
20195TIP3    H282077   1.685   4.087   1.578  2.9130 -0.9809  1.0464
20196TIP3   OH282078   1.569   3.771   1.520  0.0041  0.3709  0.0423
20196TIP3    H182079   1.476   3.792   1.513  0.1200  0.7377 -0.4437
20196TIP3    H282080   1.609   3.850   1.556  0.1882  0.3779 -0.1674
20197TIP3   OH282081   2.921   6.231  14.593  0.0890 -0.2319  0.4708
20197TIP3    H182082   2.945   6.305  14.538 -1.5335  0.6404  0.9102
20197TIP3    H282083   3.005   6.195  14.623  0.9014  1.0904 -0.1805
20198TIP3   OH282084   1.390   4.767  15.529 -0.9677 -0.2954  0.2138
20198TIP3    H182085   1.451   4.694  15.517  0.8501  1.2329 -0.1300
20198TIP3    H282086   1.303   4.726  15.525  0.0275 -2.6828  1.9150
20199TIP3   OH282087   0.305   3.899  13.111 -0.5763 -0.7466 -0.0636
20199TIP3    H182088   0.322   3.966  13.177 -0.7121  0.0565 -0.8334
20199TIP3    H282089   0.390   3.880  13.073 -0.5967 -0.7344 -0.1153
20200TIP3   OH282090   6.115   3.273  12.428 -0.0566  0.3847  0.5015
20200TIP3    H182091   6.069   3.317  12.356  0.3344  0.7167  0.4501
20200TIP3    H282092   6.183   3.222  12.385  0.1481  0.5465  0.6325
20201TIP3   OH282093   0.615   2.264   6.460 -0.7629  0.2713  0.0718
20201TIP3    H182094   0.610   2.349   6.503  1.5932  0.6389 -0.3317
20201TIP3    H282095   0.524   2.244   6.438 -1.4647  2.2343  1.0081
20202TIP3   OH282096   5.959   0.028   2.492 -0.0894  0.2810  0.3138
20202TIP3    H182097   5.905   0.089   2.442 -0.8044  0.5221  1.3601
20202TIP3    H282098   5.901  -0.047   2.509  0.5521 -0.3791 -0.3237
20203TIP3   OH282099   0.954   3.810   6.180  0.0299  0.2377  0.3789
20203TIP3    H182100   0.974   3.903   6.192 -0.2956  0.4372 -0.6171
20203TIP3    H282101   0.861   3.803   6.199 -0.2169  0.3377 -0.7486
20204TIP3   OH282102   6.071   0.380   5.197  0.2015  0.6965  0.3915
20204TIP3    H182103   5.977   0.392   5.183  0.5075  1.7988 -0.8081
20204TIP3    H282104   6.112   0.442   5.136  1.7082 -0.1457  0.5383
20205TIP3   OH282105   5.877   3.644  17.037 -0.5554  0.2053  0.0282
20205TIP3    H182106   5.950   3.702  17.018  0.8887 -1.6309 -0.1493
20205TIP3    H282107   5.859   3.601  16.954 -1.0957 -0.1928  0.3494
20206TIP3   OH282108   0.828   3.895  14.156  0.6501 -0.4448  0.5324
20206TIP3    H182109   0.839   3.892  14.061 -1.3355  1.1309  0.2339
20206TIP3    H282110   0.765   3.826  14.175  1.1152 -0.8208  0.7341
20207TIP3   OH282111   3.099   1.039   2.437 -0.1968 -0.1729 -0.2903
20207TIP3    H182112   3.057   0.999   2.361 -0.7728  1.7876 -1.0161
20207TIP3    H282113   3.191   1.011   2.431 -0.2962 -0.2629 -1.5381
20208TIP3   OH282114   0.412   0.930   0.308  0.5470 -0.3388 -0.3769
20208TIP3    H182115   0.437   0.852   0.258 -1.6437 -0.7323 -0.9164
20208TIP3    H282116   0.369   0.896   0.387 -1.6582  0.2676 -1.2634
20209TIP3   OH282117   2.998   5.972  16.311  0.1988  0.3656  0.2650
20209TIP3    H182118   3.006   6.067  16.317  2.4782  0.2526 -0.2349
20209TIP3    H282119   3.028   5.939  16.396  0.6317  0.0682  0.0051
20210TIP3   OH282120   3.675   1.430  11.632 -0.1956  0.6421  0.0292
20210TIP3    H182121   3.631   1.402  11.712 -0.3935  1.4873  0.2267
20210TIP3    H282122   3.614   1.407  11.562  0.0920 -0.3338  0.0944
20211TIP3   OH282123   6.758   2.413  11.031 -0.0224  0.2189  0.1726
20211TIP3    H182124   6.847   2.426  11.064  0.3742 -1.1003 -0.3220
20211TIP3    H282125   6.702   2.437  11.105  0.8217 -1.8113  1.5296
20212TIP3   OH282126   6.035   1.645   0.747  0.3215  0.3235 -0.1830
20212TIP3    H182127   6.068   1.689   0.825 -1.6155  2.8433 -0.7081
20212TIP3    H282128   5.981   1.574   0.780  0.4768  0.6318  0.7407
20213TIP3   OH282129   0.864   6.127  12.564 -0.2867  0.4911  0.0650
20213TIP3    H182130   0.890   6.050  12.514 -0.4440  0.2430  0.3573
20213TIP3    H282131   0.918   6.198  12.530 -0.6251  0.3959 -0.6800
20214TIP3   OH282132   6.694   2.772   2.867 -0.0106  0.0019  0.0111
20214TIP3    H182133   6.655   2.856   2.892 -1.9615 -1.5704  2.4412
20214TIP3    H282134   6.660   2.755   2.779 -1.0089  0.9502  0.2073
20215TIP3   OH282135   6.575   2.439  13.228 -0.5675 -0.1994 -0.0183
20215TIP3    H182136   6.491   2.478  13.206 -0.4999  1.4664  2.4808
20215TIP3    H282137   6.638   2.511  13.218  0.7142 -1.5866 -2.5170
20216TIP3   OH282138   2.966   3.702  12.015  0.6916  0.4942 -0.1599
20216TIP3    H182139   2.914   3.659  12.083  1.5500 -0.3505 -0.0328
20216TIP3    H282140   2.983   3.634  11.950  1.4515  0.8164 -0.3053
20217TIP3   OH282141   5.002   6.480   3.126  0.1228  0.2627  0.3348
20217TIP3    H182142   4.917   6.496   3.085 -1.0233 -1.6110  1.9124
20217TIP3    H282143   5.042   6.412   3.071 -0.0530  0.0349  0.4901
20218TIP3   OH282144   1.618   6.399   0.143 -0.3767 -0.2147 -0.2524
20218TIP3    H182145   1.660   6.314   0.157  0.0785  0.0906  0.2532
20218TIP3    H282146   1.668   6.460   0.197  0.4369  0.7229 -2.0154
20219TIP3   OH282147   4.748   1.905  12.042  0.7715  0.1008  0.4154
20219TIP3    H182148   4.801   1.890  12.121  2.0446 -0.8018 -0.5915
20219TIP3    H282149   4.800   1.868  11.971 -0.2096  1.2251 -0.9085
20220TIP3   OH282150   5.704   5.449   1.694 -0.1815 -0.1308 -0.9291
20220TIP3    H182151   5.658   5.413   1.769 -2.1234  0.3176 -1.8681
20220TIP3    H282152   5.689   5.543   1.698  1.3955  0.1292 -0.7776
20221TIP3   OH282153   2.318   0.677  14.150  0.4592 -0.3922 -0.2056
20221TIP3    H182154   2.365   0.760  14.143  0.0439 -0.2650 -1.8195
20221TIP3    H282155   2.387   0.611  14.151  0.7389 -0.1681 -1.9390
20222TIP3   OH282156   2.583   5.145  12.230  0.1953 -0.2048 -0.3185
20222TIP3    H182157   2.529   5.083  12.181  1.3463 -0.6652 -1.0066
20222TIP3    H282158   2.639   5.090  12.286 -0.8178  0.3021  1.2358
20223TIP3   OH282159   1.654   3.759  13.392 -0.0224  0.0372 -0.4035
20223TIP3    H182160   1.576   3.722  13.433  0.7286 -1.5458 -0.3507
20223TIP3    H282161   1.660   3.847  13.428 -2.1298  0.4138 -0.9121
20224TIP3   OH282162   3.986   1.120  11.865  0.3865  0.0719 -0.4424
20224TIP3    H182163   4.069   1.099  11.823 -0.1119 -0.5118 -1.1388
20224TIP3    H282164   3.955   1.198  11.819  0.2356 -0.0880 -0.6100
20225TIP3   OH282165   6.523   0.264   6.636  0.1364  0.5011 -0.6044
20225TIP3    H182166   6.575   0.189   6.606  0.8833  0.8645 -0.2159
20225TIP3    H282167   6.451   0.224   6.685  0.2818  0.0176 -0.7763
20226TIP3   OH282168   1.752   6.310  16.527 -0.7510 -0.2863  0.3409
20226TIP3    H182169   1.667   6.324  16.485 -0.2982 -1.6153 -1.0659
20226TIP3    H282170   1.749   6.363  16.607 -2.0254  1.4917 -0.8467
20227TIP3   OH282171   4.561   3.230   0.292 -0.6874 -0.1851 -0.1241
20227TIP3    H182172   4.518   3.296   0.346 -2.0823  2.0137 -3.7678
20227TIP3    H282173   4.650   3.263   0.280 -0.7740  0.0003 -0.2605
20228TIP3   OH282174   6.432   5.204  15.199 -0.0549 -0.7508 -0.5017
20228TIP3    H182175   6.500   5.264  15.167 -0.0055 -0.8413 -0.5643
20228TIP3    H282176   6.377   5.188  15.122 -0.5635 -0.1102 -0.2723
20229TIP3   OH282177   5.682   5.685   1.431  0.0904  0.1583 -0.0493
20229TIP3    H182178   5.683   5.694   1.527  0.9642  0.2445 -0.0703
20229TIP3    H282179   5.701   5.773   1.398 -0.4786  0.1874 -0.3117
20230TIP3   OH282180   3.988   5.081  11.509 -0.1498 -0.1302 -0.0809
20230TIP3    H182181   3.941   5.080  11.592  0.8413  1.5181  0.5467
20230TIP3    H282182   3.977   4.994  11.473  0.5339 -1.3043  2.4489
20231TIP3   OH282183   0.952   4.456  12.763  0.0671  0.3888  0.4033
20231TIP3    H182184   0.878   4.468  12.703  1.1454  0.6679 -0.8856
20231TIP3    H282185   0.963   4.361  12.768 -0.8304  0.3111  1.1860
20232TIP3   OH282186   3.085   4.579  12.337 -0.2807  0.2050 -0.3697
20232TIP3    H182187   3.179   4.575  12.320 -0.2471  0.1906 -0.1826
20232TIP3    H282188   3.066   4.672  12.347 -0.2085  0.1797  0.0201
20233TIP3   OH282189   3.730   2.525  14.499 -0.3720 -0.3196 -0.7187
20233TIP3    H182190   3.752   2.592  14.564  0.3428  1.0074 -2.2894
20233TIP3    H282191   3.645   2.492  14.526  1.0132 -1.5856  2.3355
20234TIP3   OH282192   1.586   5.529   5.540 -0.0558 -0.4920  0.0958
20234TIP3    H182193   1.581   5.434   5.548  1.1406 -0.5781  0.0067
20234TIP3    H282194   1.677   5.546   5.516 -0.7464  0.5346 -1.9477
20235TIP3   OH282195   1.350   0.316   3.440  0.1890 -0.1265 -0.6293
20235TIP3    H182196   1.434   0.356   3.417  0.4249 -0.1610  0.1746
20235TIP3    H282197   1.345   0.237   3.386  1.1678 -0.7063  0.1220
20236TIP3   OH282198   1.735   0.206  16.960  0.2407 -0.6438  0.2417
20236TIP3    H182199   1.706   0.119  16.985  1.9790 -1.4315 -0.4332
20236TIP3    H282200   1.774   0.243  17.039  1.0717 -1.1535  0.0747
20237TIP3   OH282201   3.973   6.756  13.765  0.2216  0.0496 -0.1800
20237TIP3    H182202   3.917   6.719  13.834  0.6541  0.2373  0.2722
20237TIP3    H282203   3.949   6.849  13.762  0.3974  0.0967 -0.0954
20238TIP3   OH282204   1.115   5.054   3.353  0.3702  0.4227  0.5194
20238TIP3    H182205   1.130   5.082   3.263  1.2820  1.9412  1.1143
20238TIP3    H282206   1.028   5.015   3.352  0.1729  0.8671 -0.9121
20239TIP3   OH282207   0.875   1.215   2.701  0.5577 -0.6439 -0.4388
20239TIP3    H182208   0.882   1.157   2.625  2.8875 -0.4876 -0.3513
20239TIP3    H282209   0.896   1.160   2.776  2.1337  0.1279 -0.2954
20240TIP3   OH282210   3.783   1.436  13.522  0.5492 -0.1621 -0.0171
20240TIP3    H182211   3.703   1.418  13.472  0.6683 -1.3086  0.2091
20240TIP3    H282212   3.846   1.372  13.490  0.5567 -1.0536  1.7792
20241TIP3   OH282213   6.463   4.716  13.838  0.2286 -0.3240 -0.9144
20241TIP3    H182214   6.484   4.762  13.757 -0.0701 -0.6997 -1.2085
20241TIP3    H282215   6.382   4.757  13.869  1.5520  1.3463  0.3945
20242TIP3   OH282216   2.892   1.518  12.429 -0.3659 -0.4074  0.3851
20242TIP3    H182217   2.800   1.529  12.450 -0.7705 -0.9759 -0.9891
20242TIP3    H282218   2.936   1.507  12.513 -0.9146  4.1293  1.4293
20243TIP3   OH282219   0.582   2.514   1.995  0.0343 -0.3755 -1.0151
20243TIP3    H182220   0.643   2.586   1.982 -0.7802  0.5154 -0.0687
20243TIP3    H282221   0.607   2.476   2.080 -0.6562 -0.0669 -0.6691
20244TIP3   OH282222   2.649   1.926  15.707 -0.3196 -0.2198 -0.6768
20244TIP3    H182223   2.655   1.960  15.617 -0.3677 -0.8671 -0.9322
20244TIP3    H282224   2.555   1.911  15.720 -0.3667  0.3710 -0.3262
20245CLA    CLA82225   0.389   4.974  14.913 -0.1240  0.1988  0.2211
20246LIG     O182226   3.298   3.236  16.503 -1.3337 -0.1866 -0.4204
20246LIG     O282227   3.678   3.362  16.456  0.1518 -0.2981 -0.5301
20246LIG     O382228   3.720   3.619  16.586  0.1364  0.1208 -0.3745
20246LIG     O482229   3.888   3.394  16.365  0.2317  0.3027  0.7766
20246LIG      N82230   3.497   3.163  16.613 -0.2195 -0.7234 -0.8970
20246LIG     C182231   3.588   3.125  16.487  0.7162 -0.0533  0.3292
20246LIG     C282232   3.409   3.044  16.658 -0.5041 -0.6341  0.3828
20246LIG     C382233   3.589   3.204  16.731 -0.0813 -0.0824 -0.4379
20246LIG     C482234   3.416   3.283  16.567 -0.0955 -0.6527  0.1310
20246LIG     C582235   3.710   3.216  16.450  0.5865  0.0839  0.3586
20246LIG     C682236   3.482   2.910  16.667 -0.6567  0.0254  0.0265
20246LIG     C782237   3.526   3.267  16.854  0.8013  0.7105  0.1943
20246LIG     C882238   3.749   3.587  16.444 -0.8666 -0.6750  0.7916
20246LIG     C982239   3.781   3.439  16.417  0.0261 -0.4710  0.4892
20246LIG    C1082240   3.227   3.334  16.436 -0.3778 -0.1954 -0.5388
20246LIG    C1182241   3.625   3.621  16.349  0.3744  0.4733  0.2217
20246LIG    C1282242   3.872   3.675  16.399 -0.5587 -0.3834  0.2549
20246LIG    C1382243   3.558   3.526  16.265  0.0464 -0.2821 -0.8037
20246LIG    C1482244   3.938   3.761  16.489 -0.0299  0.1796  0.0434
20246LIG    C1582245   3.583   3.756  16.340  0.4998  0.7958  0.1854
20246LIG    C1682246   3.914   3.672  16.266 -0.2467 -0.2022 -0.2054
20246LIG    C1782247   3.467   3.572  16.170 -0.6632 -0.1060  0.2363
20246LIG    C1882248   4.058   3.826  16.450  0.0524  0.2657 -0.0684
20246LIG    C1982249   3.489   3.805  16.242 -0.6541 -0.1624  0.0911
20246LIG    C2082250   4.028   3.737  16.223  0.5486  0.6012 -0.1800
20246LIG    C2182251   3.435   3.708  16.156 -0.7104  0.6083 -0.1045
20246LIG    C2282252   4.098   3.812  16.314 -0.0378  0.4592  0.0845
20246LIG     H182253   3.530   3.109  16.398  0.9051 -0.9833  0.3650
20246LIG     H282254   3.636   3.034  16.521 -0.6500 -0.9984 -0.2335
20246LIG     H382255   3.334   3.027  16.582  0.6301  2.8369 -1.5982
20246LIG     H482256   3.354   3.067  16.749 -1.7320 -0.1890 -0.4520
20246LIG     H582257   3.657   3.278  16.692  1.8415 -0.7237  1.5503
20246LIG     H682258   3.641   3.113  16.760  1.8709  1.1743  0.1312
20246LIG     H782259   3.401   3.349  16.652 -0.8275 -0.1735 -0.3700
20246LIG     H882260   3.478   3.334  16.495  0.4721 -0.6094  0.6364
20246LIG     H982261   3.776   3.183  16.533 -1.5880  0.6334  2.3535
20246LIG    H1082262   3.750   3.189  16.349  0.1433  1.2987 -0.1551
20246LIG    H1182263   3.523   2.867  16.573  1.9901  1.9696  0.2418
20246LIG    H1282264   3.421   2.831  16.716  0.2164 -1.1726 -0.7771
20246LIG    H1382265   3.573   2.915  16.730 -0.0054 -2.3709 -0.6391
20246LIG    H1482266   3.448   3.340  16.825 -0.1922 -0.8576 -1.2161
20246LIG    H1582267   3.596   3.313  16.927 -0.7209  3.1037  0.2095
20246LIG    H1682268   3.467   3.198  16.918  2.4426 -2.7823 -1.8637
20246LIG    H1782269   3.135   3.299  16.384 -0.3100 -0.2199 -0.6451
20246LIG    H1882270   3.298   3.381  16.364 -0.8706  0.0107 -0.8941
20246LIG    H1982271   3.189   3.409  16.508 -2.7439  0.2607 -2.2063
20246LIG    H2082272   3.640   3.574  16.611  0.0902  0.8249  0.7429
20246LIG    H2182273   3.579   3.420  16.260  1.1997 -0.1292  0.4211
20246LIG    H2282274   3.904   3.776  16.591  1.7175 -0.2871  0.7169
20246LIG    H2382275   3.634   3.823  16.407  1.5539  1.6329 -1.4267
20246LIG    H2482276   3.858   3.609  16.198 -0.1770 -0.1873 -0.2781
20246LIG    H2582277   3.422   3.492  16.113 -2.1468 -0.0341  1.2672
20246LIG    H2682278   4.129   3.884  16.507  2.9489 -1.2601 -1.9775
20246LIG    H2782279   3.452   3.905  16.230  1.0453  0.6409  1.3576
20246LIG    H2882280   4.070   3.733  16.123 -1.3739 -1.1297 -0.9693
20246LIG    H2982281   3.372   3.736  16.072 -0.6251 -0.8213 -0.6521
20246LIG    H3082282   4.181   3.874  16.286  0.6047 -0.5363 -0.2266
   6.82013   6.82013  17.29240
